                               Psi4 1.3.2 release

  ==> Input File <==

--------------------------------------------------------------------------
#psi4
#
memory 32 gb

molecule  {
0 1
  O        2.5153482    -0.1378074     0.2246802
  O        0.8230440     1.2494390    -0.4327460
  C       -1.8165730    -0.1662430    -0.5903910
  C       -2.5841030     0.6523970     0.4513900
  C       -0.9018550    -1.1471370     0.0763090
  C        0.4790752    -1.0506952     0.3410494
  C        1.2159030     0.1700770    -0.0266570
  H       -2.5251580    -0.7208810    -1.2155130
  H       -1.2597500     0.5079260    -1.2382380
  H       -3.2919980     1.3271690    -0.0377650
  H       -1.8881090     1.2530680     1.0427000
  H       -3.1450010     0.0036210     1.1307380
  H       -1.3667210    -2.0751620     0.4099140
  H        0.9531490    -1.8065430     0.8308200
  H        2.9905100     0.7616870    -0.0298800
units angstrom
no_reorient  #important for SAPT in psi4, default
symmetry c1  #important for SAPT in psi4, default
}

set PROPERTIES_ORIGIN ["COM"]
properties('MP2/aug-cc-pvtz', properties = ['dipole'])
--------------------------------------------------------------------------

    Molecular point group: c1
  Charge       = 0
  Multiplicity = 1
  Basis Set: AUG-CC-PVTZ
    Blend: AUG-CC-PVTZ
  Basis Set: (AUG-CC-PVTZ AUX)
    Blend: AUG-CC-PVTZ-JKFIT

    Orbital Energies [Eh]
    ---------------------

    Doubly Occupied:

       1A    -20.615741     2A    -20.547280     3A    -11.386979
       4A    -11.280858     5A    -11.241616     6A    -11.234253
       7A    -11.222738     8A     -1.450457     9A     -1.351093
      10A     -1.096688    11A     -1.017889    12A     -0.904749
      13A     -0.832186    14A     -0.746304    15A     -0.706585
      16A     -0.681312    17A     -0.639807    18A     -0.626679
      19A     -0.597233    20A     -0.590706    21A     -0.557017
      22A     -0.529454    23A     -0.506587    24A     -0.497475
      25A     -0.482708    26A     -0.446101    27A     -0.367413

  @DF-RHF Final Energy:  -343.83418974820449

   => Energetics <=

    Nuclear Repulsion Energy =            291.8824496658075986
    One-Electron Energy =               -1047.1174617712797499
    Two-Electron Energy =                 411.4008223572676570
    Total Energy =                       -343.8341897482044942
  Basis Set: (AUG-CC-PVTZ AUX)
    Blend: AUG-CC-PVTZ-RI
    Molecular point group: c1

    Geometry (in Angstrom), charge = 0, multiplicity = 1:

       Center              X                  Y                   Z               Mass
    ------------   -----------------  -----------------  -----------------  -----------------
         O            2.510360915178    -0.123077735503     0.218761582154    15.994914619570
         O            0.818056715178     1.264168664497    -0.438664617846    15.994914619570
         C           -1.821560284822    -0.151513335503    -0.596309617846    12.000000000000
         C           -2.589090284822     0.667126664497     0.445471382154    12.000000000000
         C           -0.906842284822    -1.132407335503     0.070390382154    12.000000000000
         C            0.474087915178    -1.035965535503     0.335130782154    12.000000000000
         C            1.210915715178     0.184806664497    -0.032575617846    12.000000000000
         H           -2.530145284822    -0.706151335503    -1.221431617846     1.007825032230
         H           -1.264737284822     0.522655664497    -1.244156617846     1.007825032230
         H           -3.296985284822     1.341898664497    -0.043683617846     1.007825032230
         H           -1.893096284822     1.267797664497     1.036781382154     1.007825032230
         H           -3.149988284822     0.018350664497     1.124819382154     1.007825032230
         H           -1.371708284822    -2.060432335503     0.403995382154     1.007825032230
         H            0.948161715178    -1.791813335503     0.824901382154     1.007825032230
         H            2.985522715178     0.776416664497    -0.035798617846     1.007825032230

  Basis Set: AUG-CC-PVTZ
    Blend: AUG-CC-PVTZ
  Basis Set: (AUG-CC-PVTZ AUX)
    Blend: AUG-CC-PVTZ-JKFIT
	 Reference Energy          =    -343.8341897482044942 [Eh]
	 Singles Energy            =      -0.0000000000000000 [Eh]
	 Same-Spin Energy          =      -0.3431041897043038 [Eh]
	 Opposite-Spin Energy      =      -1.1046561228572902 [Eh]
	 Correlation Energy        =      -1.4477603125615941 [Eh]
	 Total Energy              =    -345.2819500607660643 [Eh]

	 ================> DF-SCS-MP2 Energies <==================
	-----------------------------------------------------------
	 SCS Same-Spin Scale       =       0.3333333333333333 [-]
	 SCS Opposite-Spin Scale   =       1.2000000000000000 [-]
	 SCS Same-Spin Energy      =      -0.1143680632347679 [Eh]
	 SCS Opposite-Spin Energy  =      -1.3255873474287483 [Eh]
	 SCS Correlation Energy    =      -1.4399554106635162 [Eh]
	 SCS Total Energy          =    -345.2741451588680093 [Eh]
	-----------------------------------------------------------

  Dipole Moment: [D]
     X:    -0.4031      Y:    -1.0368      Z:     0.3236     Total:     1.1585

*** Psi4 exiting successfully. Buy a developer a beer!
