                               Psi4 1.3.2 release

  ==> Input File <==

--------------------------------------------------------------------------
#psi4
#
memory 32 gb

molecule  {
0 1
  O        2.5331200    -0.0725200     0.2027050
  O        0.8230440     1.2494390    -0.4327460
  C       -1.8165730    -0.1662430    -0.5903910
  C       -2.6298214     0.6333381     0.4313127
  C       -0.9018550    -1.1471370     0.0763090
  C        0.4138040    -1.0149060     0.3209930
  C        1.2159030     0.1700770    -0.0266570
  H       -2.5538482    -0.7057225    -1.1952717
  H       -1.2597500     0.5079260    -1.2382380
  H       -3.2919980     1.3271690    -0.0377650
  H       -1.8881090     1.2530680     1.0427000
  H       -3.1450010     0.0036210     1.1307380
  H       -1.3667210    -2.0751620     0.4099140
  H        0.9531490    -1.8065430     0.8308200
  H        2.9905100     0.7616870    -0.0298800
units angstrom
no_reorient  #important for SAPT in psi4, default
symmetry c1  #important for SAPT in psi4, default
}

set PROPERTIES_ORIGIN ["COM"]
properties('MP2/aug-cc-pvtz', properties = ['dipole'])
--------------------------------------------------------------------------

    Molecular point group: c1
  Charge       = 0
  Multiplicity = 1
  Basis Set: AUG-CC-PVTZ
    Blend: AUG-CC-PVTZ
  Basis Set: (AUG-CC-PVTZ AUX)
    Blend: AUG-CC-PVTZ-JKFIT

    Orbital Energies [Eh]
    ---------------------

    Doubly Occupied:

       1A    -20.611441     2A    -20.544693     3A    -11.388423
       4A    -11.271566     5A    -11.243929     6A    -11.231754
       7A    -11.221074     8A     -1.458220     9A     -1.352690
      10A     -1.105497    11A     -1.020577    12A     -0.909329
      13A     -0.839500    14A     -0.752722    15A     -0.708035
      16A     -0.674466    17A     -0.647297    18A     -0.627915
      19A     -0.604724    20A     -0.580911    21A     -0.569362
      22A     -0.527408    23A     -0.510413    24A     -0.485986
      25A     -0.480019    26A     -0.444707    27A     -0.381260

  @DF-RHF Final Energy:  -343.85329384383499

   => Energetics <=

    Nuclear Repulsion Energy =            292.5468748500535412
    One-Electron Energy =               -1048.4125032237193409
    Two-Electron Energy =                 412.0123345298308095
    Total Energy =                       -343.8532938438349902
  Basis Set: (AUG-CC-PVTZ AUX)
    Blend: AUG-CC-PVTZ-RI
    Molecular point group: c1

    Geometry (in Angstrom), charge = 0, multiplicity = 1:

       Center              X                  Y                   Z               Mass
    ------------   -----------------  -----------------  -----------------  -----------------
         O            2.538892388716    -0.070386802284     0.204909085051    15.994914619570
         O            0.828816388716     1.251572197716    -0.430541914949    15.994914619570
         C           -1.810800611284    -0.164109802284    -0.588186914949    12.000000000000
         C           -2.624049011284     0.635471297716     0.433516785051    12.000000000000
         C           -0.896082611284    -1.145003802284     0.078513085051    12.000000000000
         C            0.419576388716    -1.012772802284     0.323197085051    12.000000000000
         C            1.221675388716     0.172210197716    -0.024452914949    12.000000000000
         H           -2.548075811284    -0.703589302284    -1.193067614949     1.007825032230
         H           -1.253977611284     0.510059197716    -1.236033914949     1.007825032230
         H           -3.286225611284     1.329302197716    -0.035560914949     1.007825032230
         H           -1.882336611284     1.255201197716     1.044904085051     1.007825032230
         H           -3.139228611284     0.005754197716     1.132942085051     1.007825032230
         H           -1.360948611284    -2.073028802284     0.412118085051     1.007825032230
         H            0.958921388716    -1.804409802284     0.833024085051     1.007825032230
         H            2.996282388716     0.763820197716    -0.027675914949     1.007825032230

  Basis Set: AUG-CC-PVTZ
    Blend: AUG-CC-PVTZ
  Basis Set: (AUG-CC-PVTZ AUX)
    Blend: AUG-CC-PVTZ-JKFIT
	 Reference Energy          =    -343.8532938438349902 [Eh]
	 Singles Energy            =      -0.0000000000000000 [Eh]
	 Same-Spin Energy          =      -0.3410041245715099 [Eh]
	 Opposite-Spin Energy      =      -1.1000663576933212 [Eh]
	 Correlation Energy        =      -1.4410704822648310 [Eh]
	 Total Energy              =    -345.2943643260998101 [Eh]

	 ================> DF-SCS-MP2 Energies <==================
	-----------------------------------------------------------
	 SCS Same-Spin Scale       =       0.3333333333333333 [-]
	 SCS Opposite-Spin Scale   =       1.2000000000000000 [-]
	 SCS Same-Spin Energy      =      -0.1136680415238366 [Eh]
	 SCS Opposite-Spin Energy  =      -1.3200796292319854 [Eh]
	 SCS Correlation Energy    =      -1.4337476707558221 [Eh]
	 SCS Total Energy          =    -345.2870415145908396 [Eh]
	-----------------------------------------------------------

  Dipole Moment: [D]
     X:    -0.4341      Y:    -1.1323      Z:     0.3344     Total:     1.2579

*** Psi4 exiting successfully. Buy a developer a beer!
