                               Psi4 1.3.2 release

  ==> Input File <==

--------------------------------------------------------------------------
#psi4
#
memory 32 gb

molecule  {
0 1
  O        2.5331200    -0.0725200     0.2027050
  O        0.8230440     1.2494390    -0.4327460
  C       -1.8165730    -0.1662430    -0.5903910
  C       -2.5841030     0.6523970     0.4513900
  C       -0.9018550    -1.1471370     0.0763090
  C        0.5116417    -1.0050728     0.3391887
  C        1.2159030     0.1700770    -0.0266570
  H       -2.5251580    -0.7208810    -1.2155130
  H       -1.2597500     0.5079260    -1.2382380
  H       -3.2919980     1.3271690    -0.0377650
  H       -1.8881090     1.2530680     1.0427000
  H       -3.1450010     0.0036210     1.1307380
  H       -1.3667210    -2.0751620     0.4099140
  H        0.9531490    -1.8065430     0.8308200
  H        2.9905100     0.7616870    -0.0298800
units angstrom
no_reorient  #important for SAPT in psi4, default
symmetry c1  #important for SAPT in psi4, default
}

set PROPERTIES_ORIGIN ["COM"]
properties('MP2/aug-cc-pvtz', properties = ['dipole'])
--------------------------------------------------------------------------

    Molecular point group: c1
  Charge       = 0
  Multiplicity = 1
  Basis Set: AUG-CC-PVTZ
    Blend: AUG-CC-PVTZ
  Basis Set: (AUG-CC-PVTZ AUX)
    Blend: AUG-CC-PVTZ-JKFIT

    Orbital Energies [Eh]
    ---------------------

    Doubly Occupied:

       1A    -20.603234     2A    -20.539633     3A    -11.380675
       4A    -11.293684     5A    -11.244037     6A    -11.236453
       7A    -11.225074     8A     -1.454035     9A     -1.347813
      10A     -1.098548    11A     -1.024032    12A     -0.914771
      13A     -0.836451    14A     -0.753088    15A     -0.709280
      16A     -0.679813    17A     -0.640152    18A     -0.625898
      19A     -0.599534    20A     -0.587148    21A     -0.563912
      22A     -0.530635    23A     -0.507434    24A     -0.496983
      25A     -0.479339    26A     -0.447107    27A     -0.363648

  @DF-RHF Final Energy:  -343.83842997895289

   => Energetics <=

    Nuclear Repulsion Energy =            292.4790893265491150
    One-Electron Energy =               -1048.2702139719522165
    Two-Electron Energy =                 411.9526946664502134
    Total Energy =                       -343.8384299789528882
  Basis Set: (AUG-CC-PVTZ AUX)
    Blend: AUG-CC-PVTZ-RI
    Molecular point group: c1

    Geometry (in Angstrom), charge = 0, multiplicity = 1:

       Center              X                  Y                   Z               Mass
    ------------   -----------------  -----------------  -----------------  -----------------
         O            2.521385688374    -0.073699346376     0.200522621740    15.994914619570
         O            0.811309688374     1.248259653624    -0.434928378260    15.994914619570
         C           -1.828307311626    -0.167422346376    -0.592573378260    12.000000000000
         C           -2.595837311626     0.651217653624     0.449207621740    12.000000000000
         C           -0.913589311626    -1.148316346376     0.074126621740    12.000000000000
         C            0.499907388374    -1.006252146376     0.337006321740    12.000000000000
         C            1.204168688374     0.168897653624    -0.028839378260    12.000000000000
         H           -2.536892311626    -0.722060346376    -1.217695378260     1.007825032230
         H           -1.271484311626     0.506746653624    -1.240420378260     1.007825032230
         H           -3.303732311626     1.325989653624    -0.039947378260     1.007825032230
         H           -1.899843311626     1.251888653624     1.040517621740     1.007825032230
         H           -3.156735311626     0.002441653624     1.128555621740     1.007825032230
         H           -1.378455311626    -2.076341346376     0.407731621740     1.007825032230
         H            0.941414688374    -1.807722346376     0.828637621740     1.007825032230
         H            2.978775688374     0.760507653624    -0.032062378260     1.007825032230

  Basis Set: AUG-CC-PVTZ
    Blend: AUG-CC-PVTZ
  Basis Set: (AUG-CC-PVTZ AUX)
    Blend: AUG-CC-PVTZ-JKFIT
	 Reference Energy          =    -343.8384299789528882 [Eh]
	 Singles Energy            =      -0.0000000000000000 [Eh]
	 Same-Spin Energy          =      -0.3425625732292040 [Eh]
	 Opposite-Spin Energy      =      -1.1025735095346012 [Eh]
	 Correlation Energy        =      -1.4451360827638053 [Eh]
	 Total Energy              =    -345.2835660617166695 [Eh]

	 ================> DF-SCS-MP2 Energies <==================
	-----------------------------------------------------------
	 SCS Same-Spin Scale       =       0.3333333333333333 [-]
	 SCS Opposite-Spin Scale   =       1.2000000000000000 [-]
	 SCS Same-Spin Energy      =      -0.1141875244097347 [Eh]
	 SCS Opposite-Spin Energy  =      -1.3230882114415214 [Eh]
	 SCS Correlation Energy    =      -1.4372757358512560 [Eh]
	 SCS Total Energy          =    -345.2757057148041326 [Eh]
	-----------------------------------------------------------

  Dipole Moment: [D]
     X:    -0.6266      Y:    -1.2109      Z:     0.3574     Total:     1.4095

*** Psi4 exiting successfully. Buy a developer a beer!
