                               Psi4 1.3.2 release

  ==> Input File <==

--------------------------------------------------------------------------
#psi4
#
memory 32 gb

molecule  {
0 1
  O        2.5331200    -0.0725200     0.2027050
  O        0.8230440     1.2494390    -0.4327460
  C       -1.8165730    -0.1662430    -0.5903910
  C       -2.5841030     0.6523970     0.4513900
  C       -0.9018550    -1.1471370     0.0763090
  C        0.4138040    -1.0149060     0.3209930
  C        1.2159030     0.1700770    -0.0266570
  H       -2.5251580    -0.7208810    -1.2155130
  H       -1.2597500     0.5079260    -1.2382380
  H       -3.2919980     1.3271690    -0.0377650
  H       -1.8881090     1.2530680     1.0427000
  H       -3.1450010     0.0036210     1.1307380
  H       -1.3667210    -2.0751620     0.4099140
  H        0.8537424    -1.6606365     0.7368539
  H        2.9905100     0.7616870    -0.0298800
units angstrom
no_reorient  #important for SAPT in psi4, default
symmetry c1  #important for SAPT in psi4, default
}

set PROPERTIES_ORIGIN ["COM"]
properties('MP2/aug-cc-pvtz', properties = ['dipole'])
--------------------------------------------------------------------------

    Molecular point group: c1
  Charge       = 0
  Multiplicity = 1
  Basis Set: AUG-CC-PVTZ
    Blend: AUG-CC-PVTZ
  Basis Set: (AUG-CC-PVTZ AUX)
    Blend: AUG-CC-PVTZ-JKFIT

    Orbital Energies [Eh]
    ---------------------

    Doubly Occupied:

       1A    -20.611500     2A    -20.543292     3A    -11.386457
       4A    -11.270760     5A    -11.230915     6A    -11.221023
       7A    -11.220398     8A     -1.457883     9A     -1.351848
      10A     -1.111254    11A     -1.028398    12A     -0.911194
      13A     -0.842948    14A     -0.759415    15A     -0.725921
      16A     -0.691255    17A     -0.648381    18A     -0.627687
      19A     -0.603233    20A     -0.590766    21A     -0.566296
      22A     -0.528852    23A     -0.504988    24A     -0.496388
      25A     -0.481521    26A     -0.445413    27A     -0.381064

  @DF-RHF Final Energy:  -343.82133573637770

   => Energetics <=

    Nuclear Repulsion Energy =            293.9451976025729891
    One-Electron Energy =               -1051.0549716314953912
    Two-Electron Energy =                 413.2884382925446971
    Total Energy =                       -343.8213357363777050
  Basis Set: (AUG-CC-PVTZ AUX)
    Blend: AUG-CC-PVTZ-RI
    Molecular point group: c1

    Geometry (in Angstrom), charge = 0, multiplicity = 1:

       Center              X                  Y                   Z               Mass
    ------------   -----------------  -----------------  -----------------  -----------------
         O            2.534121379713    -0.073989692380     0.203651479174    15.994914619570
         O            0.824045379713     1.247969307620    -0.431799520826    15.994914619570
         C           -1.815571620287    -0.167712692380    -0.589444520826    12.000000000000
         C           -2.583101620287     0.650927307620     0.452336479174    12.000000000000
         C           -0.900853620287    -1.148606692380     0.077255479174    12.000000000000
         C            0.414805379713    -1.016375692380     0.321939479174    12.000000000000
         C            1.216904379713     0.168607307620    -0.025710520826    12.000000000000
         H           -2.524156620287    -0.722350692380    -1.214566520826     1.007825032230
         H           -1.258748620287     0.506456307620    -1.237291520826     1.007825032230
         H           -3.290996620287     1.325699307620    -0.036818520826     1.007825032230
         H           -1.887107620287     1.251598307620     1.043646479174     1.007825032230
         H           -3.143999620287     0.002151307620     1.131684479174     1.007825032230
         H           -1.365719620287    -2.076631692380     0.410860479174     1.007825032230
         H            0.854743779713    -1.662106192380     0.737800379174     1.007825032230
         H            2.991511379713     0.760217307620    -0.028933520826     1.007825032230

  Basis Set: AUG-CC-PVTZ
    Blend: AUG-CC-PVTZ
  Basis Set: (AUG-CC-PVTZ AUX)
    Blend: AUG-CC-PVTZ-JKFIT
	 Reference Energy          =    -343.8213357363777050 [Eh]
	 Singles Energy            =      -0.0000000000000000 [Eh]
	 Same-Spin Energy          =      -0.3407130090788777 [Eh]
	 Opposite-Spin Energy      =      -1.0994227271731627 [Eh]
	 Correlation Energy        =      -1.4401357362520404 [Eh]
	 Total Energy              =    -345.2614714726297507 [Eh]

	 ================> DF-SCS-MP2 Energies <==================
	-----------------------------------------------------------
	 SCS Same-Spin Scale       =       0.3333333333333333 [-]
	 SCS Opposite-Spin Scale   =       1.2000000000000000 [-]
	 SCS Same-Spin Energy      =      -0.1135710030262926 [Eh]
	 SCS Opposite-Spin Energy  =      -1.3193072726077952 [Eh]
	 SCS Correlation Energy    =      -1.4328782756340879 [Eh]
	 SCS Total Energy          =    -345.2542140120118006 [Eh]
	-----------------------------------------------------------

  Dipole Moment: [D]
     X:    -0.4398      Y:    -1.1387      Z:     0.3346     Total:     1.2657

*** Psi4 exiting successfully. Buy a developer a beer!
