                               Psi4 1.4a3.dev225

  ==> Input File <==

--------------------------------------------------------------------------
#psi4
#
memory 32 gb

molecule  {
0 1
  O        2.6043210     0.0828630    -0.1445960
  O        0.8461570    -1.2916990     0.2386850
  C       -1.7394130     0.0979440     0.6095950
  C       -2.3802920    -0.6692310    -0.5542970
  C       -0.8230420     1.1744430     0.1086050
  C        0.4895550     1.0683010    -0.1734410
  C        1.2721580    -0.1688410     0.0026710
  H       -2.5220070     0.5621210     1.2198080
  H       -1.1892610    -0.6035630     1.2386490
  H       -3.0933810    -1.4091330    -0.1797240
  H       -1.6064800    -1.1915300    -1.1205690
  H       -2.9131760     0.0061510    -1.2301320
  H       -1.2820910     2.1452700    -0.0812320
  H        1.0534446     1.9445510    -0.5430073
  H        3.0455250    -0.7830240    -0.0219810
units angstrom
no_reorient  #important for SAPT in psi4, default
symmetry c1  #important for SAPT in psi4, default
}

set PROPERTIES_ORIGIN ["COM"]
properties('MP2/aug-cc-pvtz', properties = ['dipole'])
--------------------------------------------------------------------------

    Molecular point group: c1
  Charge       = 0
  Multiplicity = 1
  Basis Set: AUG-CC-PVTZ
    Blend: AUG-CC-PVTZ
  Basis Set: (AUG-CC-PVTZ AUX)
    Blend: AUG-CC-PVTZ-JKFIT

    Orbital Energies [Eh]
    ---------------------

    Doubly Occupied:

       1A    -20.612178     2A    -20.545535     3A    -11.390361
       4A    -11.271712     5A    -11.246380     6A    -11.232237
       7A    -11.219196     8A     -1.455215     9A     -1.351019
      10A     -1.104440    11A     -1.017186    12A     -0.907978
      13A     -0.839224    14A     -0.750837    15A     -0.706827
      16A     -0.671702    17A     -0.646156    18A     -0.626206
      19A     -0.599918    20A     -0.578559    21A     -0.568123
      22A     -0.526161    23A     -0.502210    24A     -0.496046
      25A     -0.479493    26A     -0.444783    27A     -0.380701

  @DF-RHF Final Energy:  -343.85457181897061

   => Energetics <=

    Nuclear Repulsion Energy =            293.6378923160718273
    One-Electron Energy =               -1050.6441641285016431
    Two-Electron Energy =                 413.1516999934591468
    Total Energy =                       -343.8545718189706122
  Basis Set: (AUG-CC-PVTZ AUX)
    Blend: AUG-CC-PVTZ-RI
    Molecular point group: c1

    Geometry (in Angstrom), charge = 0, multiplicity = 1:

       Center              X                  Y                   Z               Mass
    ------------   -----------------  -----------------  -----------------  -----------------
         O            2.519928289464     0.089137152903    -0.151579672246    15.994914619570
         O            0.761764289464    -1.285424847097     0.231701327754    15.994914619570
         C           -1.823805710536     0.104218152903     0.602611327754    12.000000000000
         C           -2.464684710536    -0.662956847097    -0.561280672246    12.000000000000
         C           -0.907434710536     1.180717152903     0.101621327754    12.000000000000
         C            0.405162289464     1.074575152903    -0.180424672246    12.000000000000
         C            1.187765289464    -0.162566847097    -0.004312672246    12.000000000000
         H           -2.606399710536     0.568395152903     1.212824327754     1.007825032230
         H           -1.273653710536    -0.597288847097     1.231665327754     1.007825032230
         H           -3.177773710536    -1.402858847097    -0.186707672246     1.007825032230
         H           -1.690872710536    -1.185255847097    -1.127552672246     1.007825032230
         H           -2.997568710536     0.012425152903    -1.237115672246     1.007825032230
         H           -1.366483710536     2.151544152903    -0.088215672246     1.007825032230
         H            0.969051889464     1.950825152903    -0.549990972246     1.007825032230
         H            2.961132289464    -0.776749847097    -0.028964672246     1.007825032230

  Basis Set: AUG-CC-PVTZ
    Blend: AUG-CC-PVTZ
  Basis Set: (AUG-CC-PVTZ AUX)
    Blend: AUG-CC-PVTZ-JKFIT
	 Reference Energy          =    -343.8545718189706122 [Eh]
	 Singles Energy            =      -0.0000000000000000 [Eh]
	 Same-Spin Energy          =      -0.3413716982255407 [Eh]
	 Opposite-Spin Energy      =      -1.1009414015466548 [Eh]
	 Correlation Energy        =      -1.4423130997721954 [Eh]
	 Total Energy              =    -345.2968849187428191 [Eh]

	 ================> DF-SCS-MP2 Energies <==================
	-----------------------------------------------------------
	 SCS Same-Spin Scale       =       0.3333333333333333 [-]
	 SCS Opposite-Spin Scale   =       1.2000000000000000 [-]
	 SCS Same-Spin Energy      =      -0.1137905660751802 [Eh]
	 SCS Opposite-Spin Energy  =      -1.3211296818559857 [Eh]
	 SCS Correlation Energy    =      -1.4349202479311658 [Eh]
	 SCS Total Energy          =    -345.2894920669018006 [Eh]
	-----------------------------------------------------------

  Dipole Moment: [D]
     X:    -0.3528      Y:     1.1497      Z:    -0.1313     Total:     1.2098

*** Psi4 exiting successfully. Buy a developer a beer!
