                               Psi4 1.3.2 release

  ==> Input File <==

--------------------------------------------------------------------------
#psi4
#
memory 32 gb

molecule  {
0 1
  O        2.5331200    -0.0725200     0.2027050
  O        0.8230440     1.2494390    -0.4327460
  C       -1.8165730    -0.1662430    -0.5903910
  C       -2.5841030     0.6523970     0.4513900
  C       -0.9018550    -1.1471370     0.0763090
  C        0.4138040    -1.0149060     0.3209930
  C        1.1189681     0.1879299    -0.0435359
  H       -2.5251580    -0.7208810    -1.2155130
  H       -1.2597500     0.5079260    -1.2382380
  H       -3.2919980     1.3271690    -0.0377650
  H       -1.8881090     1.2530680     1.0427000
  H       -3.1450010     0.0036210     1.1307380
  H       -1.3667210    -2.0751620     0.4099140
  H        0.9531490    -1.8065430     0.8308200
  H        2.9905100     0.7616870    -0.0298800
units angstrom
no_reorient  #important for SAPT in psi4, default
symmetry c1  #important for SAPT in psi4, default
}

set PROPERTIES_ORIGIN ["COM"]
properties('MP2/aug-cc-pvtz', properties = ['dipole'])
--------------------------------------------------------------------------

    Molecular point group: c1
  Charge       = 0
  Multiplicity = 1
  Basis Set: AUG-CC-PVTZ
    Blend: AUG-CC-PVTZ
  Basis Set: (AUG-CC-PVTZ AUX)
    Blend: AUG-CC-PVTZ-JKFIT

    Orbital Energies [Eh]
    ---------------------

    Doubly Occupied:

       1A    -20.580246     2A    -20.558338     3A    -11.385769
       4A    -11.276228     5A    -11.245815     6A    -11.237795
       7A    -11.226328     8A     -1.455119     9A     -1.340156
      10A     -1.115306    11A     -1.027313    12A     -0.908342
      13A     -0.837623    14A     -0.739927    15A     -0.710445
      16A     -0.672727    17A     -0.640117    18A     -0.619228
      19A     -0.606075    20A     -0.589588    21A     -0.571304
      22A     -0.532910    23A     -0.507987    24A     -0.500626
      25A     -0.484800    26A     -0.445738    27A     -0.387945

  @DF-RHF Final Energy:  -343.84625972890439

   => Energetics <=

    Nuclear Repulsion Energy =            293.2891171282751088
    One-Electron Energy =               -1049.8631599564041608
    Two-Electron Energy =                 412.7277830992246095
    Total Energy =                       -343.8462597289043856
  Basis Set: (AUG-CC-PVTZ AUX)
    Blend: AUG-CC-PVTZ-RI
    Molecular point group: c1

    Geometry (in Angstrom), charge = 0, multiplicity = 1:

       Center              X                  Y                   Z               Mass
    ------------   -----------------  -----------------  -----------------  -----------------
         O            2.544746152600    -0.074661206078     0.204729368164    15.994914619570
         O            0.834670152600     1.247297793922    -0.430721631836    15.994914619570
         C           -1.804946847400    -0.168384206078    -0.588366631836    12.000000000000
         C           -2.572476847400     0.650255793922     0.453414368164    12.000000000000
         C           -0.890228847400    -1.149278206078     0.078333368164    12.000000000000
         C            0.425430152600    -1.017047206078     0.323017368164    12.000000000000
         C            1.130594252600     0.185788693922    -0.041511531836    12.000000000000
         H           -2.513531847400    -0.723022206078    -1.213488631836     1.007825032230
         H           -1.248123847400     0.505784793922    -1.236213631836     1.007825032230
         H           -3.280371847400     1.325027793922    -0.035740631836     1.007825032230
         H           -1.876482847400     1.250926793922     1.044724368164     1.007825032230
         H           -3.133374847400     0.001479793922     1.132762368164     1.007825032230
         H           -1.355094847400    -2.077303206078     0.411938368164     1.007825032230
         H            0.964775152600    -1.808684206078     0.832844368164     1.007825032230
         H            3.002136152600     0.759545793922    -0.027855631836     1.007825032230

  Basis Set: AUG-CC-PVTZ
    Blend: AUG-CC-PVTZ
  Basis Set: (AUG-CC-PVTZ AUX)
    Blend: AUG-CC-PVTZ-JKFIT
	 Reference Energy          =    -343.8462597289043856 [Eh]
	 Singles Energy            =      -0.0000000000000000 [Eh]
	 Same-Spin Energy          =      -0.3411398505361911 [Eh]
	 Opposite-Spin Energy      =      -1.1005788105552270 [Eh]
	 Correlation Energy        =      -1.4417186610914181 [Eh]
	 Total Energy              =    -345.2879783899958284 [Eh]

	 ================> DF-SCS-MP2 Energies <==================
	-----------------------------------------------------------
	 SCS Same-Spin Scale       =       0.3333333333333333 [-]
	 SCS Opposite-Spin Scale   =       1.2000000000000000 [-]
	 SCS Same-Spin Energy      =      -0.1137132835120637 [Eh]
	 SCS Opposite-Spin Energy  =      -1.3206945726662724 [Eh]
	 SCS Correlation Energy    =      -1.4344078561783362 [Eh]
	 SCS Total Energy          =    -345.2806675850827105 [Eh]
	-----------------------------------------------------------

  Dipole Moment: [D]
     X:    -1.4070      Y:    -0.9817      Z:     0.1950     Total:     1.7267

*** Psi4 exiting successfully. Buy a developer a beer!
