                               Psi4 1.4a3.dev225

  ==> Input File <==

--------------------------------------------------------------------------
#psi4
#
memory 32 gb

molecule  {
0 1
  O        2.6043210     0.0828630    -0.1445960
  O        0.8461570    -1.2916990     0.2386850
  C       -1.7394130     0.0979440     0.6095950
  C       -2.3802920    -0.6692310    -0.5542970
  C       -0.8230420     1.1744430     0.1086050
  C        0.4895550     1.0683010    -0.1734410
  C        1.2721580    -0.1688410     0.0026710
  H       -2.5220070     0.5621210     1.2198080
  H       -1.1892610    -0.6035630     1.2386490
  H       -3.0933810    -1.4091330    -0.1797240
  H       -1.6064800    -1.1915300    -1.1205690
  H       -2.9131760     0.0061510    -1.2301320
  H       -1.2820910     2.1452700    -0.0812320
  H        1.0432440     1.9287000    -0.5363220
  H        3.0680465    -0.8272236    -0.0157221
units angstrom
no_reorient  #important for SAPT in psi4, default
symmetry c1  #important for SAPT in psi4, default
}

set PROPERTIES_ORIGIN ["COM"]
properties('MP2/aug-cc-pvtz', properties = ['dipole'])
--------------------------------------------------------------------------

    Molecular point group: c1
  Charge       = 0
  Multiplicity = 1
  Basis Set: AUG-CC-PVTZ
    Blend: AUG-CC-PVTZ
  Basis Set: (AUG-CC-PVTZ AUX)
    Blend: AUG-CC-PVTZ-JKFIT

    Orbital Energies [Eh]
    ---------------------

    Doubly Occupied:

       1A    -20.615148     2A    -20.544495     3A    -11.389246
       4A    -11.271292     5A    -11.244004     6A    -11.231855
       7A    -11.218920     8A     -1.448547     9A     -1.346325
      10A     -1.104225    11A     -1.016788    12A     -0.904817
      13A     -0.836370    14A     -0.747253    15A     -0.703619
      16A     -0.671999    17A     -0.645282    18A     -0.624568
      19A     -0.597462    20A     -0.579301    21A     -0.566125
      22A     -0.525950    23A     -0.501952    24A     -0.495498
      25A     -0.478257    26A     -0.444210    27A     -0.380314

  @DF-RHF Final Energy:  -343.85012210431421

   => Energetics <=

    Nuclear Repulsion Energy =            293.4524706685481306
    One-Electron Energy =               -1050.3375430577798397
    Two-Electron Energy =                 413.0349502849174996
    Total Energy =                       -343.8501221043142095
  Basis Set: (AUG-CC-PVTZ AUX)
    Blend: AUG-CC-PVTZ-RI
    Molecular point group: c1

    Geometry (in Angstrom), charge = 0, multiplicity = 1:

       Center              X                  Y                   Z               Mass
    ------------   -----------------  -----------------  -----------------  -----------------
         O            2.519804181419     0.089742040742    -0.151710058773    15.994914619570
         O            0.761640181419    -1.284819959258     0.231570941227    15.994914619570
         C           -1.823929818581     0.104823040742     0.602480941227    12.000000000000
         C           -2.464808818581    -0.662351959258    -0.561411058773    12.000000000000
         C           -0.907558818581     1.181322040742     0.101490941227    12.000000000000
         C            0.405038181419     1.075180040742    -0.180555058773    12.000000000000
         C            1.187641181419    -0.161961959258    -0.004443058773    12.000000000000
         H           -2.606523818581     0.569000040742     1.212693941227     1.007825032230
         H           -1.273777818581    -0.596683959258     1.231534941227     1.007825032230
         H           -3.177897818581    -1.402253959258    -0.186838058773     1.007825032230
         H           -1.690996818581    -1.184650959258    -1.127683058773     1.007825032230
         H           -2.997692818581     0.013030040742    -1.237246058773     1.007825032230
         H           -1.366607818581     2.152149040742    -0.088346058773     1.007825032230
         H            0.958727181419     1.935579040742    -0.543436058773     1.007825032230
         H            2.983529681419    -0.820344559258    -0.022836158773     1.007825032230

  Basis Set: AUG-CC-PVTZ
    Blend: AUG-CC-PVTZ
  Basis Set: (AUG-CC-PVTZ AUX)
    Blend: AUG-CC-PVTZ-JKFIT
	 Reference Energy          =    -343.8501221043142095 [Eh]
	 Singles Energy            =      -0.0000000000000000 [Eh]
	 Same-Spin Energy          =      -0.3419731607785914 [Eh]
	 Opposite-Spin Energy      =      -1.1023535882186284 [Eh]
	 Correlation Energy        =      -1.4443267489972198 [Eh]
	 Total Energy              =    -345.2944488533114509 [Eh]

	 ================> DF-SCS-MP2 Energies <==================
	-----------------------------------------------------------
	 SCS Same-Spin Scale       =       0.3333333333333333 [-]
	 SCS Opposite-Spin Scale   =       1.2000000000000000 [-]
	 SCS Same-Spin Energy      =      -0.1139910535928638 [Eh]
	 SCS Opposite-Spin Energy  =      -1.3228243058623541 [Eh]
	 SCS Correlation Energy    =      -1.4368153594552180 [Eh]
	 SCS Total Energy          =    -345.2869374637694477 [Eh]
	-----------------------------------------------------------

  Dipole Moment: [D]
     X:    -0.3053      Y:     1.1077      Z:    -0.1271     Total:     1.1560

*** Psi4 exiting successfully. Buy a developer a beer!
