                               Psi4 1.3.2 release

  ==> Input File <==

--------------------------------------------------------------------------
#psi4
#
memory 32 gb

molecule  {
0 1
  O        2.5331200    -0.0725200     0.2027050
  O        0.8230440     1.2494390    -0.4327460
  C       -1.8165730    -0.1662430    -0.5903910
  C       -2.5841030     0.6523970     0.4513900
  C       -0.9018550    -1.1471370     0.0763090
  C        0.4138040    -1.0149060     0.3209930
  C        1.2159030     0.1700770    -0.0266570
  H       -2.5251580    -0.7208810    -1.2155130
  H       -1.2597500     0.5079260    -1.2382380
  H       -3.2919980     1.3271690    -0.0377650
  H       -1.8881090     1.2530680     1.0427000
  H       -3.1450010     0.0036210     1.1307380
  H       -1.3667210    -2.0751620     0.4099140
  H        0.9531490    -1.8065430     0.8308200
  H        2.9438084     0.6765107    -0.0061320
units angstrom
no_reorient  #important for SAPT in psi4, default
symmetry c1  #important for SAPT in psi4, default
}

set PROPERTIES_ORIGIN ["COM"]
properties('MP2/aug-cc-pvtz', properties = ['dipole'])
--------------------------------------------------------------------------

    Molecular point group: c1
  Charge       = 0
  Multiplicity = 1
  Basis Set: AUG-CC-PVTZ
    Blend: AUG-CC-PVTZ
  Basis Set: (AUG-CC-PVTZ AUX)
    Blend: AUG-CC-PVTZ-JKFIT

    Orbital Energies [Eh]
    ---------------------

    Doubly Occupied:

       1A    -20.603734     2A    -20.546418     3A    -11.390064
       4A    -11.271629     5A    -11.243652     6A    -11.232139
       7A    -11.221647     8A     -1.476005     9A     -1.362475
      10A     -1.106674    11A     -1.022156    12A     -0.917839
      13A     -0.846518    14A     -0.761057    15A     -0.715544
      16A     -0.676977    17A     -0.649252    18A     -0.631366
      19A     -0.606166    20A     -0.584318    21A     -0.569270
      22A     -0.528380    23A     -0.504854    24A     -0.496630
      25A     -0.484430    26A     -0.445767    27A     -0.381746

  @DF-RHF Final Energy:  -343.85212226841827

   => Energetics <=

    Nuclear Repulsion Energy =            293.4568883605431893
    One-Electron Energy =               -1050.0646064957904855
    Two-Electron Energy =                 412.7555958668290259
    Total Energy =                       -343.8521222684182703
  Basis Set: (AUG-CC-PVTZ AUX)
    Blend: AUG-CC-PVTZ-RI
    Molecular point group: c1

    Geometry (in Angstrom), charge = 0, multiplicity = 1:

       Center              X                  Y                   Z               Mass
    ------------   -----------------  -----------------  -----------------  -----------------
         O            2.533590483876    -0.071662002472     0.202465748680    15.994914619570
         O            0.823514483876     1.250296997528    -0.432985251320    15.994914619570
         C           -1.816102516124    -0.165385002472    -0.590630251320    12.000000000000
         C           -2.583632516124     0.653254997528     0.451150748680    12.000000000000
         C           -0.901384516124    -1.146279002472     0.076069748680    12.000000000000
         C            0.414274483876    -1.014048002472     0.320753748680    12.000000000000
         C            1.216373483876     0.170934997528    -0.026896251320    12.000000000000
         H           -2.524687516124    -0.720023002472    -1.215752251320     1.007825032230
         H           -1.259279516124     0.508783997528    -1.238477251320     1.007825032230
         H           -3.291527516124     1.328026997528    -0.038004251320     1.007825032230
         H           -1.887638516124     1.253925997528     1.042460748680     1.007825032230
         H           -3.144530516124     0.004478997528     1.130498748680     1.007825032230
         H           -1.366250516124    -2.074304002472     0.409674748680     1.007825032230
         H            0.953619483876    -1.805685002472     0.830580748680     1.007825032230
         H            2.944278883876     0.677368697528    -0.006371251320     1.007825032230

  Basis Set: AUG-CC-PVTZ
    Blend: AUG-CC-PVTZ
  Basis Set: (AUG-CC-PVTZ AUX)
    Blend: AUG-CC-PVTZ-JKFIT
	 Reference Energy          =    -343.8521222684182703 [Eh]
	 Singles Energy            =      -0.0000000000000000 [Eh]
	 Same-Spin Energy          =      -0.3396540431856085 [Eh]
	 Opposite-Spin Energy      =      -1.0970019017857611 [Eh]
	 Correlation Energy        =      -1.4366559449713696 [Eh]
	 Total Energy              =    -345.2887782133896621 [Eh]

	 ================> DF-SCS-MP2 Energies <==================
	-----------------------------------------------------------
	 SCS Same-Spin Scale       =       0.3333333333333333 [-]
	 SCS Opposite-Spin Scale   =       1.2000000000000000 [-]
	 SCS Same-Spin Energy      =      -0.1132180143952028 [Eh]
	 SCS Opposite-Spin Energy  =      -1.3164022821429133 [Eh]
	 SCS Correlation Energy    =      -1.4296202965381162 [Eh]
	 SCS Total Energy          =    -345.2817425649564029 [Eh]
	-----------------------------------------------------------

  Dipole Moment: [D]
     X:    -0.5289      Y:    -1.2081      Z:     0.3528     Total:     1.3652

*** Psi4 exiting successfully. Buy a developer a beer!
