                               Psi4 1.3.2 release

  ==> Input File <==

--------------------------------------------------------------------------
#psi4
#
memory 32 gb

molecule  {
0 1
  O        2.5331200    -0.0725200     0.2027050
  O        0.8230440     1.2494390    -0.4327460
  C       -1.8165730    -0.1662430    -0.5903910
  C       -2.5902667     0.6590214     0.4415577
  C       -0.8979018    -1.1513359     0.0645795
  C        0.4138040    -1.0149060     0.3209930
  C        1.2159030     0.1700770    -0.0266570
  H       -2.5251580    -0.7208810    -1.2155130
  H       -1.2597500     0.5079260    -1.2382380
  H       -3.2919980     1.3271690    -0.0377650
  H       -1.8881090     1.2530680     1.0427000
  H       -3.1450010     0.0036210     1.1307380
  H       -1.3667210    -2.0751620     0.4099140
  H        0.9531490    -1.8065430     0.8308200
  H        2.9905100     0.7616870    -0.0298800
units angstrom
no_reorient  #important for SAPT in psi4, default
symmetry c1  #important for SAPT in psi4, default
}

set PROPERTIES_ORIGIN ["COM"]
properties('MP2/aug-cc-pvtz', properties = ['dipole'])
--------------------------------------------------------------------------

    Molecular point group: c1
  Charge       = 0
  Multiplicity = 1
  Basis Set: AUG-CC-PVTZ
    Blend: AUG-CC-PVTZ
  Basis Set: (AUG-CC-PVTZ AUX)
    Blend: AUG-CC-PVTZ-JKFIT

    Orbital Energies [Eh]
    ---------------------

    Doubly Occupied:

       1A    -20.611408     2A    -20.544697     3A    -11.388337
       4A    -11.270917     5A    -11.243435     6A    -11.231404
       7A    -11.221283     8A     -1.458201     9A     -1.352689
      10A     -1.105491    11A     -1.019868    12A     -0.909299
      13A     -0.840131    14A     -0.752085    15A     -0.707990
      16A     -0.673905    17A     -0.646939    18A     -0.627993
      19A     -0.601742    20A     -0.583508    21A     -0.566183
      22A     -0.527363    23A     -0.505079    24A     -0.494258
      25A     -0.481607    26A     -0.444159    27A     -0.381646

  @DF-RHF Final Energy:  -343.85650332984045

   => Energetics <=

    Nuclear Repulsion Energy =            292.7548273066003048
    One-Electron Energy =               -1048.8394293536782698
    Two-Electron Energy =                 412.2280987172375148
    Total Energy =                       -343.8565033298404501
  Basis Set: (AUG-CC-PVTZ AUX)
    Blend: AUG-CC-PVTZ-RI
    Molecular point group: c1

    Geometry (in Angstrom), charge = 0, multiplicity = 1:

       Center              X                  Y                   Z               Mass
    ------------   -----------------  -----------------  -----------------  -----------------
         O            2.533385181100    -0.072810888190     0.205291021692    15.994914619570
         O            0.823309181100     1.249148111810    -0.430159978308    15.994914619570
         C           -1.816307818900    -0.166533888190    -0.587804978308    12.000000000000
         C           -2.590001518900     0.658730511810     0.444143721692    12.000000000000
         C           -0.897636618900    -1.151626788190     0.067165521692    12.000000000000
         C            0.414069181100    -1.015196888190     0.323579021692    12.000000000000
         C            1.216168181100     0.169786111810    -0.024070978308    12.000000000000
         H           -2.524892818900    -0.721171888190    -1.212926978308     1.007825032230
         H           -1.259484818900     0.507635111810    -1.235651978308     1.007825032230
         H           -3.291732818900     1.326878111810    -0.035178978308     1.007825032230
         H           -1.887843818900     1.252777111810     1.045286021692     1.007825032230
         H           -3.144735818900     0.003330111810     1.133324021692     1.007825032230
         H           -1.366455818900    -2.075452888190     0.412500021692     1.007825032230
         H            0.953414181100    -1.806833888190     0.833406021692     1.007825032230
         H            2.990775181100     0.761396111810    -0.027293978308     1.007825032230

  Basis Set: AUG-CC-PVTZ
    Blend: AUG-CC-PVTZ
  Basis Set: (AUG-CC-PVTZ AUX)
    Blend: AUG-CC-PVTZ-JKFIT
	 Reference Energy          =    -343.8565033298404501 [Eh]
	 Singles Energy            =      -0.0000000000000000 [Eh]
	 Same-Spin Energy          =      -0.3409030316054407 [Eh]
	 Opposite-Spin Energy      =      -1.0998596806975607 [Eh]
	 Correlation Energy        =      -1.4407627123030013 [Eh]
	 Total Energy              =    -345.2972660421434625 [Eh]

	 ================> DF-SCS-MP2 Energies <==================
	-----------------------------------------------------------
	 SCS Same-Spin Scale       =       0.3333333333333333 [-]
	 SCS Opposite-Spin Scale   =       1.2000000000000000 [-]
	 SCS Same-Spin Energy      =      -0.1136343438684802 [Eh]
	 SCS Opposite-Spin Energy  =      -1.3198316168370727 [Eh]
	 SCS Correlation Energy    =      -1.4334659607055529 [Eh]
	 SCS Total Energy          =    -345.2899692905460256 [Eh]
	-----------------------------------------------------------

  Dipole Moment: [D]
     X:    -0.4170      Y:    -1.1116      Z:     0.3404     Total:     1.2351

*** Psi4 exiting successfully. Buy a developer a beer!
