                               Psi4 1.4a3.dev225

  ==> Input File <==

--------------------------------------------------------------------------
#psi4
#
memory 32 gb

molecule  {
0 1
  O        2.6043210     0.0828630    -0.1445960
  O        0.8461570    -1.2916990     0.2386850
  C       -1.7394130     0.0979440     0.6095950
  C       -2.3802920    -0.6692310    -0.5542970
  C       -0.8230420     1.1744430     0.1086050
  C        0.4895550     1.0683010    -0.1734410
  C        1.2456192    -0.1268883    -0.0033011
  H       -2.5220070     0.5621210     1.2198080
  H       -1.1892610    -0.6035630     1.2386490
  H       -3.0933810    -1.4091330    -0.1797240
  H       -1.6064800    -1.1915300    -1.1205690
  H       -2.9131760     0.0061510    -1.2301320
  H       -1.2820910     2.1452700    -0.0812320
  H        1.0432440     1.9287000    -0.5363220
  H        3.0455250    -0.7830240    -0.0219810
units angstrom
no_reorient  #important for SAPT in psi4, default
symmetry c1  #important for SAPT in psi4, default
}

set PROPERTIES_ORIGIN ["COM"]
properties('MP2/aug-cc-pvtz', properties = ['dipole'])
--------------------------------------------------------------------------

    Molecular point group: c1
  Charge       = 0
  Multiplicity = 1
  Basis Set: AUG-CC-PVTZ
    Blend: AUG-CC-PVTZ
  Basis Set: (AUG-CC-PVTZ AUX)
    Blend: AUG-CC-PVTZ-JKFIT

    Orbital Energies [Eh]
    ---------------------

    Doubly Occupied:

       1A    -20.605886     2A    -20.540095     3A    -11.390712
       4A    -11.280184     5A    -11.244381     6A    -11.235172
       7A    -11.221453     8A     -1.439489     9A     -1.329425
      10A     -1.113086    11A     -1.026085    12A     -0.915688
      13A     -0.841520    14A     -0.751189    15A     -0.704837
      16A     -0.670245    17A     -0.646038    18A     -0.617122
      19A     -0.598000    20A     -0.579978    21A     -0.569056
      22A     -0.528650    23A     -0.503428    24A     -0.496434
      25A     -0.471905    26A     -0.443243    27A     -0.384645

  @DF-RHF Final Energy:  -343.84791793013852

   => Energetics <=

    Nuclear Repulsion Energy =            293.6855949387563101
    One-Electron Energy =               -1050.7711335051722017
    Two-Electron Energy =                 413.2376206362773132
    Total Energy =                       -343.8479179301385216
  Basis Set: (AUG-CC-PVTZ AUX)
    Blend: AUG-CC-PVTZ-RI
    Molecular point group: c1

    Geometry (in Angstrom), charge = 0, multiplicity = 1:

       Center              X                  Y                   Z               Mass
    ------------   -----------------  -----------------  -----------------  -----------------
         O            2.523214026969     0.084265133624    -0.150930736607    15.994914619570
         O            0.765050026969    -1.290296866376     0.232350263393    15.994914619570
         C           -1.820519973031     0.099346133624     0.603260263393    12.000000000000
         C           -2.461398973031    -0.667828866376    -0.560631736607    12.000000000000
         C           -0.904148973031     1.175845133624     0.102270263393    12.000000000000
         C            0.408448026969     1.069703133624    -0.179775736607    12.000000000000
         C            1.164512226969    -0.125486166376    -0.009635836607    12.000000000000
         H           -2.603113973031     0.563523133624     1.213473263393     1.007825032230
         H           -1.270367973031    -0.602160866376     1.232314263393     1.007825032230
         H           -3.174487973031    -1.407730866376    -0.186058736607     1.007825032230
         H           -1.687586973031    -1.190127866376    -1.126903736607     1.007825032230
         H           -2.994282973031     0.007553133624    -1.236466736607     1.007825032230
         H           -1.363197973031     2.146672133624    -0.087566736607     1.007825032230
         H            0.962137026969     1.930102133624    -0.542656736607     1.007825032230
         H            2.964418026969    -0.781621866376    -0.028315736607     1.007825032230

  Basis Set: AUG-CC-PVTZ
    Blend: AUG-CC-PVTZ
  Basis Set: (AUG-CC-PVTZ AUX)
    Blend: AUG-CC-PVTZ-JKFIT
	 Reference Energy          =    -343.8479179301385216 [Eh]
	 Singles Energy            =      -0.0000000000000000 [Eh]
	 Same-Spin Energy          =      -0.3424810714722414 [Eh]
	 Opposite-Spin Energy      =      -1.1027603649048392 [Eh]
	 Correlation Energy        =      -1.4452414363770805 [Eh]
	 Total Energy              =    -345.2931593665156242 [Eh]

	 ================> DF-SCS-MP2 Energies <==================
	-----------------------------------------------------------
	 SCS Same-Spin Scale       =       0.3333333333333333 [-]
	 SCS Opposite-Spin Scale   =       1.2000000000000000 [-]
	 SCS Same-Spin Energy      =      -0.1141603571574138 [Eh]
	 SCS Opposite-Spin Energy  =      -1.3233124378858070 [Eh]
	 SCS Correlation Energy    =      -1.4374727950432207 [Eh]
	 SCS Total Energy          =    -345.2853907251817418 [Eh]
	-----------------------------------------------------------

  Dipole Moment: [D]
     X:    -0.6504      Y:     1.3819      Z:    -0.1504     Total:     1.5347

*** Psi4 exiting successfully. Buy a developer a beer!
