                               Psi4 1.3.2 release

  ==> Input File <==

--------------------------------------------------------------------------
#psi4
#
memory 32 gb

molecule  {
0 1
  O        2.5331200    -0.0725200     0.2027050
  O        0.8230440     1.2494390    -0.4327460
  C       -1.8165730    -0.1662430    -0.5903910
  C       -2.5841030     0.6523970     0.4513900
  C       -0.9010866    -1.0828702     0.0475749
  C        0.4138040    -1.0149060     0.3209930
  C        1.1521588     0.2021589    -0.0558269
  H       -2.5251580    -0.7208810    -1.2155130
  H       -1.2597500     0.5079260    -1.2382380
  H       -3.2919980     1.3271690    -0.0377650
  H       -1.8881090     1.2530680     1.0427000
  H       -3.1450010     0.0036210     1.1307380
  H       -1.3667210    -2.0751620     0.4099140
  H        0.9531490    -1.8065430     0.8308200
  H        2.9905100     0.7616870    -0.0298800
units angstrom
no_reorient  #important for SAPT in psi4, default
symmetry c1  #important for SAPT in psi4, default
}

set PROPERTIES_ORIGIN ["COM"]
properties('MP2/aug-cc-pvtz', properties = ['dipole'])
--------------------------------------------------------------------------

    Molecular point group: c1
  Charge       = 0
  Multiplicity = 1
  Basis Set: AUG-CC-PVTZ
    Blend: AUG-CC-PVTZ
  Basis Set: (AUG-CC-PVTZ AUX)
    Blend: AUG-CC-PVTZ-JKFIT

    Orbital Energies [Eh]
    ---------------------

    Doubly Occupied:

       1A    -20.587640     2A    -20.557117     3A    -11.382734
       4A    -11.274468     5A    -11.244943     6A    -11.233627
       7A    -11.226439     8A     -1.462441     9A     -1.352844
      10A     -1.116588    11A     -1.025027    12A     -0.905547
      13A     -0.835319    14A     -0.737102    15A     -0.710930
      16A     -0.676915    17A     -0.642805    18A     -0.624689
      19A     -0.605136    20A     -0.595210    21A     -0.557315
      22A     -0.536861    23A     -0.513574    24A     -0.500277
      25A     -0.489369    26A     -0.441389    27A     -0.382829

  @DF-RHF Final Energy:  -343.84376027809725

   => Energetics <=

    Nuclear Repulsion Energy =            294.0811929494178116
    One-Electron Energy =               -1051.4116381449794062
    Two-Electron Energy =                 413.4866849174644017
    Total Energy =                       -343.8437602780972497
  Basis Set: (AUG-CC-PVTZ AUX)
    Blend: AUG-CC-PVTZ-RI
    Molecular point group: c1

    Geometry (in Angstrom), charge = 0, multiplicity = 1:

       Center              X                  Y                   Z               Mass
    ------------   -----------------  -----------------  -----------------  -----------------
         O            2.540673196031    -0.084075766071     0.209649800406    15.994914619570
         O            0.830597196031     1.237883233929    -0.425801199594    15.994914619570
         C           -1.809019803969    -0.177798766071    -0.583446199594    12.000000000000
         C           -2.576549803969     0.640841233929     0.458334800406    12.000000000000
         C           -0.893533403969    -1.094425966071     0.054519700406    12.000000000000
         C            0.421357196031    -1.026461766071     0.327937800406    12.000000000000
         C            1.159711996031     0.190603133929    -0.048882099594    12.000000000000
         H           -2.517604803969    -0.732436766071    -1.208568199594     1.007825032230
         H           -1.252196803969     0.496370233929    -1.231293199594     1.007825032230
         H           -3.284444803969     1.315613233929    -0.030820199594     1.007825032230
         H           -1.880555803969     1.241512233929     1.049644800406     1.007825032230
         H           -3.137447803969    -0.007934766071     1.137682800406     1.007825032230
         H           -1.359167803969    -2.086717766071     0.416858800406     1.007825032230
         H            0.960702196031    -1.818098766071     0.837764800406     1.007825032230
         H            2.998063196031     0.750131233929    -0.022935199594     1.007825032230

  Basis Set: AUG-CC-PVTZ
    Blend: AUG-CC-PVTZ
  Basis Set: (AUG-CC-PVTZ AUX)
    Blend: AUG-CC-PVTZ-JKFIT
	 Reference Energy          =    -343.8437602780972497 [Eh]
	 Singles Energy            =      -0.0000000000000000 [Eh]
	 Same-Spin Energy          =      -0.3412637257560414 [Eh]
	 Opposite-Spin Energy      =      -1.1001333323685256 [Eh]
	 Correlation Energy        =      -1.4413970581245670 [Eh]
	 Total Energy              =    -345.2851573362218005 [Eh]

	 ================> DF-SCS-MP2 Energies <==================
	-----------------------------------------------------------
	 SCS Same-Spin Scale       =       0.3333333333333333 [-]
	 SCS Opposite-Spin Scale   =       1.2000000000000000 [-]
	 SCS Same-Spin Energy      =      -0.1137545752520138 [Eh]
	 SCS Opposite-Spin Energy  =      -1.3201599988422308 [Eh]
	 SCS Correlation Energy    =      -1.4339145740942445 [Eh]
	 SCS Total Energy          =    -345.2776748521914669 [Eh]
	-----------------------------------------------------------

  Dipole Moment: [D]
     X:    -1.1426      Y:    -0.8228      Z:     0.1504     Total:     1.4160

*** Psi4 exiting successfully. Buy a developer a beer!
