                               Psi4 1.3.2 release

  ==> Input File <==

--------------------------------------------------------------------------
#psi4
#
memory 32 gb

molecule  {
0 1
  O        2.5331200    -0.0725200     0.2027050
  O        0.8230440     1.2494390    -0.4327460
  C       -1.8165730    -0.1662430    -0.5903910
  C       -2.5841030     0.6523970     0.4513900
  C       -0.8407835    -1.2126268     0.1208215
  C        0.4138040    -1.0149060     0.3209930
  C        1.2159030     0.1700770    -0.0266570
  H       -2.5251580    -0.7208810    -1.2155130
  H       -1.2597500     0.5079260    -1.2382380
  H       -3.2919980     1.3271690    -0.0377650
  H       -1.8881090     1.2530680     1.0427000
  H       -3.1450010     0.0036210     1.1307380
  H       -1.3667210    -2.0751620     0.4099140
  H        0.9531490    -1.8065430     0.8308200
  H        2.9905100     0.7616870    -0.0298800
units angstrom
no_reorient  #important for SAPT in psi4, default
symmetry c1  #important for SAPT in psi4, default
}

set PROPERTIES_ORIGIN ["COM"]
properties('MP2/aug-cc-pvtz', properties = ['dipole'])
--------------------------------------------------------------------------

    Molecular point group: c1
  Charge       = 0
  Multiplicity = 1
  Basis Set: AUG-CC-PVTZ
    Blend: AUG-CC-PVTZ
  Basis Set: (AUG-CC-PVTZ AUX)
    Blend: AUG-CC-PVTZ-JKFIT

    Orbital Energies [Eh]
    ---------------------

    Doubly Occupied:

       1A    -20.614276     2A    -20.548040     3A    -11.392513
       4A    -11.260325     5A    -11.237619     6A    -11.233454
       7A    -11.217442     8A     -1.460964     9A     -1.355382
      10A     -1.105940    11A     -1.017545    12A     -0.908010
      13A     -0.837127    14A     -0.757429    15A     -0.710636
      16A     -0.674612    17A     -0.651184    18A     -0.629976
      19A     -0.598894    20A     -0.587166    21A     -0.570048
      22A     -0.519521    23A     -0.497420    24A     -0.486810
      25A     -0.478273    26A     -0.442305    27A     -0.397601

  @DF-RHF Final Energy:  -343.84819913501752

   => Energetics <=

    Nuclear Repulsion Energy =            292.4567130790022702
    One-Electron Energy =               -1048.2287978082724749
    Two-Electron Energy =                 411.9238855942526811
    Total Energy =                       -343.8481991350175235
  Basis Set: (AUG-CC-PVTZ AUX)
    Blend: AUG-CC-PVTZ-RI
    Molecular point group: c1

    Geometry (in Angstrom), charge = 0, multiplicity = 1:

       Center              X                  Y                   Z               Mass
    ------------   -----------------  -----------------  -----------------  -----------------
         O            2.525795320426    -0.064665322869     0.197366260604    15.994914619570
         O            0.815719320426     1.257293677131    -0.438084739396    15.994914619570
         C           -1.823897679574    -0.158388322869    -0.595729739396    12.000000000000
         C           -2.591427679574     0.660251677131     0.446051260604    12.000000000000
         C           -0.848108179574    -1.204772122869     0.115482760604    12.000000000000
         C            0.406479320426    -1.007051322869     0.315654260604    12.000000000000
         C            1.208578320426     0.177931677131    -0.031995739396    12.000000000000
         H           -2.532482679574    -0.713026322869    -1.220851739396     1.007825032230
         H           -1.267074679574     0.515780677131    -1.243576739396     1.007825032230
         H           -3.299322679574     1.335023677131    -0.043103739396     1.007825032230
         H           -1.895433679574     1.260922677131     1.037361260604     1.007825032230
         H           -3.152325679574     0.011475677131     1.125399260604     1.007825032230
         H           -1.374045679574    -2.067307322869     0.404575260604     1.007825032230
         H            0.945824320426    -1.798688322869     0.825481260604     1.007825032230
         H            2.983185320426     0.769541677131    -0.035218739396     1.007825032230

  Basis Set: AUG-CC-PVTZ
    Blend: AUG-CC-PVTZ
  Basis Set: (AUG-CC-PVTZ AUX)
    Blend: AUG-CC-PVTZ-JKFIT
	 Reference Energy          =    -343.8481991350175235 [Eh]
	 Singles Energy            =      -0.0000000000000000 [Eh]
	 Same-Spin Energy          =      -0.3398467688733402 [Eh]
	 Opposite-Spin Energy      =      -1.0987666802783829 [Eh]
	 Correlation Energy        =      -1.4386134491517231 [Eh]
	 Total Energy              =    -345.2868125841692404 [Eh]

	 ================> DF-SCS-MP2 Energies <==================
	-----------------------------------------------------------
	 SCS Same-Spin Scale       =       0.3333333333333333 [-]
	 SCS Opposite-Spin Scale   =       1.2000000000000000 [-]
	 SCS Same-Spin Energy      =      -0.1132822562911134 [Eh]
	 SCS Opposite-Spin Energy  =      -1.3185200163340594 [Eh]
	 SCS Correlation Energy    =      -1.4318022726251727 [Eh]
	 SCS Total Energy          =    -345.2800014076427146 [Eh]
	-----------------------------------------------------------

  Dipole Moment: [D]
     X:    -0.2429      Y:    -1.1579      Z:     0.3643     Total:     1.2379

*** Psi4 exiting successfully. Buy a developer a beer!
