                               Psi4 1.3.2 release

  ==> Input File <==

--------------------------------------------------------------------------
#psi4
#
memory 32 gb

molecule  {
0 1
  O        2.5331200    -0.0725200     0.2027050
  O        0.8230440     1.2494390    -0.4327460
  C       -1.8165730    -0.1662430    -0.5903910
  C       -2.5841030     0.6523970     0.4513900
  C       -0.9014431    -1.1682199     0.0866131
  C        0.4138040    -1.0149060     0.3209930
  C        1.2159030     0.1700770    -0.0266570
  H       -2.5251580    -0.7208810    -1.2155130
  H       -1.2597500     0.5079260    -1.2382380
  H       -3.2919980     1.3271690    -0.0377650
  H       -1.8881090     1.2530680     1.0427000
  H       -3.1450010     0.0036210     1.1307380
  H       -1.3667210    -2.0751620     0.4099140
  H        0.9371064    -1.8165503     0.8319009
  H        2.9905100     0.7616870    -0.0298800
units angstrom
no_reorient  #important for SAPT in psi4, default
symmetry c1  #important for SAPT in psi4, default
}

set PROPERTIES_ORIGIN ["COM"]
properties('MP2/aug-cc-pvtz', properties = ['dipole'])
--------------------------------------------------------------------------

    Molecular point group: c1
  Charge       = 0
  Multiplicity = 1
  Basis Set: AUG-CC-PVTZ
    Blend: AUG-CC-PVTZ
  Basis Set: (AUG-CC-PVTZ AUX)
    Blend: AUG-CC-PVTZ-JKFIT

    Orbital Energies [Eh]
    ---------------------

    Doubly Occupied:

       1A    -20.611780     2A    -20.545295     3A    -11.389557
       4A    -11.269656     5A    -11.243377     6A    -11.231932
       7A    -11.220386     8A     -1.458572     9A     -1.353105
      10A     -1.103491    11A     -1.018628    12A     -0.908975
      13A     -0.839255    14A     -0.755101    15A     -0.708005
      16A     -0.673952    17A     -0.647478    18A     -0.628223
      19A     -0.600494    20A     -0.582421    21A     -0.570101
      22A     -0.525613    23A     -0.502613    24A     -0.493413
      25A     -0.481640    26A     -0.445601    27A     -0.381599

  @DF-RHF Final Energy:  -343.85619750422507

   => Energetics <=

    Nuclear Repulsion Energy =            292.5351630077877303
    One-Electron Energy =               -1048.4021920513916939
    Two-Electron Energy =                 412.0108315393788416
    Total Energy =                       -343.8561975042250651
  Basis Set: (AUG-CC-PVTZ AUX)
    Blend: AUG-CC-PVTZ-RI
    Molecular point group: c1

    Geometry (in Angstrom), charge = 0, multiplicity = 1:

       Center              X                  Y                   Z               Mass
    ------------   -----------------  -----------------  -----------------  -----------------
         O            2.533232254617    -0.069890555232     0.201458229625    15.994914619570
         O            0.823156254617     1.252068444768    -0.433992770375    15.994914619570
         C           -1.816460745383    -0.163613555232    -0.591637770375    12.000000000000
         C           -2.583990745383     0.655026444768     0.450143229625    12.000000000000
         C           -0.901330845383    -1.165590455232     0.085366329625    12.000000000000
         C            0.413916254617    -1.012276555232     0.319746229625    12.000000000000
         C            1.216015254617     0.172706444768    -0.027903770375    12.000000000000
         H           -2.525045745383    -0.718251555232    -1.216759770375     1.007825032230
         H           -1.259637745383     0.510555444768    -1.239484770375     1.007825032230
         H           -3.291885745383     1.329798444768    -0.039011770375     1.007825032230
         H           -1.887996745383     1.255697444768     1.041453229625     1.007825032230
         H           -3.144888745383     0.006250444768     1.129491229625     1.007825032230
         H           -1.366608745383    -2.072532555232     0.408667229625     1.007825032230
         H            0.937218654617    -1.813920855232     0.830654129625     1.007825032230
         H            2.990622254617     0.764316444768    -0.031126770375     1.007825032230

  Basis Set: AUG-CC-PVTZ
    Blend: AUG-CC-PVTZ
  Basis Set: (AUG-CC-PVTZ AUX)
    Blend: AUG-CC-PVTZ-JKFIT
	 Reference Energy          =    -343.8561975042250651 [Eh]
	 Singles Energy            =      -0.0000000000000000 [Eh]
	 Same-Spin Energy          =      -0.3407506530971940 [Eh]
	 Opposite-Spin Energy      =      -1.0998113307255366 [Eh]
	 Correlation Energy        =      -1.4405619838227306 [Eh]
	 Total Energy              =    -345.2967594880477691 [Eh]

	 ================> DF-SCS-MP2 Energies <==================
	-----------------------------------------------------------
	 SCS Same-Spin Scale       =       0.3333333333333333 [-]
	 SCS Opposite-Spin Scale   =       1.2000000000000000 [-]
	 SCS Same-Spin Energy      =      -0.1135835510323980 [Eh]
	 SCS Opposite-Spin Energy  =      -1.3197735968706439 [Eh]
	 SCS Correlation Energy    =      -1.4333571479030418 [Eh]
	 SCS Total Energy          =    -345.2895546521281176 [Eh]
	-----------------------------------------------------------

  Dipole Moment: [D]
     X:    -0.3973      Y:    -1.1386      Z:     0.3418     Total:     1.2534

*** Psi4 exiting successfully. Buy a developer a beer!
