                               Psi4 1.3.2 release

  ==> Input File <==

--------------------------------------------------------------------------
#psi4
#
memory 32 gb

molecule  {
0 1
  O        2.5331200    -0.0725200     0.2027050
  O        0.8230440     1.2494390    -0.4327460
  C       -1.8165730    -0.1662430    -0.5903910
  C       -2.5841030     0.6523970     0.4513900
  C       -0.9018550    -1.1471370     0.0763090
  C        0.4138040    -1.0149060     0.3209930
  C        1.3248430     0.3310198    -0.0738744
  H       -2.5251580    -0.7208810    -1.2155130
  H       -1.2597500     0.5079260    -1.2382380
  H       -3.2919980     1.3271690    -0.0377650
  H       -1.8881090     1.2530680     1.0427000
  H       -3.1450010     0.0036210     1.1307380
  H       -1.3667210    -2.0751620     0.4099140
  H        0.9531490    -1.8065430     0.8308200
  H        2.9905100     0.7616870    -0.0298800
units angstrom
no_reorient  #important for SAPT in psi4, default
symmetry c1  #important for SAPT in psi4, default
}

set PROPERTIES_ORIGIN ["COM"]
properties('MP2/aug-cc-pvtz', properties = ['dipole'])
--------------------------------------------------------------------------

    Molecular point group: c1
  Charge       = 0
  Multiplicity = 1
  Basis Set: AUG-CC-PVTZ
    Blend: AUG-CC-PVTZ
  Basis Set: (AUG-CC-PVTZ AUX)
    Blend: AUG-CC-PVTZ-JKFIT

    Orbital Energies [Eh]
    ---------------------

    Doubly Occupied:

       1A    -20.635931     2A    -20.567690     3A    -11.389880
       4A    -11.241455     5A    -11.230864     6A    -11.220990
       7A    -11.212832     8A     -1.522232     9A     -1.437723
      10A     -1.080597    11A     -0.991541    12A     -0.883930
      13A     -0.833624    14A     -0.761177    15A     -0.729103
      16A     -0.689546    17A     -0.675707    18A     -0.651624
      19A     -0.597670    20A     -0.579830    21A     -0.564691
      22A     -0.530994    23A     -0.517470    24A     -0.496062
      25A     -0.482041    26A     -0.416455    27A     -0.360357

  @DF-RHF Final Energy:  -343.81287007959543

   => Energetics <=

    Nuclear Repulsion Energy =            293.1982557903883162
    One-Electron Energy =               -1049.4182203347995710
    Two-Electron Energy =                 412.4070944648158275
    Total Energy =                       -343.8128700795954273
  Basis Set: (AUG-CC-PVTZ AUX)
    Blend: AUG-CC-PVTZ-RI
    Molecular point group: c1

    Geometry (in Angstrom), charge = 0, multiplicity = 1:

       Center              X                  Y                   Z               Mass
    ------------   -----------------  -----------------  -----------------  -----------------
         O            2.520054110513    -0.091822996237     0.208368080406    15.994914619570
         O            0.809978110513     1.230136003763    -0.427082919594    15.994914619570
         C           -1.829638889487    -0.185545996237    -0.584727919594    12.000000000000
         C           -2.597168889487     0.633094003763     0.457053080406    12.000000000000
         C           -0.914920889487    -1.166439996237     0.081972080406    12.000000000000
         C            0.400738110513    -1.034208996237     0.326656080406    12.000000000000
         C            1.311777110513     0.311716803763    -0.068211319594    12.000000000000
         H           -2.538223889487    -0.740183996237    -1.209849919594     1.007825032230
         H           -1.272815889487     0.488623003763    -1.232574919594     1.007825032230
         H           -3.305063889487     1.307866003763    -0.032101919594     1.007825032230
         H           -1.901174889487     1.233765003763     1.048363080406     1.007825032230
         H           -3.158066889487    -0.015681996237     1.136401080406     1.007825032230
         H           -1.379786889487    -2.094464996237     0.415577080406     1.007825032230
         H            0.940083110513    -1.825845996237     0.836483080406     1.007825032230
         H            2.977444110513     0.742384003763    -0.024216919594     1.007825032230

  Basis Set: AUG-CC-PVTZ
    Blend: AUG-CC-PVTZ
  Basis Set: (AUG-CC-PVTZ AUX)
    Blend: AUG-CC-PVTZ-JKFIT
	 Reference Energy          =    -343.8128700795954273 [Eh]
	 Singles Energy            =      -0.0000000000000000 [Eh]
	 Same-Spin Energy          =      -0.3390486648976429 [Eh]
	 Opposite-Spin Energy      =      -1.0967237078806136 [Eh]
	 Correlation Energy        =      -1.4357723727782565 [Eh]
	 Total Energy              =    -345.2486424523737014 [Eh]

	 ================> DF-SCS-MP2 Energies <==================
	-----------------------------------------------------------
	 SCS Same-Spin Scale       =       0.3333333333333333 [-]
	 SCS Opposite-Spin Scale   =       1.2000000000000000 [-]
	 SCS Same-Spin Energy      =      -0.1130162216325476 [Eh]
	 SCS Opposite-Spin Energy  =      -1.3160684494567363 [Eh]
	 SCS Correlation Energy    =      -1.4290846710892839 [Eh]
	 SCS Total Energy          =    -345.2419547506847266 [Eh]
	-----------------------------------------------------------

  Dipole Moment: [D]
     X:     0.7159      Y:    -0.0940      Z:     0.0841     Total:     0.7269

*** Psi4 exiting successfully. Buy a developer a beer!
