                               Psi4 1.3.2 release

  ==> Input File <==

--------------------------------------------------------------------------
#psi4
#
memory 32 gb

molecule  {
0 1
  O        2.5331200    -0.0725200     0.2027050
  O        0.8230440     1.2494390    -0.4327460
  C       -1.8165730    -0.1662430    -0.5903910
  C       -2.5841030     0.6523970     0.4513900
  C       -0.8956478    -1.1372574     0.0822001
  C        0.4138040    -1.0149060     0.3209930
  C        1.2159030     0.1700770    -0.0266570
  H       -2.5292190    -0.7126367    -1.2181514
  H       -1.2597500     0.5079260    -1.2382380
  H       -3.2919980     1.3271690    -0.0377650
  H       -1.8881090     1.2530680     1.0427000
  H       -3.1450010     0.0036210     1.1307380
  H       -1.3667210    -2.0751620     0.4099140
  H        0.9531490    -1.8065430     0.8308200
  H        2.9905100     0.7616870    -0.0298800
units angstrom
no_reorient  #important for SAPT in psi4, default
symmetry c1  #important for SAPT in psi4, default
}

set PROPERTIES_ORIGIN ["COM"]
properties('MP2/aug-cc-pvtz', properties = ['dipole'])
--------------------------------------------------------------------------

    Molecular point group: c1
  Charge       = 0
  Multiplicity = 1
  Basis Set: AUG-CC-PVTZ
    Blend: AUG-CC-PVTZ
  Basis Set: (AUG-CC-PVTZ AUX)
    Blend: AUG-CC-PVTZ-JKFIT

    Orbital Energies [Eh]
    ---------------------

    Doubly Occupied:

       1A    -20.611365     2A    -20.544664     3A    -11.388185
       4A    -11.270334     5A    -11.242468     6A    -11.231483
       7A    -11.220940     8A     -1.458178     9A     -1.352688
      10A     -1.106591    11A     -1.020560    12A     -0.908272
      13A     -0.840333    14A     -0.751268    15A     -0.708138
      16A     -0.674654    17A     -0.646877    18A     -0.628088
      19A     -0.601414    20A     -0.584172    21A     -0.564906
      22A     -0.527223    23A     -0.503423    24A     -0.496013
      25A     -0.481877    26A     -0.443604    27A     -0.382927

  @DF-RHF Final Energy:  -343.85667536580473

   => Energetics <=

    Nuclear Repulsion Energy =            292.9704075855667611
    One-Electron Energy =               -1049.2728743614366067
    Two-Electron Energy =                 412.4457914100650555
    Total Energy =                       -343.8566753658047332
  Basis Set: (AUG-CC-PVTZ AUX)
    Blend: AUG-CC-PVTZ-RI
    Molecular point group: c1

    Geometry (in Angstrom), charge = 0, multiplicity = 1:

       Center              X                  Y                   Z               Mass
    ------------   -----------------  -----------------  -----------------  -----------------
         O            2.532416492753    -0.073787956037     0.202024976519    15.994914619570
         O            0.822340492753     1.248171043963    -0.433426023481    15.994914619570
         C           -1.817276507247    -0.167510956037    -0.591071023481    12.000000000000
         C           -2.584806507247     0.651129043963     0.450709976519    12.000000000000
         C           -0.896351307247    -1.138525356037     0.081520076519    12.000000000000
         C            0.413100492753    -1.016173956037     0.320312976519    12.000000000000
         C            1.215199492753     0.168809043963    -0.027337023481    12.000000000000
         H           -2.529922507247    -0.713904656037    -1.218831423481     1.007825032230
         H           -1.260453507247     0.506658043963    -1.238918023481     1.007825032230
         H           -3.292701507247     1.325901043963    -0.038445023481     1.007825032230
         H           -1.888812507247     1.251800043963     1.042019976519     1.007825032230
         H           -3.145704507247     0.002353043963     1.130057976519     1.007825032230
         H           -1.367424507247    -2.076429956037     0.409233976519     1.007825032230
         H            0.952445492753    -1.807810956037     0.830139976519     1.007825032230
         H            2.989806492753     0.760419043963    -0.030560023481     1.007825032230

  Basis Set: AUG-CC-PVTZ
    Blend: AUG-CC-PVTZ
  Basis Set: (AUG-CC-PVTZ AUX)
    Blend: AUG-CC-PVTZ-JKFIT
	 Reference Energy          =    -343.8566753658047332 [Eh]
	 Singles Energy            =      -0.0000000000000000 [Eh]
	 Same-Spin Energy          =      -0.3408862851034912 [Eh]
	 Opposite-Spin Energy      =      -1.0997510398719608 [Eh]
	 Correlation Energy        =      -1.4406373249754520 [Eh]
	 Total Energy              =    -345.2973126907801884 [Eh]

	 ================> DF-SCS-MP2 Energies <==================
	-----------------------------------------------------------
	 SCS Same-Spin Scale       =       0.3333333333333333 [-]
	 SCS Opposite-Spin Scale   =       1.2000000000000000 [-]
	 SCS Same-Spin Energy      =      -0.1136287617011637 [Eh]
	 SCS Opposite-Spin Energy  =      -1.3197012478463528 [Eh]
	 SCS Correlation Energy    =      -1.4333300095475165 [Eh]
	 SCS Total Energy          =    -345.2900053753522229 [Eh]
	-----------------------------------------------------------

  Dipole Moment: [D]
     X:    -0.4182      Y:    -1.1192      Z:     0.3256     Total:     1.2383

*** Psi4 exiting successfully. Buy a developer a beer!
