                               Psi4 1.3.2 release

  ==> Input File <==

--------------------------------------------------------------------------
#psi4
#
memory 32 gb

molecule  {
0 1
  O        2.5331200    -0.0725200     0.2027050
  O        0.8230440     1.2494390    -0.4327460
  C       -1.8165730    -0.1662430    -0.5903910
  C       -2.5963716     0.6655829     0.4316468
  C       -0.8940186    -1.1554597     0.0528001
  C        0.4138040    -1.0149060     0.3209930
  C        1.2159030     0.1700770    -0.0266570
  H       -2.5251580    -0.7208810    -1.2155130
  H       -1.2597500     0.5079260    -1.2382380
  H       -3.2919980     1.3271690    -0.0377650
  H       -1.8881090     1.2530680     1.0427000
  H       -3.1450010     0.0036210     1.1307380
  H       -1.3667210    -2.0751620     0.4099140
  H        0.9531490    -1.8065430     0.8308200
  H        2.9905100     0.7616870    -0.0298800
units angstrom
no_reorient  #important for SAPT in psi4, default
symmetry c1  #important for SAPT in psi4, default
}

set PROPERTIES_ORIGIN ["COM"]
properties('MP2/aug-cc-pvtz', properties = ['dipole'])
--------------------------------------------------------------------------

    Molecular point group: c1
  Charge       = 0
  Multiplicity = 1
  Basis Set: AUG-CC-PVTZ
    Blend: AUG-CC-PVTZ
  Basis Set: (AUG-CC-PVTZ AUX)
    Blend: AUG-CC-PVTZ-JKFIT

    Orbital Energies [Eh]
    ---------------------

    Doubly Occupied:

       1A    -20.611546     2A    -20.544872     3A    -11.388470
       4A    -11.270989     5A    -11.243699     6A    -11.231278
       7A    -11.221468     8A     -1.458345     9A     -1.352829
      10A     -1.105456    11A     -1.019995    12A     -0.909688
      13A     -0.840298    14A     -0.751743    15A     -0.708138
      16A     -0.673869    17A     -0.646724    18A     -0.628066
      19A     -0.602409    20A     -0.583814    21A     -0.565926
      22A     -0.527350    23A     -0.505927    24A     -0.492755
      25A     -0.481335    26A     -0.444062    27A     -0.382169

  @DF-RHF Final Energy:  -343.85574179330501

   => Energetics <=

    Nuclear Repulsion Energy =            292.6919250837093500
    One-Electron Energy =               -1048.7088913349850827
    Two-Electron Energy =                 412.1612244579707749
    Total Energy =                       -343.8557417933050147
  Basis Set: (AUG-CC-PVTZ AUX)
    Blend: AUG-CC-PVTZ-RI
    Molecular point group: c1

    Geometry (in Angstrom), charge = 0, multiplicity = 1:

       Center              X                  Y                   Z               Mass
    ------------   -----------------  -----------------  -----------------  -----------------
         O            2.533651645394    -0.073103258902     0.207892493753    15.994914619570
         O            0.823575645394     1.248855741098    -0.427558506247    15.994914619570
         C           -1.816041354606    -0.166826258902    -0.585203506247    12.000000000000
         C           -2.595839954606     0.664999641098     0.436834293753    12.000000000000
         C           -0.893486954606    -1.156042958902     0.057987593753    12.000000000000
         C            0.414335645394    -1.015489258902     0.326180493753    12.000000000000
         C            1.216434645394     0.169493741098    -0.021469506247    12.000000000000
         H           -2.524626354606    -0.721464258902    -1.210325506247     1.007825032230
         H           -1.259218354606     0.507342741098    -1.233050506247     1.007825032230
         H           -3.291466354606     1.326585741098    -0.032577506247     1.007825032230
         H           -1.887577354606     1.252484741098     1.047887493753     1.007825032230
         H           -3.144469354606     0.003037741098     1.135925493753     1.007825032230
         H           -1.366189354606    -2.075745258902     0.415101493753     1.007825032230
         H            0.953680645394    -1.807126258902     0.836007493753     1.007825032230
         H            2.991041645394     0.761103741098    -0.024692506247     1.007825032230

  Basis Set: AUG-CC-PVTZ
    Blend: AUG-CC-PVTZ
  Basis Set: (AUG-CC-PVTZ AUX)
    Blend: AUG-CC-PVTZ-JKFIT
	 Reference Energy          =    -343.8557417933050147 [Eh]
	 Singles Energy            =      -0.0000000000000000 [Eh]
	 Same-Spin Energy          =      -0.3408951855384044 [Eh]
	 Opposite-Spin Energy      =      -1.0998881982299304 [Eh]
	 Correlation Energy        =      -1.4407833837683348 [Eh]
	 Total Energy              =    -345.2965251770733630 [Eh]

	 ================> DF-SCS-MP2 Energies <==================
	-----------------------------------------------------------
	 SCS Same-Spin Scale       =       0.3333333333333333 [-]
	 SCS Opposite-Spin Scale   =       1.2000000000000000 [-]
	 SCS Same-Spin Energy      =      -0.1136317285128015 [Eh]
	 SCS Opposite-Spin Energy  =      -1.3198658378759165 [Eh]
	 SCS Correlation Energy    =      -1.4334975663887179 [Eh]
	 SCS Total Energy          =    -345.2892393596937382 [Eh]
	-----------------------------------------------------------

  Dipole Moment: [D]
     X:    -0.4072      Y:    -1.1012      Z:     0.3465     Total:     1.2242

*** Psi4 exiting successfully. Buy a developer a beer!
