                               Psi4 1.3.2 release

  ==> Input File <==

--------------------------------------------------------------------------
#psi4
#
memory 32 gb

molecule  {
0 1
  O        2.5331200    -0.0725200     0.2027050
  O        0.8230440     1.2494390    -0.4327460
  C       -1.8165730    -0.1662430    -0.5903910
  C       -2.5841030     0.6523970     0.4513900
  C       -0.9019774    -1.1364463     0.0714713
  C        0.4138040    -1.0149060     0.3209930
  C        1.2054270     0.1756520    -0.0315870
  H       -2.5251580    -0.7208810    -1.2155130
  H       -1.2597500     0.5079260    -1.2382380
  H       -3.2919980     1.3271690    -0.0377650
  H       -1.8881090     1.2530680     1.0427000
  H       -3.1450010     0.0036210     1.1307380
  H       -1.3667210    -2.0751620     0.4099140
  H        0.9531490    -1.8065430     0.8308200
  H        2.9905100     0.7616870    -0.0298800
units angstrom
no_reorient  #important for SAPT in psi4, default
symmetry c1  #important for SAPT in psi4, default
}

set PROPERTIES_ORIGIN ["COM"]
properties('MP2/aug-cc-pvtz', properties = ['dipole'])
--------------------------------------------------------------------------

    Molecular point group: c1
  Charge       = 0
  Multiplicity = 1
  Basis Set: AUG-CC-PVTZ
    Blend: AUG-CC-PVTZ
  Basis Set: (AUG-CC-PVTZ AUX)
    Blend: AUG-CC-PVTZ-JKFIT

    Orbital Energies [Eh]
    ---------------------

    Doubly Occupied:

       1A    -20.607489     2A    -20.546636     3A    -11.387247
       4A    -11.271387     5A    -11.243324     6A    -11.231841
       7A    -11.222004     8A     -1.455734     9A     -1.355375
      10A     -1.107175    11A     -1.020534    12A     -0.907819
      13A     -0.839504    14A     -0.749048    15A     -0.708016
      16A     -0.674173    17A     -0.646148    18A     -0.626332
      19A     -0.602418    20A     -0.585101    21A     -0.565113
      22A     -0.529183    23A     -0.505458    24A     -0.496985
      25A     -0.483730    26A     -0.444465    27A     -0.381297

  @DF-RHF Final Energy:  -343.85649373308746

   => Energetics <=

    Nuclear Repulsion Energy =            293.0155062418881471
    One-Electron Energy =               -1049.3569331443209194
    Two-Electron Energy =                 412.4849331693453109
    Total Energy =                       -343.8564937330874614
  Basis Set: (AUG-CC-PVTZ AUX)
    Blend: AUG-CC-PVTZ-RI
    Molecular point group: c1

    Geometry (in Angstrom), charge = 0, multiplicity = 1:

       Center              X                  Y                   Z               Mass
    ------------   -----------------  -----------------  -----------------  -----------------
         O            2.534391201649    -0.074470841885     0.203876471334    15.994914619570
         O            0.824315201649     1.247488158115    -0.431574528666    15.994914619570
         C           -1.815301798351    -0.168193841885    -0.589219528666    12.000000000000
         C           -2.582831798351     0.650446158115     0.452561471334    12.000000000000
         C           -0.900706198351    -1.138397141885     0.072642771334    12.000000000000
         C            0.415075201649    -1.016856841885     0.322164471334    12.000000000000
         C            1.206698201649     0.173701158115    -0.030415528666    12.000000000000
         H           -2.523886798351    -0.722831841885    -1.214341528666     1.007825032230
         H           -1.258478798351     0.505975158115    -1.237066528666     1.007825032230
         H           -3.290726798351     1.325218158115    -0.036593528666     1.007825032230
         H           -1.886837798351     1.251117158115     1.043871471334     1.007825032230
         H           -3.143729798351     0.001670158115     1.131909471334     1.007825032230
         H           -1.365449798351    -2.077112841885     0.411085471334     1.007825032230
         H            0.954420201649    -1.808493841885     0.831991471334     1.007825032230
         H            2.991781201649     0.759736158115    -0.028708528666     1.007825032230

  Basis Set: AUG-CC-PVTZ
    Blend: AUG-CC-PVTZ
  Basis Set: (AUG-CC-PVTZ AUX)
    Blend: AUG-CC-PVTZ-JKFIT
	 Reference Energy          =    -343.8564937330874614 [Eh]
	 Singles Energy            =      -0.0000000000000000 [Eh]
	 Same-Spin Energy          =      -0.3409376490934911 [Eh]
	 Opposite-Spin Energy      =      -1.0998242786609900 [Eh]
	 Correlation Energy        =      -1.4407619277544810 [Eh]
	 Total Energy              =    -345.2972556608419268 [Eh]

	 ================> DF-SCS-MP2 Energies <==================
	-----------------------------------------------------------
	 SCS Same-Spin Scale       =       0.3333333333333333 [-]
	 SCS Opposite-Spin Scale   =       1.2000000000000000 [-]
	 SCS Same-Spin Energy      =      -0.1136458830311637 [Eh]
	 SCS Opposite-Spin Energy  =      -1.3197891343931880 [Eh]
	 SCS Correlation Energy    =      -1.4334350174243518 [Eh]
	 SCS Total Energy          =    -345.2899287505118195 [Eh]
	-----------------------------------------------------------

  Dipole Moment: [D]
     X:    -0.5411      Y:    -1.0734      Z:     0.3045     Total:     1.2400

*** Psi4 exiting successfully. Buy a developer a beer!
