                               Psi4 1.4a3.dev225

  ==> Input File <==

--------------------------------------------------------------------------
#psi4
#
memory 32 gb

molecule  {
0 1
  O        2.6043210     0.0828630    -0.1445960
  O        0.8461570    -1.2916990     0.2386850
  C       -1.7394130     0.0979440     0.6095950
  C       -2.3802920    -0.6692310    -0.5542970
  C       -0.8230420     1.1744430     0.1086050
  C        0.4895550     1.0683010    -0.1734410
  C        1.2615425    -0.1520599     0.0002822
  H       -2.5220070     0.5621210     1.2198080
  H       -1.1892610    -0.6035630     1.2386490
  H       -3.0933810    -1.4091330    -0.1797240
  H       -1.6064800    -1.1915300    -1.1205690
  H       -2.9131760     0.0061510    -1.2301320
  H       -1.2820910     2.1452700    -0.0812320
  H        1.0432440     1.9287000    -0.5363220
  H        3.0455250    -0.7830240    -0.0219810
units angstrom
no_reorient  #important for SAPT in psi4, default
symmetry c1  #important for SAPT in psi4, default
}

set PROPERTIES_ORIGIN ["COM"]
properties('MP2/aug-cc-pvtz', properties = ['dipole'])
--------------------------------------------------------------------------

    Molecular point group: c1
  Charge       = 0
  Multiplicity = 1
  Basis Set: AUG-CC-PVTZ
    Blend: AUG-CC-PVTZ
  Basis Set: (AUG-CC-PVTZ AUX)
    Blend: AUG-CC-PVTZ-JKFIT

    Orbital Energies [Eh]
    ---------------------

    Doubly Occupied:

       1A    -20.609716     2A    -20.543312     3A    -11.390411
       4A    -11.274957     5A    -11.244372     6A    -11.233314
       7A    -11.220046     8A     -1.448942     9A     -1.342330
      10A     -1.107932    11A     -1.021010    12A     -0.911066
      13A     -0.840172    14A     -0.751126    15A     -0.706226
      16A     -0.672814    17A     -0.645846    18A     -0.622394
      19A     -0.599442    20A     -0.579876    21A     -0.568727
      22A     -0.527214    23A     -0.502683    24A     -0.496030
      25A     -0.476561    26A     -0.444682    27A     -0.382325

  @DF-RHF Final Energy:  -343.85319978089990

   => Energetics <=

    Nuclear Repulsion Energy =            293.7125575532539301
    One-Electron Energy =               -1050.8044656574716100
    Two-Electron Energy =                 413.2387083233178373
    Total Energy =                       -343.8531997808998995
  Basis Set: (AUG-CC-PVTZ AUX)
    Blend: AUG-CC-PVTZ-RI
    Molecular point group: c1

    Geometry (in Angstrom), charge = 0, multiplicity = 1:

       Center              X                  Y                   Z               Mass
    ------------   -----------------  -----------------  -----------------  -----------------
         O            2.521304232265     0.087284142773    -0.151360507280    15.994914619570
         O            0.763140232265    -1.287277857227     0.231920492720    15.994914619570
         C           -1.822429767735     0.102365142773     0.602830492720    12.000000000000
         C           -2.463308767735    -0.664809857227    -0.561061507280    12.000000000000
         C           -0.906058767735     1.178864142773     0.101840492720    12.000000000000
         C            0.406538232265     1.072722142773    -0.180205507280    12.000000000000
         C            1.178525732265    -0.147638757227    -0.006482307280    12.000000000000
         H           -2.605023767735     0.566542142773     1.213043492720     1.007825032230
         H           -1.272277767735    -0.599141857227     1.231884492720     1.007825032230
         H           -3.176397767735    -1.404711857227    -0.186488507280     1.007825032230
         H           -1.689496767735    -1.187108857227    -1.127333507280     1.007825032230
         H           -2.996192767735     0.010572142773    -1.236896507280     1.007825032230
         H           -1.365107767735     2.149691142773    -0.087996507280     1.007825032230
         H            0.960227232265     1.933121142773    -0.543086507280     1.007825032230
         H            2.962508232265    -0.778602857227    -0.028745507280     1.007825032230

  Basis Set: AUG-CC-PVTZ
    Blend: AUG-CC-PVTZ
  Basis Set: (AUG-CC-PVTZ AUX)
    Blend: AUG-CC-PVTZ-JKFIT
	 Reference Energy          =    -343.8531997808998995 [Eh]
	 Singles Energy            =      -0.0000000000000000 [Eh]
	 Same-Spin Energy          =      -0.3417612569598881 [Eh]
	 Opposite-Spin Energy      =      -1.1015337713642732 [Eh]
	 Correlation Energy        =      -1.4432950283241612 [Eh]
	 Total Energy              =    -345.2964948092240434 [Eh]

	 ================> DF-SCS-MP2 Energies <==================
	-----------------------------------------------------------
	 SCS Same-Spin Scale       =       0.3333333333333333 [-]
	 SCS Opposite-Spin Scale   =       1.2000000000000000 [-]
	 SCS Same-Spin Energy      =      -0.1139204189866294 [Eh]
	 SCS Opposite-Spin Energy  =      -1.3218405256371277 [Eh]
	 SCS Correlation Energy    =      -1.4357609446237571 [Eh]
	 SCS Total Energy          =    -345.2889607255236797 [Eh]
	-----------------------------------------------------------

  Dipole Moment: [D]
     X:    -0.4703      Y:     1.2458      Z:    -0.1397     Total:     1.3389

*** Psi4 exiting successfully. Buy a developer a beer!
