                               Psi4 1.3.2 release

  ==> Input File <==

--------------------------------------------------------------------------
#psi4
#
memory 32 gb

molecule  {
0 1
  O        2.5331200    -0.0725200     0.2027050
  O        0.8230440     1.2494390    -0.4327460
  C       -1.8165730    -0.1662430    -0.5903910
  C       -2.5841030     0.6523970     0.4513900
  C       -0.9018550    -1.1471370     0.0763090
  C        0.6094795    -0.9952395     0.3573844
  C        1.2159030     0.1700770    -0.0266570
  H       -2.5251580    -0.7208810    -1.2155130
  H       -1.2597500     0.5079260    -1.2382380
  H       -3.2919980     1.3271690    -0.0377650
  H       -1.8881090     1.2530680     1.0427000
  H       -3.1450010     0.0036210     1.1307380
  H       -1.3667210    -2.0751620     0.4099140
  H        0.9531490    -1.8065430     0.8308200
  H        2.9905100     0.7616870    -0.0298800
units angstrom
no_reorient  #important for SAPT in psi4, default
symmetry c1  #important for SAPT in psi4, default
}

set PROPERTIES_ORIGIN ["COM"]
properties('MP2/aug-cc-pvtz', properties = ['dipole'])
--------------------------------------------------------------------------

    Molecular point group: c1
  Charge       = 0
  Multiplicity = 1
  Basis Set: AUG-CC-PVTZ
    Blend: AUG-CC-PVTZ
  Basis Set: (AUG-CC-PVTZ AUX)
    Blend: AUG-CC-PVTZ-JKFIT

    Orbital Energies [Eh]
    ---------------------

    Doubly Occupied:

       1A    -20.593796     2A    -20.533051     3A    -11.371426
       4A    -11.314535     5A    -11.243839     6A    -11.241987
       7A    -11.229762     8A     -1.449250     9A     -1.341818
      10A     -1.096251    11A     -1.029783    12A     -0.919979
      13A     -0.834090    14A     -0.754261    15A     -0.713060
      16A     -0.681498    17A     -0.636971    18A     -0.623821
      19A     -0.599911    20A     -0.591932    21A     -0.554287
      22A     -0.532526    23A     -0.511167    24A     -0.495437
      25A     -0.475465    26A     -0.445385    27A     -0.349819

  @DF-RHF Final Energy:  -343.79785483410649

   => Energetics <=

    Nuclear Repulsion Energy =            292.2881097078544030
    One-Electron Energy =               -1047.8417103891404167
    Two-Electron Energy =                 411.7557458471795826
    Total Energy =                       -343.7978548341064879
  Basis Set: (AUG-CC-PVTZ AUX)
    Blend: AUG-CC-PVTZ-RI
    Molecular point group: c1

    Geometry (in Angstrom), charge = 0, multiplicity = 1:

       Center              X                  Y                   Z               Mass
    ------------   -----------------  -----------------  -----------------  -----------------
         O            2.509651304652    -0.074878724034     0.198340281930    15.994914619570
         O            0.799575304652     1.247080275966    -0.437110718070    15.994914619570
         C           -1.840041695348    -0.168601724034    -0.594755718070    12.000000000000
         C           -2.607571695348     0.650038275966     0.447025281930    12.000000000000
         C           -0.925323695348    -1.149495724034     0.071944281930    12.000000000000
         C            0.586010804652    -0.997598224034     0.353019681930    12.000000000000
         C            1.192434304652     0.167718275966    -0.031021718070    12.000000000000
         H           -2.548626695348    -0.723239724034    -1.219877718070     1.007825032230
         H           -1.283218695348     0.505567275966    -1.242602718070     1.007825032230
         H           -3.315466695348     1.324810275966    -0.042129718070     1.007825032230
         H           -1.911577695348     1.250709275966     1.038335281930     1.007825032230
         H           -3.168469695348     0.001262275966     1.126373281930     1.007825032230
         H           -1.390189695348    -2.077520724034     0.405549281930     1.007825032230
         H            0.929680304652    -1.808901724034     0.826455281930     1.007825032230
         H            2.967041304652     0.759328275966    -0.034244718070     1.007825032230

  Basis Set: AUG-CC-PVTZ
    Blend: AUG-CC-PVTZ
  Basis Set: (AUG-CC-PVTZ AUX)
    Blend: AUG-CC-PVTZ-JKFIT
	 Reference Energy          =    -343.7978548341064879 [Eh]
	 Singles Energy            =      -0.0000000000000000 [Eh]
	 Same-Spin Energy          =      -0.3445745928156071 [Eh]
	 Opposite-Spin Energy      =      -1.1057410295552397 [Eh]
	 Correlation Energy        =      -1.4503156223708467 [Eh]
	 Total Energy              =    -345.2481704564773395 [Eh]

	 ================> DF-SCS-MP2 Energies <==================
	-----------------------------------------------------------
	 SCS Same-Spin Scale       =       0.3333333333333333 [-]
	 SCS Opposite-Spin Scale   =       1.2000000000000000 [-]
	 SCS Same-Spin Energy      =      -0.1148581976052024 [Eh]
	 SCS Opposite-Spin Energy  =      -1.3268892354662876 [Eh]
	 SCS Correlation Energy    =      -1.4417474330714899 [Eh]
	 SCS Total Energy          =    -345.2396022671779861 [Eh]
	-----------------------------------------------------------

  Dipole Moment: [D]
     X:    -0.7670      Y:    -1.2815      Z:     0.3829     Total:     1.5418

*** Psi4 exiting successfully. Buy a developer a beer!
