                               Psi4 1.3.2 release

  ==> Input File <==

--------------------------------------------------------------------------
#psi4
#
memory 32 gb

molecule  {
0 1
  O        2.5331200    -0.0725200     0.2027050
  O        0.8230440     1.2494390    -0.4327460
  C       -1.8752442    -0.2172992    -0.5803995
  C       -2.5841030     0.6523970     0.4513900
  C       -0.9018550    -1.1471370     0.0763090
  C        0.4128827    -1.0788718     0.3503868
  C        1.2159030     0.1700770    -0.0266570
  H       -2.5251580    -0.7208810    -1.2155130
  H       -1.2597500     0.5079260    -1.2382380
  H       -3.2919980     1.3271690    -0.0377650
  H       -1.8881090     1.2530680     1.0427000
  H       -3.1450010     0.0036210     1.1307380
  H       -1.3667210    -2.0751620     0.4099140
  H        0.9531490    -1.8065430     0.8308200
  H        2.9905100     0.7616870    -0.0298800
units angstrom
no_reorient  #important for SAPT in psi4, default
symmetry c1  #important for SAPT in psi4, default
}

set PROPERTIES_ORIGIN ["COM"]
properties('MP2/aug-cc-pvtz', properties = ['dipole'])
--------------------------------------------------------------------------

    Molecular point group: c1
  Charge       = 0
  Multiplicity = 1
  Basis Set: AUG-CC-PVTZ
    Blend: AUG-CC-PVTZ
  Basis Set: (AUG-CC-PVTZ AUX)
    Blend: AUG-CC-PVTZ-JKFIT

    Orbital Energies [Eh]
    ---------------------

    Doubly Occupied:

       1A    -20.611336     2A    -20.546901     3A    -11.391007
       4A    -11.268413     5A    -11.245573     6A    -11.233467
       7A    -11.221343     8A     -1.457526     9A     -1.352862
      10A     -1.102835    11A     -1.020151    12A     -0.903406
      13A     -0.840987    14A     -0.749643    15A     -0.709801
      16A     -0.685506    17A     -0.642008    18A     -0.626699
      19A     -0.605651    20A     -0.588912    21A     -0.559954
      22A     -0.532351    23A     -0.509748    24A     -0.491551
      25A     -0.478162    26A     -0.435622    27A     -0.382130

  @DF-RHF Final Energy:  -343.84411552021197

   => Energetics <=

    Nuclear Repulsion Energy =            291.4664209360437326
    One-Electron Energy =               -1046.2339832669531461
    Two-Electron Energy =                 410.9234468106974418
    Total Energy =                       -343.8441155202119717
  Basis Set: (AUG-CC-PVTZ AUX)
    Blend: AUG-CC-PVTZ-RI
    Molecular point group: c1

    Geometry (in Angstrom), charge = 0, multiplicity = 1:

       Center              X                  Y                   Z               Mass
    ------------   -----------------  -----------------  -----------------  -----------------
         O            2.540267412781    -0.058724573574     0.197981202194    15.994914619570
         O            0.830191412781     1.263234426426    -0.437469797806    15.994914619570
         C           -1.868096787219    -0.203503773574    -0.585123297806    12.000000000000
         C           -2.576955587219     0.666192426426     0.446666202194    12.000000000000
         C           -0.894707587219    -1.133341573574     0.071585202194    12.000000000000
         C            0.420030112781    -1.065076373574     0.345663002194    12.000000000000
         C            1.223050412781     0.183872426426    -0.031380797806    12.000000000000
         H           -2.518010587219    -0.707085573574    -1.220236797806     1.007825032230
         H           -1.252602587219     0.521721426426    -1.242961797806     1.007825032230
         H           -3.284850587219     1.340964426426    -0.042488797806     1.007825032230
         H           -1.880961587219     1.266863426426     1.037976202194     1.007825032230
         H           -3.137853587219     0.017416426426     1.126014202194     1.007825032230
         H           -1.359573587219    -2.061366573574     0.405190202194     1.007825032230
         H            0.960296412781    -1.792747573574     0.826096202194     1.007825032230
         H            2.997657412781     0.775482426426    -0.034603797806     1.007825032230

  Basis Set: AUG-CC-PVTZ
    Blend: AUG-CC-PVTZ
  Basis Set: (AUG-CC-PVTZ AUX)
    Blend: AUG-CC-PVTZ-JKFIT
	 Reference Energy          =    -343.8441155202119717 [Eh]
	 Singles Energy            =      -0.0000000000000000 [Eh]
	 Same-Spin Energy          =      -0.3407473588000662 [Eh]
	 Opposite-Spin Energy      =      -1.1002948840320697 [Eh]
	 Correlation Energy        =      -1.4410422428321359 [Eh]
	 Total Energy              =    -345.2851577630440829 [Eh]

	 ================> DF-SCS-MP2 Energies <==================
	-----------------------------------------------------------
	 SCS Same-Spin Scale       =       0.3333333333333333 [-]
	 SCS Opposite-Spin Scale   =       1.2000000000000000 [-]
	 SCS Same-Spin Energy      =      -0.1135824529333554 [Eh]
	 SCS Opposite-Spin Energy  =      -1.3203538608384835 [Eh]
	 SCS Correlation Energy    =      -1.4339363137718388 [Eh]
	 SCS Total Energy          =    -345.2780518339837954 [Eh]
	-----------------------------------------------------------

  Dipole Moment: [D]
     X:    -0.3745      Y:    -1.0733      Z:     0.3267     Total:     1.1827

*** Psi4 exiting successfully. Buy a developer a beer!
