                               Psi4 1.3.2 release

  ==> Input File <==

--------------------------------------------------------------------------
#psi4
#
memory 32 gb

molecule  {
0 1
  O        2.5470798    -0.0059228     0.1819414
  O        0.8835584     1.2695954    -0.4327053
  C       -1.8165730    -0.1662430    -0.5903910
  C       -2.5841030     0.6523970     0.4513900
  C       -0.9018550    -1.1471370     0.0763090
  C        0.4138040    -1.0149060     0.3209930
  C        1.2159030     0.1700770    -0.0266570
  H       -2.5251580    -0.7208810    -1.2155130
  H       -1.2597500     0.5079260    -1.2382380
  H       -3.2919980     1.3271690    -0.0377650
  H       -1.8881090     1.2530680     1.0427000
  H       -3.1450010     0.0036210     1.1307380
  H       -1.3667210    -2.0751620     0.4099140
  H        0.9531490    -1.8065430     0.8308200
  H        2.9905100     0.7616870    -0.0298800
units angstrom
no_reorient  #important for SAPT in psi4, default
symmetry c1  #important for SAPT in psi4, default
}

set PROPERTIES_ORIGIN ["COM"]
properties('MP2/aug-cc-pvtz', properties = ['dipole'])
--------------------------------------------------------------------------

    Molecular point group: c1
  Charge       = 0
  Multiplicity = 1
  Basis Set: AUG-CC-PVTZ
    Blend: AUG-CC-PVTZ
  Basis Set: (AUG-CC-PVTZ AUX)
    Blend: AUG-CC-PVTZ-JKFIT

    Orbital Energies [Eh]
    ---------------------

    Doubly Occupied:

       1A    -20.595593     2A    -20.539847     3A    -11.387988
       4A    -11.275833     5A    -11.249309     6A    -11.234752
       7A    -11.223365     8A     -1.465141     9A     -1.347576
      10A     -1.110041    11A     -1.023867    12A     -0.915843
      13A     -0.846806    14A     -0.763422    15A     -0.706007
      16A     -0.675065    17A     -0.650849    18A     -0.625948
      19A     -0.603138    20A     -0.585534    21A     -0.567487
      22A     -0.530139    23A     -0.504620    24A     -0.496842
      25A     -0.477455    26A     -0.443573    27A     -0.385094

  @DF-RHF Final Energy:  -343.85471506515177

   => Energetics <=

    Nuclear Repulsion Energy =            292.6276857470402319
    One-Electron Energy =               -1048.5025335495952277
    Two-Electron Energy =                 412.0201327374032303
    Total Energy =                       -343.8547150651517654
  Basis Set: (AUG-CC-PVTZ AUX)
    Blend: AUG-CC-PVTZ-RI
    Molecular point group: c1

    Geometry (in Angstrom), charge = 0, multiplicity = 1:

       Center              X                  Y                   Z               Mass
    ------------   -----------------  -----------------  -----------------  -----------------
         O            2.535174017571    -0.019791673570     0.185254234789    15.994914619570
         O            0.871652617571     1.255726526430    -0.429392465211    15.994914619570
         C           -1.828478782429    -0.180111873570    -0.587078165211    12.000000000000
         C           -2.596008782429     0.638528126430     0.454702834789    12.000000000000
         C           -0.913760782429    -1.161005873570     0.079621834789    12.000000000000
         C            0.401898217571    -1.028774873570     0.324305834789    12.000000000000
         C            1.203997217571     0.156208126430    -0.023344165211    12.000000000000
         H           -2.537063782429    -0.734749873570    -1.212200165211     1.007825032230
         H           -1.271655782429     0.494057126430    -1.234925165211     1.007825032230
         H           -3.303903782429     1.313300126430    -0.034452165211     1.007825032230
         H           -1.900014782429     1.239199126430     1.046012834789     1.007825032230
         H           -3.156906782429    -0.010247873570     1.134050834789     1.007825032230
         H           -1.378626782429    -2.089030873570     0.413226834789     1.007825032230
         H            0.941243217571    -1.820411873570     0.834132834789     1.007825032230
         H            2.978604217571     0.747818126430    -0.026567165211     1.007825032230

  Basis Set: AUG-CC-PVTZ
    Blend: AUG-CC-PVTZ
  Basis Set: (AUG-CC-PVTZ AUX)
    Blend: AUG-CC-PVTZ-JKFIT
	 Reference Energy          =    -343.8547150651517654 [Eh]
	 Singles Energy            =      -0.0000000000000000 [Eh]
	 Same-Spin Energy          =      -0.3395015700169076 [Eh]
	 Opposite-Spin Energy      =      -1.0968872614352192 [Eh]
	 Correlation Energy        =      -1.4363888314521267 [Eh]
	 Total Energy              =    -345.2911038966038859 [Eh]

	 ================> DF-SCS-MP2 Energies <==================
	-----------------------------------------------------------
	 SCS Same-Spin Scale       =       0.3333333333333333 [-]
	 SCS Opposite-Spin Scale   =       1.2000000000000000 [-]
	 SCS Same-Spin Energy      =      -0.1131671900056359 [Eh]
	 SCS Opposite-Spin Energy  =      -1.3162647137222629 [Eh]
	 SCS Correlation Energy    =      -1.4294319037278989 [Eh]
	 SCS Total Energy          =    -345.2841469688796678 [Eh]
	-----------------------------------------------------------

  Dipole Moment: [D]
     X:    -0.7567      Y:    -1.3189      Z:     0.3674     Total:     1.5643

*** Psi4 exiting successfully. Buy a developer a beer!
