                               Psi4 1.3.2 release

  ==> Input File <==

--------------------------------------------------------------------------
#psi4
#
memory 32 gb

molecule  {
0 1
  O        2.5275950    -0.0943652     0.2101029
  O        0.8230440     1.2494390    -0.4327460
  C       -1.8165730    -0.1662430    -0.5903910
  C       -2.5841030     0.6523970     0.4513900
  C       -0.9018550    -1.1471370     0.0763090
  C        0.4353255    -1.0272017     0.3277871
  C        1.2159030     0.1700770    -0.0266570
  H       -2.5251580    -0.7208810    -1.2155130
  H       -1.2597500     0.5079260    -1.2382380
  H       -3.2919980     1.3271690    -0.0377650
  H       -1.8881090     1.2530680     1.0427000
  H       -3.1450010     0.0036210     1.1307380
  H       -1.3667210    -2.0751620     0.4099140
  H        0.9531490    -1.8065430     0.8308200
  H        2.9905100     0.7616870    -0.0298800
units angstrom
no_reorient  #important for SAPT in psi4, default
symmetry c1  #important for SAPT in psi4, default
}

set PROPERTIES_ORIGIN ["COM"]
properties('MP2/aug-cc-pvtz', properties = ['dipole'])
--------------------------------------------------------------------------

    Molecular point group: c1
  Charge       = 0
  Multiplicity = 1
  Basis Set: AUG-CC-PVTZ
    Blend: AUG-CC-PVTZ
  Basis Set: (AUG-CC-PVTZ AUX)
    Blend: AUG-CC-PVTZ-JKFIT

    Orbital Energies [Eh]
    ---------------------

    Doubly Occupied:

       1A    -20.612878     2A    -20.545381     3A    -11.387636
       4A    -11.274241     5A    -11.242603     6A    -11.232431
       7A    -11.221658     8A     -1.455252     9A     -1.351897
      10A     -1.102302    11A     -1.019213    12A     -0.907180
      13A     -0.837397    14A     -0.749175    15A     -0.707861
      16A     -0.676570    17A     -0.644138    18A     -0.627403
      19A     -0.599996    20A     -0.585576    21A     -0.564327
      22A     -0.528282    23A     -0.504908    24A     -0.496283
      25A     -0.482013    26A     -0.445106    27A     -0.376478

  @DF-RHF Final Energy:  -343.85242430722690

   => Energetics <=

    Nuclear Repulsion Energy =            292.4827492896288277
    One-Electron Energy =               -1048.3139745263790701
    Two-Electron Energy =                 411.9788009295233451
    Total Energy =                       -343.8524243072268973
  Basis Set: (AUG-CC-PVTZ AUX)
    Blend: AUG-CC-PVTZ-RI
    Molecular point group: c1

    Geometry (in Angstrom), charge = 0, multiplicity = 1:

       Center              X                  Y                   Z               Mass
    ------------   -----------------  -----------------  -----------------  -----------------
         O            2.525897089372    -0.089398179797     0.208105329058    15.994914619570
         O            0.821346089372     1.254406020203    -0.434743570942    15.994914619570
         C           -1.818270910628    -0.161275979797    -0.592388570942    12.000000000000
         C           -2.585800910628     0.657364020203     0.449392429058    12.000000000000
         C           -0.903552910628    -1.142169979797     0.074311429058    12.000000000000
         C            0.433627589372    -1.022234679797     0.325789529058    12.000000000000
         C            1.214205089372     0.175044020203    -0.028654570942    12.000000000000
         H           -2.526855910628    -0.715913979797    -1.217510570942     1.007825032230
         H           -1.261447910628     0.512893020203    -1.240235570942     1.007825032230
         H           -3.293695910628     1.332136020203    -0.039762570942     1.007825032230
         H           -1.889806910628     1.258035020203     1.040702429058     1.007825032230
         H           -3.146698910628     0.008588020203     1.128740429058     1.007825032230
         H           -1.368418910628    -2.070194979797     0.407916429058     1.007825032230
         H            0.951451089372    -1.801575979797     0.828822429058     1.007825032230
         H            2.988812089372     0.766654020203    -0.031877570942     1.007825032230

  Basis Set: AUG-CC-PVTZ
    Blend: AUG-CC-PVTZ
  Basis Set: (AUG-CC-PVTZ AUX)
    Blend: AUG-CC-PVTZ-JKFIT
	 Reference Energy          =    -343.8524243072268973 [Eh]
	 Singles Energy            =      -0.0000000000000000 [Eh]
	 Same-Spin Energy          =      -0.3415805949752044 [Eh]
	 Opposite-Spin Energy      =      -1.1012903950139870 [Eh]
	 Correlation Energy        =      -1.4428709899891914 [Eh]
	 Total Energy              =    -345.2952952972161142 [Eh]

	 ================> DF-SCS-MP2 Energies <==================
	-----------------------------------------------------------
	 SCS Same-Spin Scale       =       0.3333333333333333 [-]
	 SCS Opposite-Spin Scale   =       1.2000000000000000 [-]
	 SCS Same-Spin Energy      =      -0.1138601983250681 [Eh]
	 SCS Opposite-Spin Energy  =      -1.3215484740167842 [Eh]
	 SCS Correlation Energy    =      -1.4354086723418524 [Eh]
	 SCS Total Energy          =    -345.2878329795687478 [Eh]
	-----------------------------------------------------------

  Dipole Moment: [D]
     X:    -0.4180      Y:    -1.0953      Z:     0.3316     Total:     1.2184

*** Psi4 exiting successfully. Buy a developer a beer!
