                               Psi4 1.3.2 release

  ==> Input File <==

--------------------------------------------------------------------------
#psi4
#
memory 32 gb

molecule  {
0 1
  O        2.5331200    -0.0725200     0.2027050
  O        0.8230440     1.2494390    -0.4327460
  C       -1.7760558    -0.1336909    -0.5960383
  C       -2.5841030     0.6523970     0.4513900
  C       -0.9018550    -1.1471370     0.0763090
  C        0.4124146    -0.9724527     0.3010195
  C        1.2159030     0.1700770    -0.0266570
  H       -2.5251580    -0.7208810    -1.2155130
  H       -1.2597500     0.5079260    -1.2382380
  H       -3.2919980     1.3271690    -0.0377650
  H       -1.8881090     1.2530680     1.0427000
  H       -3.1450010     0.0036210     1.1307380
  H       -1.3667210    -2.0751620     0.4099140
  H        0.9531490    -1.8065430     0.8308200
  H        2.9905100     0.7616870    -0.0298800
units angstrom
no_reorient  #important for SAPT in psi4, default
symmetry c1  #important for SAPT in psi4, default
}

set PROPERTIES_ORIGIN ["COM"]
properties('MP2/aug-cc-pvtz', properties = ['dipole'])
--------------------------------------------------------------------------

    Molecular point group: c1
  Charge       = 0
  Multiplicity = 1
  Basis Set: AUG-CC-PVTZ
    Blend: AUG-CC-PVTZ
  Basis Set: (AUG-CC-PVTZ AUX)
    Blend: AUG-CC-PVTZ-JKFIT

    Orbital Energies [Eh]
    ---------------------

    Doubly Occupied:

       1A    -20.611103     2A    -20.542802     3A    -11.385870
       4A    -11.273811     5A    -11.242364     6A    -11.231645
       7A    -11.221898     8A     -1.458328     9A     -1.352333
      10A     -1.108285    11A     -1.020144    12A     -0.913710
      13A     -0.840303    14A     -0.756770    15A     -0.706713
      16A     -0.670411    17A     -0.646850    18A     -0.628996
      19A     -0.603084    20A     -0.577981    21A     -0.570530
      22A     -0.526973    23A     -0.508255    24A     -0.486648
      25A     -0.481519    26A     -0.446926    27A     -0.380206

  @DF-RHF Final Energy:  -343.84995196392339

   => Energetics <=

    Nuclear Repulsion Energy =            293.7454638505153071
    One-Electron Energy =               -1050.8019104810498447
    Two-Electron Energy =                 413.2064946666111496
    Total Energy =                       -343.8499519639233881
  Basis Set: (AUG-CC-PVTZ AUX)
    Blend: AUG-CC-PVTZ-RI
    Molecular point group: c1

    Geometry (in Angstrom), charge = 0, multiplicity = 1:

       Center              X                  Y                   Z               Mass
    ------------   -----------------  -----------------  -----------------  -----------------
         O            2.528427184553    -0.081515912190     0.205777846452    15.994914619570
         O            0.818351184553     1.240443087810    -0.429673153548    15.994914619570
         C           -1.780748615447    -0.142686812190    -0.592965453548    12.000000000000
         C           -2.588795815447     0.643401087810     0.454462846452    12.000000000000
         C           -0.906547815447    -1.156132912190     0.079381846452    12.000000000000
         C            0.407721784553    -0.981448612190     0.304092346452    12.000000000000
         C            1.211210184553     0.161081087810    -0.023584153548    12.000000000000
         H           -2.529850815447    -0.729876912190    -1.212440153548     1.007825032230
         H           -1.264442815447     0.498930087810    -1.235165153548     1.007825032230
         H           -3.296690815447     1.318173087810    -0.034692153548     1.007825032230
         H           -1.892801815447     1.244072087810     1.045772846452     1.007825032230
         H           -3.149693815447    -0.005374912190     1.133810846452     1.007825032230
         H           -1.371413815447    -2.084157912190     0.412986846452     1.007825032230
         H            0.948456184553    -1.815538912190     0.833892846452     1.007825032230
         H            2.985817184553     0.752691087810    -0.026807153548     1.007825032230

  Basis Set: AUG-CC-PVTZ
    Blend: AUG-CC-PVTZ
  Basis Set: (AUG-CC-PVTZ AUX)
    Blend: AUG-CC-PVTZ-JKFIT
	 Reference Energy          =    -343.8499519639233881 [Eh]
	 Singles Energy            =      -0.0000000000000000 [Eh]
	 Same-Spin Energy          =      -0.3413922550904434 [Eh]
	 Opposite-Spin Energy      =      -1.1004911033610574 [Eh]
	 Correlation Energy        =      -1.4418833584515007 [Eh]
	 Total Energy              =    -345.2918353223748795 [Eh]

	 ================> DF-SCS-MP2 Energies <==================
	-----------------------------------------------------------
	 SCS Same-Spin Scale       =       0.3333333333333333 [-]
	 SCS Opposite-Spin Scale   =       1.2000000000000000 [-]
	 SCS Same-Spin Energy      =      -0.1137974183634811 [Eh]
	 SCS Opposite-Spin Energy  =      -1.3205893240332689 [Eh]
	 SCS Correlation Energy    =      -1.4343867423967500 [Eh]
	 SCS Total Energy          =    -345.2843387063201135 [Eh]
	-----------------------------------------------------------

  Dipole Moment: [D]
     X:    -0.4720      Y:    -1.1508      Z:     0.3489     Total:     1.2918

*** Psi4 exiting successfully. Buy a developer a beer!
