                               Psi4 1.4a3.dev225

  ==> Input File <==

--------------------------------------------------------------------------
#psi4
#
memory 32 gb

molecule  {
0 1
  O        2.6043210     0.0828630    -0.1445960
  O        0.8461570    -1.2916990     0.2386850
  C       -1.7394130     0.0979440     0.6095950
  C       -2.3802920    -0.6692310    -0.5542970
  C       -0.8230420     1.1744430     0.1086050
  C        0.4895550     1.0683010    -0.1734410
  C        1.2721580    -0.1688410     0.0026710
  H       -2.5220070     0.5621210     1.2198080
  H       -1.1892610    -0.6035630     1.2386490
  H       -3.0933810    -1.4091330    -0.1797240
  H       -1.6064800    -1.1915300    -1.1205690
  H       -2.9131760     0.0061510    -1.2301320
  H       -1.2820910     2.1452700    -0.0812320
  H        1.0177426     1.8890724    -0.5196087
  H        3.0455250    -0.7830240    -0.0219810
units angstrom
no_reorient  #important for SAPT in psi4, default
symmetry c1  #important for SAPT in psi4, default
}

set PROPERTIES_ORIGIN ["COM"]
properties('MP2/aug-cc-pvtz', properties = ['dipole'])
--------------------------------------------------------------------------

    Molecular point group: c1
  Charge       = 0
  Multiplicity = 1
  Basis Set: AUG-CC-PVTZ
    Blend: AUG-CC-PVTZ
  Basis Set: (AUG-CC-PVTZ AUX)
    Blend: AUG-CC-PVTZ-JKFIT

    Orbital Energies [Eh]
    ---------------------

    Doubly Occupied:

       1A    -20.612248     2A    -20.545020     3A    -11.389607
       4A    -11.271473     5A    -11.238562     6A    -11.231899
       7A    -11.219074     8A     -1.455122     9A     -1.350718
      10A     -1.105644    11A     -1.019373    12A     -0.908436
      13A     -0.839826    14A     -0.751772    15A     -0.710572
      16A     -0.679891    17A     -0.646608    18A     -0.626089
      19A     -0.600271    20A     -0.582280    21A     -0.568272
      22A     -0.526655    23A     -0.502659    24A     -0.496152
      25A     -0.479391    26A     -0.445344    27A     -0.380529

  @DF-RHF Final Energy:  -343.85442898485053

   => Energetics <=

    Nuclear Repulsion Energy =            293.9915522172243527
    One-Electron Energy =               -1051.3249926342296021
    Two-Electron Energy =                 413.4790114321547208
    Total Energy =                       -343.8544289848505286
  Basis Set: (AUG-CC-PVTZ AUX)
    Blend: AUG-CC-PVTZ-RI
    Molecular point group: c1

    Geometry (in Angstrom), charge = 0, multiplicity = 1:

       Center              X                  Y                   Z               Mass
    ------------   -----------------  -----------------  -----------------  -----------------
         O            2.520287914608     0.089695987127    -0.151815365621    15.994914619570
         O            0.762123914608    -1.284866012873     0.231465634379    15.994914619570
         C           -1.823446085392     0.104776987127     0.602375634379    12.000000000000
         C           -2.464325085392    -0.662398012873    -0.561516365621    12.000000000000
         C           -0.907075085392     1.181275987127     0.101385634379    12.000000000000
         C            0.405521914608     1.075133987127    -0.180660365621    12.000000000000
         C            1.188124914608    -0.162008012873    -0.004548365621    12.000000000000
         H           -2.606040085392     0.568953987127     1.212588634379     1.007825032230
         H           -1.273294085392    -0.596730012873     1.231429634379     1.007825032230
         H           -3.177414085392    -1.402300012873    -0.186943365621     1.007825032230
         H           -1.690513085392    -1.184697012873    -1.127788365621     1.007825032230
         H           -2.997209085392     0.012983987127    -1.237351365621     1.007825032230
         H           -1.366124085392     2.152102987127    -0.088451365621     1.007825032230
         H            0.933709514608     1.895905387127    -0.526828065621     1.007825032230
         H            2.961491914608    -0.776191012873    -0.029200365621     1.007825032230

  Basis Set: AUG-CC-PVTZ
    Blend: AUG-CC-PVTZ
  Basis Set: (AUG-CC-PVTZ AUX)
    Blend: AUG-CC-PVTZ-JKFIT
	 Reference Energy          =    -343.8544289848505286 [Eh]
	 Singles Energy            =      -0.0000000000000000 [Eh]
	 Same-Spin Energy          =      -0.3412356117545798 [Eh]
	 Opposite-Spin Energy      =      -1.1005246560507551 [Eh]
	 Correlation Energy        =      -1.4417602678053349 [Eh]
	 Total Energy              =    -345.2961892526558358 [Eh]

	 ================> DF-SCS-MP2 Energies <==================
	-----------------------------------------------------------
	 SCS Same-Spin Scale       =       0.3333333333333333 [-]
	 SCS Opposite-Spin Scale   =       1.2000000000000000 [-]
	 SCS Same-Spin Energy      =      -0.1137452039181933 [Eh]
	 SCS Opposite-Spin Energy  =      -1.3206295872609062 [Eh]
	 SCS Correlation Energy    =      -1.4343747911790994 [Eh]
	 SCS Total Energy          =    -345.2888037760296243 [Eh]
	-----------------------------------------------------------

  Dipole Moment: [D]
     X:    -0.3537      Y:     1.1609      Z:    -0.1334     Total:     1.2209

*** Psi4 exiting successfully. Buy a developer a beer!
