                               Psi4 1.3.2 release

  ==> Input File <==

--------------------------------------------------------------------------
#psi4
#
memory 32 gb

molecule  {
0 1
  O        2.5331200    -0.0725200     0.2027050
  O        0.8230440     1.2494390    -0.4327460
  C       -1.8065463    -0.1579914    -0.5918792
  C       -2.5841030     0.6523970     0.4513900
  C       -0.9018550    -1.1471370     0.0763090
  C        0.4136069    -1.0042756     0.3160266
  C        1.2159030     0.1700770    -0.0266570
  H       -2.5251580    -0.7208810    -1.2155130
  H       -1.2597500     0.5079260    -1.2382380
  H       -3.2919980     1.3271690    -0.0377650
  H       -1.8881090     1.2530680     1.0427000
  H       -3.1450010     0.0036210     1.1307380
  H       -1.3667210    -2.0751620     0.4099140
  H        0.9531490    -1.8065430     0.8308200
  H        2.9905100     0.7616870    -0.0298800
units angstrom
no_reorient  #important for SAPT in psi4, default
symmetry c1  #important for SAPT in psi4, default
}

set PROPERTIES_ORIGIN ["COM"]
properties('MP2/aug-cc-pvtz', properties = ['dipole'])
--------------------------------------------------------------------------

    Molecular point group: c1
  Charge       = 0
  Multiplicity = 1
  Basis Set: AUG-CC-PVTZ
    Blend: AUG-CC-PVTZ
  Basis Set: (AUG-CC-PVTZ AUX)
    Blend: AUG-CC-PVTZ-JKFIT

    Orbital Energies [Eh]
    ---------------------

    Doubly Occupied:

       1A    -20.611244     2A    -20.544110     3A    -11.387658
       4A    -11.271542     5A    -11.242964     6A    -11.231478
       7A    -11.221288     8A     -1.458138     9A     -1.352502
      10A     -1.106152    11A     -1.019805    12A     -0.910066
      13A     -0.839981    14A     -0.753403    15A     -0.707538
      16A     -0.672453    17A     -0.647584    18A     -0.628184
      19A     -0.601568    20A     -0.581794    21A     -0.567529
      22A     -0.527130    23A     -0.505177    24A     -0.493583
      25A     -0.481949    26A     -0.445112    27A     -0.380865

  @DF-RHF Final Energy:  -343.85613762755651

   => Energetics <=

    Nuclear Repulsion Energy =            293.0463887394963081
    One-Electron Energy =               -1049.4234545265387624
    Two-Electron Energy =                 412.5209281594860045
    Total Energy =                       -343.8561376275565067
  Basis Set: (AUG-CC-PVTZ AUX)
    Blend: AUG-CC-PVTZ-RI
    Molecular point group: c1

    Geometry (in Angstrom), charge = 0, multiplicity = 1:

       Center              X                  Y                   Z               Mass
    ------------   -----------------  -----------------  -----------------  -----------------
         O            2.531941126211    -0.074784633365     0.203479107670    15.994914619570
         O            0.821865126211     1.247174366635    -0.431971892330    15.994914619570
         C           -1.807725173789    -0.160256033365    -0.591105092330    12.000000000000
         C           -2.585281873789     0.650132366635     0.452164107670    12.000000000000
         C           -0.903033873789    -1.149401633365     0.077083107670    12.000000000000
         C            0.412428026211    -1.006540233365     0.316800707670    12.000000000000
         C            1.214724126211     0.167812366635    -0.025882892330    12.000000000000
         H           -2.526336873789    -0.723145633365    -1.214738892330     1.007825032230
         H           -1.260928873789     0.505661366635    -1.237463892330     1.007825032230
         H           -3.293176873789     1.324904366635    -0.036990892330     1.007825032230
         H           -1.889287873789     1.250803366635     1.043474107670     1.007825032230
         H           -3.146179873789     0.001356366635     1.131512107670     1.007825032230
         H           -1.367899873789    -2.077426633365     0.410688107670     1.007825032230
         H            0.951970126211    -1.808807633365     0.831594107670     1.007825032230
         H            2.989331126211     0.759422366635    -0.029105892330     1.007825032230

  Basis Set: AUG-CC-PVTZ
    Blend: AUG-CC-PVTZ
  Basis Set: (AUG-CC-PVTZ AUX)
    Blend: AUG-CC-PVTZ-JKFIT
	 Reference Energy          =    -343.8561376275565067 [Eh]
	 Singles Energy            =      -0.0000000000000000 [Eh]
	 Same-Spin Energy          =      -0.3410195064101922 [Eh]
	 Opposite-Spin Energy      =      -1.0999627084835124 [Eh]
	 Correlation Energy        =      -1.4409822148937046 [Eh]
	 Total Energy              =    -345.2971198424502290 [Eh]

	 ================> DF-SCS-MP2 Energies <==================
	-----------------------------------------------------------
	 SCS Same-Spin Scale       =       0.3333333333333333 [-]
	 SCS Opposite-Spin Scale   =       1.2000000000000000 [-]
	 SCS Same-Spin Energy      =      -0.1136731688033974 [Eh]
	 SCS Opposite-Spin Energy  =      -1.3199552501802148 [Eh]
	 SCS Correlation Energy    =      -1.4336284189836122 [Eh]
	 SCS Total Energy          =    -345.2897660465401373 [Eh]
	-----------------------------------------------------------

  Dipole Moment: [D]
     X:    -0.4360      Y:    -1.1298      Z:     0.3373     Total:     1.2571

*** Psi4 exiting successfully. Buy a developer a beer!
