                               Psi4 1.3.2 release

  ==> Input File <==

--------------------------------------------------------------------------
#psi4
#
memory 32 gb

molecule  {
0 1
  O        2.5331200    -0.0725200     0.2027050
  O        0.8230440     1.2494390    -0.4327460
  C       -1.8165730    -0.1662430    -0.5903910
  C       -2.5841030     0.6523970     0.4513900
  C       -0.9018550    -1.1471370     0.0763090
  C        0.3159663    -1.0247392     0.3027973
  C        1.2159030     0.1700770    -0.0266570
  H       -2.5251580    -0.7208810    -1.2155130
  H       -1.2597500     0.5079260    -1.2382380
  H       -3.2919980     1.3271690    -0.0377650
  H       -1.8881090     1.2530680     1.0427000
  H       -3.1450010     0.0036210     1.1307380
  H       -1.3667210    -2.0751620     0.4099140
  H        0.9531490    -1.8065430     0.8308200
  H        2.9905100     0.7616870    -0.0298800
units angstrom
no_reorient  #important for SAPT in psi4, default
symmetry c1  #important for SAPT in psi4, default
}

set PROPERTIES_ORIGIN ["COM"]
properties('MP2/aug-cc-pvtz', properties = ['dipole'])
--------------------------------------------------------------------------

    Molecular point group: c1
  Charge       = 0
  Multiplicity = 1
  Basis Set: AUG-CC-PVTZ
    Blend: AUG-CC-PVTZ
  Basis Set: (AUG-CC-PVTZ AUX)
    Blend: AUG-CC-PVTZ-JKFIT

    Orbital Energies [Eh]
    ---------------------

    Doubly Occupied:

       1A    -20.617679     2A    -20.547884     3A    -11.393804
       4A    -11.247411     5A    -11.240970     6A    -11.227788
       7A    -11.218196     8A     -1.461073     9A     -1.355935
      10A     -1.119255    11A     -1.017987    12A     -0.901349
      13A     -0.843635    14A     -0.751134    15A     -0.708174
      16A     -0.666812    17A     -0.655883    18A     -0.629695
      19A     -0.603653    20A     -0.583375    21A     -0.560475
      22A     -0.525276    23A     -0.502055    24A     -0.493498
      25A     -0.482139    26A     -0.435211    27A     -0.402205

  @DF-RHF Final Energy:  -343.84340085241769

   => Energetics <=

    Nuclear Repulsion Energy =            293.3472687065495847
    One-Electron Energy =               -1049.9962371539784272
    Two-Electron Energy =                 412.8055675950111549
    Total Energy =                       -343.8434008524176875
  Basis Set: (AUG-CC-PVTZ AUX)
    Blend: AUG-CC-PVTZ-RI
    Molecular point group: c1

    Geometry (in Angstrom), charge = 0, multiplicity = 1:

       Center              X                  Y                   Z               Mass
    ------------   -----------------  -----------------  -----------------  -----------------
         O            2.544854431830    -0.071340615047     0.204887301361    15.994914619570
         O            0.834778431830     1.250618384953    -0.430563698639    15.994914619570
         C           -1.804838568170    -0.165063615047    -0.588208698639    12.000000000000
         C           -2.572368568170     0.653576384953     0.453572301361    12.000000000000
         C           -0.890120568170    -1.145957615047     0.078491301361    12.000000000000
         C            0.327700731830    -1.023559815047     0.304979601361    12.000000000000
         C            1.227637431830     0.171256384953    -0.024474698639    12.000000000000
         H           -2.513423568170    -0.719701615047    -1.213330698639     1.007825032230
         H           -1.248015568170     0.509105384953    -1.236055698639     1.007825032230
         H           -3.280263568170     1.328348384953    -0.035582698639     1.007825032230
         H           -1.876374568170     1.254247384953     1.044882301361     1.007825032230
         H           -3.133266568170     0.004800384953     1.132920301361     1.007825032230
         H           -1.354986568170    -2.073982615047     0.412096301361     1.007825032230
         H            0.964883431830    -1.805363615047     0.833002301361     1.007825032230
         H            3.002244431830     0.762866384953    -0.027697698639     1.007825032230

  Basis Set: AUG-CC-PVTZ
    Blend: AUG-CC-PVTZ
  Basis Set: (AUG-CC-PVTZ AUX)
    Blend: AUG-CC-PVTZ-JKFIT
	 Reference Energy          =    -343.8434008524176875 [Eh]
	 Singles Energy            =      -0.0000000000000000 [Eh]
	 Same-Spin Energy          =      -0.3399979081836628 [Eh]
	 Opposite-Spin Energy      =      -1.0982727372885117 [Eh]
	 Correlation Energy        =      -1.4382706454721745 [Eh]
	 Total Energy              =    -345.2816714978898744 [Eh]

	 ================> DF-SCS-MP2 Energies <==================
	-----------------------------------------------------------
	 SCS Same-Spin Scale       =       0.3333333333333333 [-]
	 SCS Opposite-Spin Scale   =       1.2000000000000000 [-]
	 SCS Same-Spin Energy      =      -0.1133326360612209 [Eh]
	 SCS Opposite-Spin Energy  =      -1.3179272847462140 [Eh]
	 SCS Correlation Energy    =      -1.4312599208074350 [Eh]
	 SCS Total Energy          =    -345.2746607732251505 [Eh]
	-----------------------------------------------------------

  Dipole Moment: [D]
     X:    -0.2259      Y:    -1.0337      Z:     0.3105     Total:     1.1027

*** Psi4 exiting successfully. Buy a developer a beer!
