                               Psi4 1.3.2 release

  ==> Input File <==

--------------------------------------------------------------------------
#psi4
#
memory 32 gb

molecule  {
0 1
  O        2.5331200    -0.0725200     0.2027050
  O        0.8230440     1.2494390    -0.4327460
  C       -1.8364747    -0.1828510    -0.5870081
  C       -2.5841030     0.6523970     0.4513900
  C       -0.9018550    -1.1471370     0.0763090
  C        0.4138040    -1.0149060     0.3209930
  C        1.2159030     0.1700770    -0.0266570
  H       -2.5251580    -0.7208810    -1.2155130
  H       -1.2597500     0.5079260    -1.2382380
  H       -3.2919980     1.3271690    -0.0377650
  H       -1.8881090     1.2530680     1.0427000
  H       -3.1450010     0.0036210     1.1307380
  H       -1.3834435    -2.0689806     0.4032647
  H        0.9531490    -1.8065430     0.8308200
  H        2.9905100     0.7616870    -0.0298800
units angstrom
no_reorient  #important for SAPT in psi4, default
symmetry c1  #important for SAPT in psi4, default
}

set PROPERTIES_ORIGIN ["COM"]
properties('MP2/aug-cc-pvtz', properties = ['dipole'])
--------------------------------------------------------------------------

    Molecular point group: c1
  Charge       = 0
  Multiplicity = 1
  Basis Set: AUG-CC-PVTZ
    Blend: AUG-CC-PVTZ
  Basis Set: (AUG-CC-PVTZ AUX)
    Blend: AUG-CC-PVTZ-JKFIT

    Orbital Energies [Eh]
    ---------------------

    Doubly Occupied:

       1A    -20.611333     2A    -20.544565     3A    -11.388337
       4A    -11.271082     5A    -11.243935     6A    -11.231231
       7A    -11.221083     8A     -1.458099     9A     -1.352542
      10A     -1.105404    11A     -1.020412    12A     -0.909328
      13A     -0.839949    14A     -0.751737    15A     -0.707901
      16A     -0.674902    17A     -0.647537    18A     -0.628074
      19A     -0.600624    20A     -0.584261    21A     -0.566526
      22A     -0.528666    23A     -0.502296    24A     -0.496332
      25A     -0.480964    26A     -0.442702    27A     -0.381487

  @DF-RHF Final Energy:  -343.85570901455304

   => Energetics <=

    Nuclear Repulsion Energy =            292.6767389655504985
    One-Electron Energy =               -1048.6822787858961874
    Two-Electron Energy =                 412.1498308057926465
    Total Energy =                       -343.8557090145530424
  Basis Set: (AUG-CC-PVTZ AUX)
    Blend: AUG-CC-PVTZ-RI
    Molecular point group: c1

    Geometry (in Angstrom), charge = 0, multiplicity = 1:

       Center              X                  Y                   Z               Mass
    ------------   -----------------  -----------------  -----------------  -----------------
         O            2.535675457861    -0.070590330114     0.202366204469    15.994914619570
         O            0.825599457861     1.251368669886    -0.433084795531    15.994914619570
         C           -1.833919242139    -0.180921330114    -0.587346895531    12.000000000000
         C           -2.581547542139     0.654326669886     0.451051204469    12.000000000000
         C           -0.899299542139    -1.145207330114     0.075970204469    12.000000000000
         C            0.416359457861    -1.012976330114     0.320654204469    12.000000000000
         C            1.218458457861     0.172006669886    -0.026995795531    12.000000000000
         H           -2.522602542139    -0.718951330114    -1.215851795531     1.007825032230
         H           -1.257194542139     0.509855669886    -1.238576795531     1.007825032230
         H           -3.289442542139     1.329098669886    -0.038103795531     1.007825032230
         H           -1.885553542139     1.254997669886     1.042361204469     1.007825032230
         H           -3.142445542139     0.005550669886     1.130399204469     1.007825032230
         H           -1.380888042139    -2.067050930114     0.402925904469     1.007825032230
         H            0.955704457861    -1.804613330114     0.830481204469     1.007825032230
         H            2.993065457861     0.763616669886    -0.030218795531     1.007825032230

  Basis Set: AUG-CC-PVTZ
    Blend: AUG-CC-PVTZ
  Basis Set: (AUG-CC-PVTZ AUX)
    Blend: AUG-CC-PVTZ-JKFIT
	 Reference Energy          =    -343.8557090145530424 [Eh]
	 Singles Energy            =      -0.0000000000000000 [Eh]
	 Same-Spin Energy          =      -0.3409662268299285 [Eh]
	 Opposite-Spin Energy      =      -1.0999837810813804 [Eh]
	 Correlation Energy        =      -1.4409500079113089 [Eh]
	 Total Energy              =    -345.2966590224643255 [Eh]

	 ================> DF-SCS-MP2 Energies <==================
	-----------------------------------------------------------
	 SCS Same-Spin Scale       =       0.3333333333333333 [-]
	 SCS Opposite-Spin Scale   =       1.2000000000000000 [-]
	 SCS Same-Spin Energy      =      -0.1136554089433095 [Eh]
	 SCS Opposite-Spin Energy  =      -1.3199805372976565 [Eh]
	 SCS Correlation Energy    =      -1.4336359462409660 [Eh]
	 SCS Total Energy          =    -345.2893449607939829 [Eh]
	-----------------------------------------------------------

  Dipole Moment: [D]
     X:    -0.4293      Y:    -1.1233      Z:     0.3306     Total:     1.2472

*** Psi4 exiting successfully. Buy a developer a beer!
