                               Psi4 1.4a3.dev225

  ==> Input File <==

--------------------------------------------------------------------------
#psi4
#
memory 32 gb

molecule  {
0 1
  O        2.6043210     0.0828630    -0.1445960
  O        0.8461570    -1.2916990     0.2386850
  C       -1.7394130     0.0979440     0.6095950
  C       -2.3802920    -0.6692310    -0.5542970
  C       -0.8230420     1.1744430     0.1086050
  C        0.4895550     1.0683010    -0.1734410
  C        1.2721580    -0.1688410     0.0026710
  H       -2.5220070     0.5621210     1.2198080
  H       -1.1892610    -0.6035630     1.2386490
  H       -3.0933810    -1.4091330    -0.1797240
  H       -1.6064800    -1.1915300    -1.1205690
  H       -2.9131760     0.0061510    -1.2301320
  H       -1.3031379     2.1897815    -0.0899358
  H        1.0432440     1.9287000    -0.5363220
  H        3.0455250    -0.7830240    -0.0219810
units angstrom
no_reorient  #important for SAPT in psi4, default
symmetry c1  #important for SAPT in psi4, default
}

set PROPERTIES_ORIGIN ["COM"]
properties('MP2/aug-cc-pvtz', properties = ['dipole'])
--------------------------------------------------------------------------

    Molecular point group: c1
  Charge       = 0
  Multiplicity = 1
  Basis Set: AUG-CC-PVTZ
    Blend: AUG-CC-PVTZ
  Basis Set: (AUG-CC-PVTZ AUX)
    Blend: AUG-CC-PVTZ-JKFIT

    Orbital Energies [Eh]
    ---------------------

    Doubly Occupied:

       1A    -20.612436     2A    -20.545600     3A    -11.390518
       4A    -11.277363     5A    -11.244545     6A    -11.232710
       7A    -11.219281     8A     -1.455423     9A     -1.351169
      10A     -1.103642    11A     -1.018004    12A     -0.906178
      13A     -0.839182    14A     -0.746447    15A     -0.707494
      16A     -0.674259    17A     -0.644493    18A     -0.626217
      19A     -0.599771    20A     -0.579546    21A     -0.564562
      22A     -0.526204    23A     -0.501888    24A     -0.496063
      25A     -0.479686    26A     -0.444444    27A     -0.380935

  @DF-RHF Final Energy:  -343.85285776080923

   => Energetics <=

    Nuclear Repulsion Energy =            293.4979585223300660
    One-Electron Energy =               -1050.3655123759040180
    Two-Electron Energy =                 413.0146960927647797
    Total Energy =                       -343.8528577608092291
  Basis Set: (AUG-CC-PVTZ AUX)
    Blend: AUG-CC-PVTZ-RI
    Molecular point group: c1

    Geometry (in Angstrom), charge = 0, multiplicity = 1:

       Center              X                  Y                   Z               Mass
    ------------   -----------------  -----------------  -----------------  -----------------
         O            2.520243044567     0.088848456572    -0.151559339958    15.994914619570
         O            0.762079044567    -1.285713543428     0.231721660042    15.994914619570
         C           -1.823490955433     0.103929456572     0.602631660042    12.000000000000
         C           -2.464369955433    -0.663245543428    -0.561260339958    12.000000000000
         C           -0.907119955433     1.180428456572     0.101641660042    12.000000000000
         C            0.405477044567     1.074286456572    -0.180404339958    12.000000000000
         C            1.188080044567    -0.162855543428    -0.004292339958    12.000000000000
         H           -2.606084955433     0.568106456572     1.212844660042     1.007825032230
         H           -1.273338955433    -0.597577543428     1.231685660042     1.007825032230
         H           -3.177458955433    -1.403147543428    -0.186687339958     1.007825032230
         H           -1.690557955433    -1.185544543428    -1.127532339958     1.007825032230
         H           -2.997253955433     0.012136456572    -1.237095339958     1.007825032230
         H           -1.387215855433     2.195766956572    -0.096899139958     1.007825032230
         H            0.959166044567     1.934685456572    -0.543285339958     1.007825032230
         H            2.961447044567    -0.777038543428    -0.028944339958     1.007825032230

  Basis Set: AUG-CC-PVTZ
    Blend: AUG-CC-PVTZ
  Basis Set: (AUG-CC-PVTZ AUX)
    Blend: AUG-CC-PVTZ-JKFIT
	 Reference Energy          =    -343.8528577608092291 [Eh]
	 Singles Energy            =      -0.0000000000000000 [Eh]
	 Same-Spin Energy          =      -0.3414236652829606 [Eh]
	 Opposite-Spin Energy      =      -1.1011744136527479 [Eh]
	 Correlation Energy        =      -1.4425980789357085 [Eh]
	 Total Energy              =    -345.2954558397449318 [Eh]

	 ================> DF-SCS-MP2 Energies <==================
	-----------------------------------------------------------
	 SCS Same-Spin Scale       =       0.3333333333333333 [-]
	 SCS Opposite-Spin Scale   =       1.2000000000000000 [-]
	 SCS Same-Spin Energy      =      -0.1138078884276535 [Eh]
	 SCS Opposite-Spin Energy  =      -1.3214092963832975 [Eh]
	 SCS Correlation Energy    =      -1.4352171848109510 [Eh]
	 SCS Total Energy          =    -345.2880749456201670 [Eh]
	-----------------------------------------------------------

  Dipole Moment: [D]
     X:    -0.3473      Y:     1.1314      Z:    -0.1274     Total:     1.1903

*** Psi4 exiting successfully. Buy a developer a beer!
