                               Psi4 1.3.2 release

  ==> Input File <==

--------------------------------------------------------------------------
#psi4
#
memory 32 gb

molecule  {
0 1
  O        2.5331200    -0.0725200     0.2027050
  O        0.8230440     1.2494390    -0.4327460
  C       -1.8165730    -0.1662430    -0.5903910
  C       -2.5841030     0.6523970     0.4513900
  C       -0.9016324    -1.1578176     0.0811654
  C        0.4138040    -1.0149060     0.3209930
  C        1.2263179     0.1644117    -0.0217005
  H       -2.5251580    -0.7208810    -1.2155130
  H       -1.2597500     0.5079260    -1.2382380
  H       -3.2919980     1.3271690    -0.0377650
  H       -1.8881090     1.2530680     1.0427000
  H       -3.1450010     0.0036210     1.1307380
  H       -1.3667210    -2.0751620     0.4099140
  H        0.9531490    -1.8065430     0.8308200
  H        2.9905100     0.7616870    -0.0298800
units angstrom
no_reorient  #important for SAPT in psi4, default
symmetry c1  #important for SAPT in psi4, default
}

set PROPERTIES_ORIGIN ["COM"]
properties('MP2/aug-cc-pvtz', properties = ['dipole'])
--------------------------------------------------------------------------

    Molecular point group: c1
  Charge       = 0
  Multiplicity = 1
  Basis Set: AUG-CC-PVTZ
    Blend: AUG-CC-PVTZ
  Basis Set: (AUG-CC-PVTZ AUX)
    Blend: AUG-CC-PVTZ-JKFIT

    Orbital Energies [Eh]
    ---------------------

    Doubly Occupied:

       1A    -20.615023     2A    -20.542425     3A    -11.389193
       4A    -11.270472     5A    -11.243213     6A    -11.231300
       7A    -11.220350     8A     -1.461465     9A     -1.348824
      10A     -1.103978    11A     -1.019020    12A     -0.910282
      13A     -0.840393    14A     -0.756013    15A     -0.707930
      16A     -0.673779    17A     -0.648310    18A     -0.629933
      19A     -0.599808    20A     -0.582129    21A     -0.566980
      22A     -0.526181    23A     -0.502616    24A     -0.493866
      25A     -0.479515    26A     -0.443731    27A     -0.380856

  @DF-RHF Final Energy:  -343.85604746740074

   => Energetics <=

    Nuclear Repulsion Energy =            292.6220824230059634
    One-Electron Energy =               -1048.5810880180947606
    Two-Electron Energy =                 412.1029581276880549
    Total Energy =                       -343.8560474674007423
  Basis Set: (AUG-CC-PVTZ AUX)
    Blend: AUG-CC-PVTZ-RI
    Molecular point group: c1

    Geometry (in Angstrom), charge = 0, multiplicity = 1:

       Center              X                  Y                   Z               Mass
    ------------   -----------------  -----------------  -----------------  -----------------
         O            2.531844229014    -0.070559500581     0.201528030609    15.994914619570
         O            0.821768229014     1.251399499419    -0.433922969391    15.994914619570
         C           -1.817848770986    -0.164282500581    -0.591567969391    12.000000000000
         C           -2.585378770986     0.654357499419     0.450213030609    12.000000000000
         C           -0.902908170986    -1.155857100581     0.079988430609    12.000000000000
         C            0.412528229014    -1.012945500581     0.319816030609    12.000000000000
         C            1.225042129014     0.166372199419    -0.022877469391    12.000000000000
         H           -2.526433770986    -0.718920500581    -1.216689969391     1.007825032230
         H           -1.261025770986     0.509886499419    -1.239414969391     1.007825032230
         H           -3.293273770986     1.329129499419    -0.038941969391     1.007825032230
         H           -1.889384770986     1.255028499419     1.041523030609     1.007825032230
         H           -3.146276770986     0.005581499419     1.129561030609     1.007825032230
         H           -1.367996770986    -2.073201500581     0.408737030609     1.007825032230
         H            0.951873229014    -1.804582500581     0.829643030609     1.007825032230
         H            2.989234229014     0.763647499419    -0.031056969391     1.007825032230

  Basis Set: AUG-CC-PVTZ
    Blend: AUG-CC-PVTZ
  Basis Set: (AUG-CC-PVTZ AUX)
    Blend: AUG-CC-PVTZ-JKFIT
	 Reference Energy          =    -343.8560474674007423 [Eh]
	 Singles Energy            =      -0.0000000000000000 [Eh]
	 Same-Spin Energy          =      -0.3409402335732294 [Eh]
	 Opposite-Spin Energy      =      -1.0999677252952389 [Eh]
	 Correlation Energy        =      -1.4409079588684683 [Eh]
	 Total Energy              =    -345.2969554262692213 [Eh]

	 ================> DF-SCS-MP2 Energies <==================
	-----------------------------------------------------------
	 SCS Same-Spin Scale       =       0.3333333333333333 [-]
	 SCS Opposite-Spin Scale   =       1.2000000000000000 [-]
	 SCS Same-Spin Energy      =      -0.1136467445244098 [Eh]
	 SCS Opposite-Spin Energy  =      -1.3199612703542867 [Eh]
	 SCS Correlation Energy    =      -1.4336080148786965 [Eh]
	 SCS Total Energy          =    -345.2896554822794428 [Eh]
	-----------------------------------------------------------

  Dipole Moment: [D]
     X:    -0.3106      Y:    -1.1705      Z:     0.3638     Total:     1.2645

*** Psi4 exiting successfully. Buy a developer a beer!
