                               Psi4 1.3.2 release

  ==> Input File <==

--------------------------------------------------------------------------
#psi4
#
memory 32 gb

molecule  {
0 1
  O        2.5331200    -0.0725200     0.2027050
  O        0.8230440     1.2494390    -0.4327460
  C       -1.8165730    -0.1662430    -0.5903910
  C       -2.5841030     0.6523970     0.4513900
  C       -0.9018550    -1.1471370     0.0763090
  C        0.4138040    -1.0149060     0.3209930
  C        1.2159030     0.1700770    -0.0266570
  H       -2.5251580    -0.7208810    -1.2155130
  H       -1.2597500     0.5079260    -1.2382380
  H       -3.2919980     1.3271690    -0.0377650
  H       -1.8881090     1.2530680     1.0427000
  H       -3.1450010     0.0036210     1.1307380
  H       -1.3667210    -2.0751620     0.4099140
  H        1.0525556    -1.9524495     0.9247861
  H        2.9905100     0.7616870    -0.0298800
units angstrom
no_reorient  #important for SAPT in psi4, default
symmetry c1  #important for SAPT in psi4, default
}

set PROPERTIES_ORIGIN ["COM"]
properties('MP2/aug-cc-pvtz', properties = ['dipole'])
--------------------------------------------------------------------------

    Molecular point group: c1
  Charge       = 0
  Multiplicity = 1
  Basis Set: AUG-CC-PVTZ
    Blend: AUG-CC-PVTZ
  Basis Set: (AUG-CC-PVTZ AUX)
    Blend: AUG-CC-PVTZ-JKFIT

    Orbital Energies [Eh]
    ---------------------

    Doubly Occupied:

       1A    -20.611097     2A    -20.546328     3A    -11.390848
       4A    -11.272338     5A    -11.263510     6A    -11.232998
       7A    -11.221822     8A     -1.458488     9A     -1.353600
      10A     -1.104134    11A     -1.015900    12A     -0.908520
      13A     -0.839397    14A     -0.751692    15A     -0.703793
      16A     -0.658990    17A     -0.641388    18A     -0.628423
      19A     -0.600811    20A     -0.572245    21A     -0.563147
      22A     -0.525729    23A     -0.503244    24A     -0.493161
      25A     -0.481726    26A     -0.441604    27A     -0.382256

  @DF-RHF Final Energy:  -343.83434941663268

   => Energetics <=

    Nuclear Repulsion Energy =            291.9238118542330085
    One-Electron Energy =               -1047.1819479693301673
    Two-Electron Energy =                 411.4237866984644825
    Total Energy =                       -343.8343494166326764
  Basis Set: (AUG-CC-PVTZ AUX)
    Blend: AUG-CC-PVTZ-RI
    Molecular point group: c1

    Geometry (in Angstrom), charge = 0, multiplicity = 1:

       Center              X                  Y                   Z               Mass
    ------------   -----------------  -----------------  -----------------  -----------------
         O            2.532118740490    -0.071050269043     0.201758443927    15.994914619570
         O            0.822042740490     1.250908730957    -0.433692556073    15.994914619570
         C           -1.817574259510    -0.164773269043    -0.591337556073    12.000000000000
         C           -2.585104259510     0.653866730957     0.450443443927    12.000000000000
         C           -0.902856259510    -1.145667269043     0.075362443927    12.000000000000
         C            0.412802740490    -1.013436269043     0.320046443927    12.000000000000
         C            1.214901740490     0.171546730957    -0.027603556073    12.000000000000
         H           -2.526159259510    -0.719411269043    -1.216459556073     1.007825032230
         H           -1.260751259510     0.509395730957    -1.239184556073     1.007825032230
         H           -3.292999259510     1.328638730957    -0.038711556073     1.007825032230
         H           -1.889110259510     1.254537730957     1.041753443927     1.007825032230
         H           -3.146002259510     0.005090730957     1.129791443927     1.007825032230
         H           -1.367722259510    -2.073692269043     0.408967443927     1.007825032230
         H            1.051554340490    -1.950979769043     0.923839543927     1.007825032230
         H            2.989508740490     0.763156730957    -0.030826556073     1.007825032230

  Basis Set: AUG-CC-PVTZ
    Blend: AUG-CC-PVTZ
  Basis Set: (AUG-CC-PVTZ AUX)
    Blend: AUG-CC-PVTZ-JKFIT
	 Reference Energy          =    -343.8343494166326764 [Eh]
	 Singles Energy            =      -0.0000000000000000 [Eh]
	 Same-Spin Energy          =      -0.3414485930194853 [Eh]
	 Opposite-Spin Energy      =      -1.1019493836001810 [Eh]
	 Correlation Energy        =      -1.4433979766196663 [Eh]
	 Total Energy              =    -345.2777473932523549 [Eh]

	 ================> DF-SCS-MP2 Energies <==================
	-----------------------------------------------------------
	 SCS Same-Spin Scale       =       0.3333333333333333 [-]
	 SCS Opposite-Spin Scale   =       1.2000000000000000 [-]
	 SCS Same-Spin Energy      =      -0.1138161976731618 [Eh]
	 SCS Opposite-Spin Energy  =      -1.3223392603202171 [Eh]
	 SCS Correlation Energy    =      -1.4361554579933788 [Eh]
	 SCS Total Energy          =    -345.2705048746260559 [Eh]
	-----------------------------------------------------------

  Dipole Moment: [D]
     X:    -0.4407      Y:    -1.0662      Z:     0.3114     Total:     1.1950

*** Psi4 exiting successfully. Buy a developer a beer!
