                               Psi4 1.4a3.dev225

  ==> Input File <==

--------------------------------------------------------------------------
#psi4
#
memory 32 gb

molecule  {
0 1
  O        2.6043210     0.0828630    -0.1445960
  O        0.8461570    -1.2916990     0.2386850
  C       -1.7394130     0.0979440     0.6095950
  C       -2.3802920    -0.6692310    -0.5542970
  C       -0.8108226     1.1887977     0.1019245
  C        0.4895550     1.0683010    -0.1734410
  C        1.2721580    -0.1688410     0.0026710
  H       -2.5220070     0.5621210     1.2198080
  H       -1.1892610    -0.6035630     1.2386490
  H       -3.0933810    -1.4091330    -0.1797240
  H       -1.6064800    -1.1915300    -1.1205690
  H       -2.9131760     0.0061510    -1.2301320
  H       -1.2820910     2.1452700    -0.0812320
  H        1.0432440     1.9287000    -0.5363220
  H        3.0455250    -0.7830240    -0.0219810
units angstrom
no_reorient  #important for SAPT in psi4, default
symmetry c1  #important for SAPT in psi4, default
}

set PROPERTIES_ORIGIN ["COM"]
properties('MP2/aug-cc-pvtz', properties = ['dipole'])
--------------------------------------------------------------------------

    Molecular point group: c1
  Charge       = 0
  Multiplicity = 1
  Basis Set: AUG-CC-PVTZ
    Blend: AUG-CC-PVTZ
  Basis Set: (AUG-CC-PVTZ AUX)
    Blend: AUG-CC-PVTZ-JKFIT

    Orbital Energies [Eh]
    ---------------------

    Doubly Occupied:

       1A    -20.612840     2A    -20.546101     3A    -11.391027
       4A    -11.269367     5A    -11.243100     6A    -11.232608
       7A    -11.218308     8A     -1.455799     9A     -1.351517
      10A     -1.104124    11A     -1.017501    12A     -0.907598
      13A     -0.839037    14A     -0.752039    15A     -0.708238
      16A     -0.673789    17A     -0.647034    18A     -0.626558
      19A     -0.599176    20A     -0.580225    21A     -0.569652
      22A     -0.524277    23A     -0.499463    24A     -0.495597
      25A     -0.479564    26A     -0.445133    27A     -0.383928

  @DF-RHF Final Energy:  -343.85545766940743

   => Energetics <=

    Nuclear Repulsion Energy =            293.6527450792405034
    One-Electron Energy =               -1050.6692062674146655
    Two-Electron Energy =                 413.1610035187667336
    Total Energy =                       -343.8554576694074285
  Basis Set: (AUG-CC-PVTZ AUX)
    Blend: AUG-CC-PVTZ-RI
    Molecular point group: c1

    Geometry (in Angstrom), charge = 0, multiplicity = 1:

       Center              X                  Y                   Z               Mass
    ------------   -----------------  -----------------  -----------------  -----------------
         O            2.518565480179     0.087575158195    -0.150845773153    15.994914619570
         O            0.760401480179    -1.286986841805     0.232435226847    15.994914619570
         C           -1.825168519821     0.102656158195     0.603345226847    12.000000000000
         C           -2.466047519821    -0.664518841805    -0.560546773153    12.000000000000
         C           -0.896578119821     1.193509858195     0.095674726847    12.000000000000
         C            0.403799480179     1.073013158195    -0.179690773153    12.000000000000
         C            1.186402480179    -0.164128841805    -0.003578773153    12.000000000000
         H           -2.607762519821     0.566833158195     1.213558226847     1.007825032230
         H           -1.275016519821    -0.598850841805     1.232399226847     1.007825032230
         H           -3.179136519821    -1.404420841805    -0.185973773153     1.007825032230
         H           -1.692235519821    -1.186817841805    -1.126818773153     1.007825032230
         H           -2.998931519821     0.010863158195    -1.236381773153     1.007825032230
         H           -1.367846519821     2.149982158195    -0.087481773153     1.007825032230
         H            0.957488480179     1.933412158195    -0.542571773153     1.007825032230
         H            2.959769480179    -0.778311841805    -0.028230773153     1.007825032230

  Basis Set: AUG-CC-PVTZ
    Blend: AUG-CC-PVTZ
  Basis Set: (AUG-CC-PVTZ AUX)
    Blend: AUG-CC-PVTZ-JKFIT
	 Reference Energy          =    -343.8554576694074285 [Eh]
	 Singles Energy            =      -0.0000000000000000 [Eh]
	 Same-Spin Energy          =      -0.3410314939199854 [Eh]
	 Opposite-Spin Energy      =      -1.1004570613389117 [Eh]
	 Correlation Energy        =      -1.4414885552588972 [Eh]
	 Total Energy              =    -345.2969462246663284 [Eh]

	 ================> DF-SCS-MP2 Energies <==================
	-----------------------------------------------------------
	 SCS Same-Spin Scale       =       0.3333333333333333 [-]
	 SCS Opposite-Spin Scale   =       1.2000000000000000 [-]
	 SCS Same-Spin Energy      =      -0.1136771646399951 [Eh]
	 SCS Opposite-Spin Energy  =      -1.3205484736066941 [Eh]
	 SCS Correlation Energy    =      -1.4342256382466894 [Eh]
	 SCS Total Energy          =    -345.2896833076541157 [Eh]
	-----------------------------------------------------------

  Dipole Moment: [D]
     X:    -0.3155      Y:     1.1635      Z:    -0.1367     Total:     1.2133

*** Psi4 exiting successfully. Buy a developer a beer!
