                               Psi4 1.3.2 release

  ==> Input File <==

--------------------------------------------------------------------------
#psi4
#
memory 32 gb

molecule  {
0 1
  O        2.5331200    -0.0725200     0.2027050
  O        0.8230440     1.2494390    -0.4327460
  C       -1.8754179    -0.2169431    -0.5796372
  C       -2.5841030     0.6523970     0.4513900
  C       -0.9018550    -1.1471370     0.0763090
  C        0.4138040    -1.0149060     0.3209930
  C        1.2159030     0.1700770    -0.0266570
  H       -2.5251580    -0.7208810    -1.2155130
  H       -1.2597500     0.5079260    -1.2382380
  H       -3.2919980     1.3271690    -0.0377650
  H       -1.8881090     1.2530680     1.0427000
  H       -3.1450010     0.0036210     1.1307380
  H       -1.4164434    -2.0557772     0.3896694
  H        0.9531490    -1.8065430     0.8308200
  H        2.9905100     0.7616870    -0.0298800
units angstrom
no_reorient  #important for SAPT in psi4, default
symmetry c1  #important for SAPT in psi4, default
}

set PROPERTIES_ORIGIN ["COM"]
properties('MP2/aug-cc-pvtz', properties = ['dipole'])
--------------------------------------------------------------------------

    Molecular point group: c1
  Charge       = 0
  Multiplicity = 1
  Basis Set: AUG-CC-PVTZ
    Blend: AUG-CC-PVTZ
  Basis Set: (AUG-CC-PVTZ AUX)
    Blend: AUG-CC-PVTZ-JKFIT

    Orbital Energies [Eh]
    ---------------------

    Doubly Occupied:

       1A    -20.611466     2A    -20.544672     3A    -11.388613
       4A    -11.271713     5A    -11.245413     6A    -11.231229
       7A    -11.221333     8A     -1.458197     9A     -1.352550
      10A     -1.105386    11A     -1.021773    12A     -0.910284
      13A     -0.840727    14A     -0.750844    15A     -0.708079
      16A     -0.677707    17A     -0.647775    18A     -0.628379
      19A     -0.600966    20A     -0.585139    21A     -0.567389
      22A     -0.532189    23A     -0.504997    24A     -0.491066
      25A     -0.477864    26A     -0.438261    27A     -0.382077

  @DF-RHF Final Energy:  -343.84854014334178

   => Energetics <=

    Nuclear Repulsion Energy =            292.4028731047809515
    One-Electron Energy =               -1048.1106501689562265
    Two-Electron Energy =                 411.8592369208334958
    Total Energy =                       -343.8485401433417792
  Basis Set: (AUG-CC-PVTZ AUX)
    Blend: AUG-CC-PVTZ-RI
    Molecular point group: c1

    Geometry (in Angstrom), charge = 0, multiplicity = 1:

       Center              X                  Y                   Z               Mass
    ------------   -----------------  -----------------  -----------------  -----------------
         O            2.540678599991    -0.066634419348     0.201619105006    15.994914619570
         O            0.830602599991     1.255324580652    -0.433831894994    15.994914619570
         C           -1.867859300009    -0.211057519348    -0.580723094994    12.000000000000
         C           -2.576544400009     0.658282580652     0.450304105006    12.000000000000
         C           -0.894296400009    -1.141251419348     0.075223105006    12.000000000000
         C            0.421362599991    -1.009020419348     0.319907105006    12.000000000000
         C            1.223461599991     0.175962580652    -0.027742894994    12.000000000000
         H           -2.517599400009    -0.714995419348    -1.216598894994     1.007825032230
         H           -1.252191400009     0.513811580652    -1.239323894994     1.007825032230
         H           -3.284439400009     1.333054580652    -0.038850894994     1.007825032230
         H           -1.880550400009     1.258953580652     1.041614105006     1.007825032230
         H           -3.137442400009     0.009506580652     1.129652105006     1.007825032230
         H           -1.408884800009    -2.049891619348     0.388583505006     1.007825032230
         H            0.960707599991    -1.800657419348     0.829734105006     1.007825032230
         H            2.998068599991     0.767572580652    -0.030965894994     1.007825032230

  Basis Set: AUG-CC-PVTZ
    Blend: AUG-CC-PVTZ
  Basis Set: (AUG-CC-PVTZ AUX)
    Blend: AUG-CC-PVTZ-JKFIT
	 Reference Energy          =    -343.8485401433417792 [Eh]
	 Singles Energy            =      -0.0000000000000000 [Eh]
	 Same-Spin Energy          =      -0.3411528130493853 [Eh]
	 Opposite-Spin Energy      =      -1.1004832602064492 [Eh]
	 Correlation Energy        =      -1.4416360732558344 [Eh]
	 Total Energy              =    -345.2901762165976152 [Eh]

	 ================> DF-SCS-MP2 Energies <==================
	-----------------------------------------------------------
	 SCS Same-Spin Scale       =       0.3333333333333333 [-]
	 SCS Opposite-Spin Scale   =       1.2000000000000000 [-]
	 SCS Same-Spin Energy      =      -0.1137176043497951 [Eh]
	 SCS Opposite-Spin Energy  =      -1.3205799122477389 [Eh]
	 SCS Correlation Energy    =      -1.4342975165975340 [Eh]
	 SCS Total Energy          =    -345.2828376599393323 [Eh]
	-----------------------------------------------------------

  Dipole Moment: [D]
     X:    -0.4370      Y:    -1.1240      Z:     0.3304     Total:     1.2504

*** Psi4 exiting successfully. Buy a developer a beer!
