                               Psi4 1.4a3.dev225

  ==> Input File <==

--------------------------------------------------------------------------
#psi4
#
memory 32 gb

molecule  {
0 1
  O        2.6043210     0.0828630    -0.1445960
  O        0.8461570    -1.2916990     0.2386850
  C       -1.7394130     0.0979440     0.6095950
  C       -2.3802920    -0.6692310    -0.5542970
  C       -0.8230420     1.1744430     0.1086050
  C        0.4895550     1.0683010    -0.1734410
  C        1.2526206    -0.1725325     0.0048308
  H       -2.5220070     0.5621210     1.2198080
  H       -1.1892610    -0.6035630     1.2386490
  H       -3.0933810    -1.4091330    -0.1797240
  H       -1.6064800    -1.1915300    -1.1205690
  H       -2.9131760     0.0061510    -1.2301320
  H       -1.2820910     2.1452700    -0.0812320
  H        1.0432440     1.9287000    -0.5363220
  H        3.0455250    -0.7830240    -0.0219810
units angstrom
no_reorient  #important for SAPT in psi4, default
symmetry c1  #important for SAPT in psi4, default
}

set PROPERTIES_ORIGIN ["COM"]
properties('MP2/aug-cc-pvtz', properties = ['dipole'])
--------------------------------------------------------------------------

    Molecular point group: c1
  Charge       = 0
  Multiplicity = 1
  Basis Set: AUG-CC-PVTZ
    Blend: AUG-CC-PVTZ
  Basis Set: (AUG-CC-PVTZ AUX)
    Blend: AUG-CC-PVTZ-JKFIT

    Orbital Energies [Eh]
    ---------------------

    Doubly Occupied:

       1A    -20.606158     2A    -20.548115     3A    -11.389462
       4A    -11.272659     5A    -11.244510     6A    -11.233341
       7A    -11.220216     8A     -1.450080     9A     -1.352366
      10A     -1.106621    11A     -1.019218    12A     -0.907645
      13A     -0.838393    14A     -0.747982    15A     -0.707634
      16A     -0.673441    17A     -0.644838    18A     -0.622752
      19A     -0.601296    20A     -0.581224    21A     -0.569794
      22A     -0.527408    23A     -0.503350    24A     -0.497305
      25A     -0.481314    26A     -0.446113    27A     -0.381960

  @DF-RHF Final Energy:  -343.85491980192012

   => Energetics <=

    Nuclear Repulsion Energy =            293.8257791789085900
    One-Electron Energy =               -1051.0110097214953839
    Two-Electron Energy =                 413.3303107406667323
    Total Energy =                       -343.8549198019201185
  Basis Set: (AUG-CC-PVTZ AUX)
    Blend: AUG-CC-PVTZ-RI
    Molecular point group: c1

    Geometry (in Angstrom), charge = 0, multiplicity = 1:

       Center              X                  Y                   Z               Mass
    ------------   -----------------  -----------------  -----------------  -----------------
         O            2.522374299234     0.089739567406    -0.151906053253    15.994914619570
         O            0.764210299234    -1.284822432594     0.231374946747    15.994914619570
         C           -1.821359700766     0.104820567406     0.602284946747    12.000000000000
         C           -2.462238700766    -0.662354432594    -0.561607053253    12.000000000000
         C           -0.904988700766     1.181319567406     0.101294946747    12.000000000000
         C            0.407608299234     1.075177567406    -0.180751053253    12.000000000000
         C            1.170673899234    -0.165655932594    -0.002479253253    12.000000000000
         H           -2.603953700766     0.568997567406     1.212497946747     1.007825032230
         H           -1.271207700766    -0.596686432594     1.231338946747     1.007825032230
         H           -3.175327700766    -1.402256432594    -0.187034053253     1.007825032230
         H           -1.688426700766    -1.184653432594    -1.127879053253     1.007825032230
         H           -2.995122700766     0.013027567406    -1.237442053253     1.007825032230
         H           -1.364037700766     2.152146567406    -0.088542053253     1.007825032230
         H            0.961297299234     1.935576567406    -0.543632053253     1.007825032230
         H            2.963578299234    -0.776147432594    -0.029291053253     1.007825032230

  Basis Set: AUG-CC-PVTZ
    Blend: AUG-CC-PVTZ
  Basis Set: (AUG-CC-PVTZ AUX)
    Blend: AUG-CC-PVTZ-JKFIT
	 Reference Energy          =    -343.8549198019201185 [Eh]
	 Singles Energy            =      -0.0000000000000000 [Eh]
	 Same-Spin Energy          =      -0.3413223877694200 [Eh]
	 Opposite-Spin Energy      =      -1.1008576491012674 [Eh]
	 Correlation Energy        =      -1.4421800368706874 [Eh]
	 Total Energy              =    -345.2970998387908139 [Eh]

	 ================> DF-SCS-MP2 Energies <==================
	-----------------------------------------------------------
	 SCS Same-Spin Scale       =       0.3333333333333333 [-]
	 SCS Opposite-Spin Scale   =       1.2000000000000000 [-]
	 SCS Same-Spin Energy      =      -0.1137741292564733 [Eh]
	 SCS Opposite-Spin Energy  =      -1.3210291789215207 [Eh]
	 SCS Correlation Energy    =      -1.4348033081779941 [Eh]
	 SCS Total Energy          =    -345.2897231100981230 [Eh]
	-----------------------------------------------------------

  Dipole Moment: [D]
     X:    -0.5461      Y:     1.1239      Z:    -0.1138     Total:     1.2547

*** Psi4 exiting successfully. Buy a developer a beer!
