                               Psi4 1.3.2 release

  ==> Input File <==

--------------------------------------------------------------------------
#psi4
#
memory 32 gb

molecule  {
0 1
  O        2.5331200    -0.0725200     0.2027050
  O        0.8230440     1.2494390    -0.4327460
  C       -1.8165730    -0.1662430    -0.5903910
  C       -2.5841030     0.6523970     0.4513900
  C       -0.9018550    -1.1471370     0.0763090
  C        0.4138040    -1.0149060     0.3209930
  C        1.2159030     0.1700770    -0.0266570
  H       -2.5251580    -0.7208810    -1.2155130
  H       -1.2597500     0.5079260    -1.2382380
  H       -3.2919980     1.3271690    -0.0377650
  H       -1.8881090     1.2530680     1.0427000
  H       -3.1450010     0.0036210     1.1307380
  H       -1.4093599    -2.1602832     0.4405132
  H        0.9531490    -1.8065430     0.8308200
  H        2.9905100     0.7616870    -0.0298800
units angstrom
no_reorient  #important for SAPT in psi4, default
symmetry c1  #important for SAPT in psi4, default
}

set PROPERTIES_ORIGIN ["COM"]
properties('MP2/aug-cc-pvtz', properties = ['dipole'])
--------------------------------------------------------------------------

    Molecular point group: c1
  Charge       = 0
  Multiplicity = 1
  Basis Set: AUG-CC-PVTZ
    Blend: AUG-CC-PVTZ
  Basis Set: (AUG-CC-PVTZ AUX)
    Blend: AUG-CC-PVTZ-JKFIT

    Orbital Energies [Eh]
    ---------------------

    Doubly Occupied:

       1A    -20.611815     2A    -20.545041     3A    -11.389062
       4A    -11.282180     5A    -11.244054     6A    -11.232790
       7A    -11.221370     8A     -1.458604     9A     -1.353103
      10A     -1.103647    11A     -1.020301    12A     -0.905658
      13A     -0.839676    14A     -0.744117    15A     -0.707488
      16A     -0.674323    17A     -0.643842    18A     -0.628164
      19A     -0.600853    20A     -0.583366    21A     -0.558007
      22A     -0.527607    23A     -0.502540    24A     -0.495901
      25A     -0.482258    26A     -0.443132    27A     -0.381749

  @DF-RHF Final Energy:  -343.84961132153160

   => Energetics <=

    Nuclear Repulsion Energy =            292.3538220719208880
    One-Electron Energy =               -1048.0455713829746855
    Two-Electron Energy =                 411.8421379895222572
    Total Energy =                       -343.8496113215315972
  Basis Set: (AUG-CC-PVTZ AUX)
    Blend: AUG-CC-PVTZ-RI
    Molecular point group: c1

    Geometry (in Angstrom), charge = 0, multiplicity = 1:

       Center              X                  Y                   Z               Mass
    ------------   -----------------  -----------------  -----------------  -----------------
         O            2.533549560425    -0.071662557493     0.202396736754    15.994914619570
         O            0.823473560425     1.250296442507    -0.433054263246    15.994914619570
         C           -1.816143439575    -0.165385557493    -0.590699263246    12.000000000000
         C           -2.583673439575     0.653254442507     0.451081736754    12.000000000000
         C           -0.901425439575    -1.146279557493     0.076000736754    12.000000000000
         C            0.414233560425    -1.014048557493     0.320684736754    12.000000000000
         C            1.216332560425     0.170934442507    -0.026965263246    12.000000000000
         H           -2.524728439575    -0.720023557493    -1.215821263246     1.007825032230
         H           -1.259320439575     0.508783442507    -1.238546263246     1.007825032230
         H           -3.291568439575     1.328026442507    -0.038073263246     1.007825032230
         H           -1.887679439575     1.253925442507     1.042391736754     1.007825032230
         H           -3.144571439575     0.004478442507     1.130429736754     1.007825032230
         H           -1.408930339575    -2.159425757493     0.440204936754     1.007825032230
         H            0.953578560425    -1.805685557493     0.830511736754     1.007825032230
         H            2.990939560425     0.762544442507    -0.030188263246     1.007825032230

  Basis Set: AUG-CC-PVTZ
    Blend: AUG-CC-PVTZ
  Basis Set: (AUG-CC-PVTZ AUX)
    Blend: AUG-CC-PVTZ-JKFIT
	 Reference Energy          =    -343.8496113215315972 [Eh]
	 Singles Energy            =      -0.0000000000000000 [Eh]
	 Same-Spin Energy          =      -0.3411362009327501 [Eh]
	 Opposite-Spin Energy      =      -1.1007074103413155 [Eh]
	 Correlation Energy        =      -1.4418436112740656 [Eh]
	 Total Energy              =    -345.2914549328056637 [Eh]

	 ================> DF-SCS-MP2 Energies <==================
	-----------------------------------------------------------
	 SCS Same-Spin Scale       =       0.3333333333333333 [-]
	 SCS Opposite-Spin Scale   =       1.2000000000000000 [-]
	 SCS Same-Spin Energy      =      -0.1137120669775834 [Eh]
	 SCS Opposite-Spin Energy  =      -1.3208488924095785 [Eh]
	 SCS Correlation Energy    =      -1.4345609593871618 [Eh]
	 SCS Total Energy          =    -345.2841722809187672 [Eh]
	-----------------------------------------------------------

  Dipole Moment: [D]
     X:    -0.4098      Y:    -1.0767      Z:     0.3163     Total:     1.1946

*** Psi4 exiting successfully. Buy a developer a beer!
