                               Psi4 1.4a3.dev225

  ==> Input File <==

--------------------------------------------------------------------------
#psi4
#
memory 32 gb

molecule  {
0 1
  O        2.6043210     0.0828630    -0.1445960
  O        0.8461570    -1.2916990     0.2386850
  C       -1.7394130     0.0979440     0.6095950
  C       -2.3802920    -0.6692310    -0.5542970
  C       -0.8230420     1.1744430     0.1086050
  C        0.4895550     1.0683010    -0.1734410
  C        1.2721580    -0.1688410     0.0026710
  H       -2.5220070     0.5621210     1.2198080
  H       -1.1892610    -0.6035630     1.2386490
  H       -3.0933810    -1.4091330    -0.1797240
  H       -1.6064800    -1.1915300    -1.1205690
  H       -2.9131760     0.0061510    -1.2301320
  H       -1.2820910     2.1452700    -0.0812320
  H        1.0432440     1.9287000    -0.5363220
  H        3.0545336    -0.8007039    -0.0194774
units angstrom
no_reorient  #important for SAPT in psi4, default
symmetry c1  #important for SAPT in psi4, default
}

set PROPERTIES_ORIGIN ["COM"]
properties('MP2/aug-cc-pvtz', properties = ['dipole'])
--------------------------------------------------------------------------

    Molecular point group: c1
  Charge       = 0
  Multiplicity = 1
  Basis Set: AUG-CC-PVTZ
    Blend: AUG-CC-PVTZ
  Basis Set: (AUG-CC-PVTZ AUX)
    Blend: AUG-CC-PVTZ-JKFIT

    Orbital Energies [Eh]
    ---------------------

    Doubly Occupied:

       1A    -20.613442     2A    -20.545022     3A    -11.389776
       4A    -11.271492     5A    -11.244109     6A    -11.232019
       7A    -11.219060     8A     -1.452368     9A     -1.349057
      10A     -1.104523    11A     -1.017349    12A     -0.906702
      13A     -0.838132    14A     -0.749470    15A     -0.706047
      16A     -0.673279    17A     -0.645911    18A     -0.625520
      19A     -0.598995    20A     -0.579532    21A     -0.567419
      22A     -0.526166    23A     -0.502184    24A     -0.495845
      25A     -0.478979    26A     -0.444658    27A     -0.380506

  @DF-RHF Final Energy:  -343.85362099081436

   => Energetics <=

    Nuclear Repulsion Energy =            293.6200172838304070
    One-Electron Energy =               -1050.6321499903272070
    Two-Electron Energy =                 413.1585117156824367
    Total Energy =                       -343.8536209908143633
  Basis Set: (AUG-CC-PVTZ AUX)
    Blend: AUG-CC-PVTZ-RI
    Molecular point group: c1

    Geometry (in Angstrom), charge = 0, multiplicity = 1:

       Center              X                  Y                   Z               Mass
    ------------   -----------------  -----------------  -----------------  -----------------
         O            2.519940296444     0.089474908623    -0.151672231752    15.994914619570
         O            0.761776296444    -1.285087091377     0.231608768248    15.994914619570
         C           -1.823793703556     0.104555908623     0.602518768248    12.000000000000
         C           -2.464672703556    -0.662619091377    -0.561373231752    12.000000000000
         C           -0.907422703556     1.181054908623     0.101528768248    12.000000000000
         C            0.405174296444     1.074912908623    -0.180517231752    12.000000000000
         C            1.187777296444    -0.162229091377    -0.004405231752    12.000000000000
         H           -2.606387703556     0.568732908623     1.212731768248     1.007825032230
         H           -1.273641703556    -0.596951091377     1.231572768248     1.007825032230
         H           -3.177761703556    -1.402521091377    -0.186800231752     1.007825032230
         H           -1.690860703556    -1.184918091377    -1.127645231752     1.007825032230
         H           -2.997556703556     0.012762908623    -1.237208231752     1.007825032230
         H           -1.366471703556     2.151881908623    -0.088308231752     1.007825032230
         H            0.958863296444     1.935311908623    -0.543398231752     1.007825032230
         H            2.970152896444    -0.794091991377    -0.026553631752     1.007825032230

  Basis Set: AUG-CC-PVTZ
    Blend: AUG-CC-PVTZ
  Basis Set: (AUG-CC-PVTZ AUX)
    Blend: AUG-CC-PVTZ-JKFIT
	 Reference Energy          =    -343.8536209908143633 [Eh]
	 Singles Energy            =      -0.0000000000000000 [Eh]
	 Same-Spin Energy          =      -0.3415868199291982 [Eh]
	 Opposite-Spin Energy      =      -1.1014132111132107 [Eh]
	 Correlation Energy        =      -1.4430000310424089 [Eh]
	 Total Energy              =    -345.2966210218567653 [Eh]

	 ================> DF-SCS-MP2 Energies <==================
	-----------------------------------------------------------
	 SCS Same-Spin Scale       =       0.3333333333333333 [-]
	 SCS Opposite-Spin Scale   =       1.2000000000000000 [-]
	 SCS Same-Spin Energy      =      -0.1138622733097327 [Eh]
	 SCS Opposite-Spin Energy  =      -1.3216958533358527 [Eh]
	 SCS Correlation Energy    =      -1.4355581266455855 [Eh]
	 SCS Total Energy          =    -345.2891791174599234 [Eh]
	-----------------------------------------------------------

  Dipole Moment: [D]
     X:    -0.3334      Y:     1.1352      Z:    -0.1302     Total:     1.1903

*** Psi4 exiting successfully. Buy a developer a beer!
