                               Psi4 1.4a3.dev225

  ==> Input File <==

--------------------------------------------------------------------------
#psi4
#
memory 32 gb

molecule  {
0 1
  O        2.6043210     0.0828630    -0.1445960
  O        0.8461570    -1.2916990     0.2386850
  C       -1.7394130     0.0979440     0.6095950
  C       -2.3802920    -0.6692310    -0.5542970
  C       -0.8230420     1.1744430     0.1086050
  C        0.4895550     1.0683010    -0.1734410
  C        1.2721580    -0.1688410     0.0026710
  H       -2.5220070     0.5621210     1.2198080
  H       -1.1892610    -0.6035630     1.2386490
  H       -3.0933810    -1.4091330    -0.1797240
  H       -1.6064800    -1.1915300    -1.1205690
  H       -2.9131760     0.0061510    -1.2301320
  H       -1.2820910     2.1452700    -0.0812320
  H        1.0432440     1.9287000    -0.5363220
  H        3.0230035    -0.7388244    -0.0282399
units angstrom
no_reorient  #important for SAPT in psi4, default
symmetry c1  #important for SAPT in psi4, default
}

set PROPERTIES_ORIGIN ["COM"]
properties('MP2/aug-cc-pvtz', properties = ['dipole'])
--------------------------------------------------------------------------

    Molecular point group: c1
  Charge       = 0
  Multiplicity = 1
  Basis Set: AUG-CC-PVTZ
    Blend: AUG-CC-PVTZ
  Basis Set: (AUG-CC-PVTZ AUX)
    Blend: AUG-CC-PVTZ-JKFIT

    Orbital Energies [Eh]
    ---------------------

    Doubly Occupied:

       1A    -20.608694     2A    -20.546304     3A    -11.391048
       4A    -11.271983     5A    -11.244389     6A    -11.232416
       7A    -11.219398     8A     -1.463335     9A     -1.355746
      10A     -1.105278    11A     -1.018857    12A     -0.912041
      13A     -0.842634    14A     -0.755223    15A     -0.711629
      16A     -0.675814    17A     -0.647335    18A     -0.627847
      19A     -0.602439    20A     -0.580090    21A     -0.569896
      22A     -0.526686    23A     -0.502744    24A     -0.496718
      25A     -0.480684    26A     -0.445721    27A     -0.380974

  @DF-RHF Final Energy:  -343.85600529245409

   => Energetics <=

    Nuclear Repulsion Energy =            294.0424319206913992
    One-Electron Energy =               -1051.3650288871665452
    Two-Electron Energy =                 413.4665916740211173
    Total Energy =                       -343.8560052924540855
  Basis Set: (AUG-CC-PVTZ AUX)
    Blend: AUG-CC-PVTZ-RI
    Molecular point group: c1

    Geometry (in Angstrom), charge = 0, multiplicity = 1:

       Center              X                  Y                   Z               Mass
    ------------   -----------------  -----------------  -----------------  -----------------
         O            2.520257898167     0.088851598331    -0.151583967360    15.994914619570
         O            0.762093898167    -1.285710401669     0.231697032640    15.994914619570
         C           -1.823476101833     0.103932598331     0.602607032640    12.000000000000
         C           -2.464355101833    -0.663242401669    -0.561284967360    12.000000000000
         C           -0.907105101833     1.180431598331     0.101617032640    12.000000000000
         C            0.405491898167     1.074289598331    -0.180428967360    12.000000000000
         C            1.188094898167    -0.162852401669    -0.004316967360    12.000000000000
         H           -2.606070101833     0.568109598331     1.212820032640     1.007825032230
         H           -1.273324101833    -0.597574401669     1.231661032640     1.007825032230
         H           -3.177444101833    -1.403144401669    -0.186711967360     1.007825032230
         H           -1.690543101833    -1.185541401669    -1.127556967360     1.007825032230
         H           -2.997239101833     0.012139598331    -1.237119967360     1.007825032230
         H           -1.366154101833     2.151258598331    -0.088219967360     1.007825032230
         H            0.959180898167     1.934688598331    -0.543309967360     1.007825032230
         H            2.938940398167    -0.732835801669    -0.035227867360     1.007825032230

  Basis Set: AUG-CC-PVTZ
    Blend: AUG-CC-PVTZ
  Basis Set: (AUG-CC-PVTZ AUX)
    Blend: AUG-CC-PVTZ-JKFIT
	 Reference Energy          =    -343.8560052924540855 [Eh]
	 Singles Energy            =      -0.0000000000000000 [Eh]
	 Same-Spin Energy          =      -0.3406858879911195 [Eh]
	 Opposite-Spin Energy      =      -1.0993241995075755 [Eh]
	 Correlation Energy        =      -1.4400100874986950 [Eh]
	 Total Energy              =    -345.2960153799527916 [Eh]

	 ================> DF-SCS-MP2 Energies <==================
	-----------------------------------------------------------
	 SCS Same-Spin Scale       =       0.3333333333333333 [-]
	 SCS Opposite-Spin Scale   =       1.2000000000000000 [-]
	 SCS Same-Spin Energy      =      -0.1135619626637065 [Eh]
	 SCS Opposite-Spin Energy  =      -1.3191890394090906 [Eh]
	 SCS Correlation Energy    =      -1.4327510020727972 [Eh]
	 SCS Total Energy          =    -345.2887562945268769 [Eh]
	-----------------------------------------------------------

  Dipole Moment: [D]
     X:    -0.4029      Y:     1.1985      Z:    -0.1367     Total:     1.2718

*** Psi4 exiting successfully. Buy a developer a beer!
