                               Psi4 1.4a3.dev225

  ==> Input File <==

--------------------------------------------------------------------------
#psi4
#
memory 32 gb

molecule  {
0 1
  O        2.6043210     0.0828630    -0.1445960
  O        0.8461570    -1.2916990     0.2386850
  C       -1.7394130     0.0979440     0.6095950
  C       -2.3802920    -0.6692310    -0.5542970
  C       -0.8230420     1.1744430     0.1086050
  C        0.4895550     1.0683010    -0.1734410
  C        1.2233146    -0.1780697     0.0080705
  H       -2.5220070     0.5621210     1.2198080
  H       -1.1892610    -0.6035630     1.2386490
  H       -3.0933810    -1.4091330    -0.1797240
  H       -1.6064800    -1.1915300    -1.1205690
  H       -2.9131760     0.0061510    -1.2301320
  H       -1.2820910     2.1452700    -0.0812320
  H        1.0432440     1.9287000    -0.5363220
  H        3.0455250    -0.7830240    -0.0219810
units angstrom
no_reorient  #important for SAPT in psi4, default
symmetry c1  #important for SAPT in psi4, default
}

set PROPERTIES_ORIGIN ["COM"]
properties('MP2/aug-cc-pvtz', properties = ['dipole'])
--------------------------------------------------------------------------

    Molecular point group: c1
  Charge       = 0
  Multiplicity = 1
  Basis Set: AUG-CC-PVTZ
    Blend: AUG-CC-PVTZ
  Basis Set: (AUG-CC-PVTZ AUX)
    Blend: AUG-CC-PVTZ-JKFIT

    Orbital Energies [Eh]
    ---------------------

    Doubly Occupied:

       1A    -20.596974     2A    -20.552203     3A    -11.388577
       4A    -11.274243     5A    -11.245155     6A    -11.235189
       7A    -11.221830     8A     -1.446804     9A     -1.350803
      10A     -1.109560    11A     -1.021484    12A     -0.907414
      13A     -0.837365    14A     -0.743797    15A     -0.708351
      16A     -0.672660    17A     -0.642536    18A     -0.619245
      19A     -0.602987    20A     -0.583343    21A     -0.571563
      22A     -0.528976    23A     -0.504705    24A     -0.498794
      25A     -0.483256    26A     -0.447114    27A     -0.383996

  @DF-RHF Final Energy:  -343.85281893588115

   => Energetics <=

    Nuclear Repulsion Energy =            293.9721627001816273
    One-Electron Energy =               -1051.2921148525110766
    Two-Electron Energy =                 413.4671332164483601
    Total Energy =                       -343.8528189358811460
  Basis Set: (AUG-CC-PVTZ AUX)
    Blend: AUG-CC-PVTZ-RI
    Molecular point group: c1

    Geometry (in Angstrom), charge = 0, multiplicity = 1:

       Center              X                  Y                   Z               Mass
    ------------   -----------------  -----------------  -----------------  -----------------
         O            2.525889176402     0.090403683213    -0.152294613533    15.994914619570
         O            0.767725176402    -1.284158316787     0.230986386467    15.994914619570
         C           -1.817844823598     0.105484683213     0.601896386467    12.000000000000
         C           -2.458723823598    -0.661690316787    -0.561995613533    12.000000000000
         C           -0.901473823598     1.181983683213     0.100906386467    12.000000000000
         C            0.411123176402     1.075841683213    -0.181139613533    12.000000000000
         C            1.144882776402    -0.170529016787     0.000371886467    12.000000000000
         H           -2.600438823598     0.569661683213     1.212109386467     1.007825032230
         H           -1.267692823598    -0.596022316787     1.230950386467     1.007825032230
         H           -3.171812823598    -1.401592316787    -0.187422613533     1.007825032230
         H           -1.684911823598    -1.183989316787    -1.128267613533     1.007825032230
         H           -2.991607823598     0.013691683213    -1.237830613533     1.007825032230
         H           -1.360522823598     2.152810683213    -0.088930613533     1.007825032230
         H            0.964812176402     1.936240683213    -0.544020613533     1.007825032230
         H            2.967093176402    -0.775483316787    -0.029679613533     1.007825032230

  Basis Set: AUG-CC-PVTZ
    Blend: AUG-CC-PVTZ
  Basis Set: (AUG-CC-PVTZ AUX)
    Blend: AUG-CC-PVTZ-JKFIT
	 Reference Energy          =    -343.8528189358811460 [Eh]
	 Singles Energy            =      -0.0000000000000000 [Eh]
	 Same-Spin Energy          =      -0.3413558212620158 [Eh]
	 Opposite-Spin Energy      =      -1.1010175912302864 [Eh]
	 Correlation Energy        =      -1.4423734124923022 [Eh]
	 Total Energy              =    -345.2951923483734618 [Eh]

	 ================> DF-SCS-MP2 Energies <==================
	-----------------------------------------------------------
	 SCS Same-Spin Scale       =       0.3333333333333333 [-]
	 SCS Opposite-Spin Scale   =       1.2000000000000000 [-]
	 SCS Same-Spin Energy      =      -0.1137852737540053 [Eh]
	 SCS Opposite-Spin Energy  =      -1.3212211094763437 [Eh]
	 SCS Correlation Energy    =      -1.4350063832303490 [Eh]
	 SCS Total Energy          =    -345.2878253191115050 [Eh]
	-----------------------------------------------------------

  Dipole Moment: [D]
     X:    -0.8405      Y:     1.0806      Z:    -0.0863     Total:     1.3717

*** Psi4 exiting successfully. Buy a developer a beer!
