                               Psi4 1.3.2 release

  ==> Input File <==

--------------------------------------------------------------------------
#psi4
#
memory 32 gb

molecule  {
0 1
  O        2.5331200    -0.0725200     0.2027050
  O        0.8230440     1.2494390    -0.4327460
  C       -1.8165730    -0.1662430    -0.5903910
  C       -2.5841030     0.6523970     0.4513900
  C       -0.9018550    -1.1471370     0.0763090
  C        0.4138040    -1.0149060     0.3209930
  C        1.2335049     0.2359135    -0.0470754
  H       -2.5251580    -0.7208810    -1.2155130
  H       -1.2597500     0.5079260    -1.2382380
  H       -3.2919980     1.3271690    -0.0377650
  H       -1.8881090     1.2530680     1.0427000
  H       -3.1450010     0.0036210     1.1307380
  H       -1.3667210    -2.0751620     0.4099140
  H        0.9531490    -1.8065430     0.8308200
  H        2.9448796     0.7818045    -0.0418075
units angstrom
no_reorient  #important for SAPT in psi4, default
symmetry c1  #important for SAPT in psi4, default
}

set PROPERTIES_ORIGIN ["COM"]
properties('MP2/aug-cc-pvtz', properties = ['dipole'])
--------------------------------------------------------------------------

    Molecular point group: c1
  Charge       = 0
  Multiplicity = 1
  Basis Set: AUG-CC-PVTZ
    Blend: AUG-CC-PVTZ
  Basis Set: (AUG-CC-PVTZ AUX)
    Blend: AUG-CC-PVTZ-JKFIT

    Orbital Energies [Eh]
    ---------------------

    Doubly Occupied:

       1A    -20.613838     2A    -20.556865     3A    -11.386443
       4A    -11.260488     5A    -11.241519     6A    -11.229058
       7A    -11.219243     8A     -1.481081     9A     -1.385998
      10A     -1.097051    11A     -1.009881    12A     -0.896333
      13A     -0.834340    14A     -0.748941    15A     -0.715785
      16A     -0.679851    17A     -0.651048    18A     -0.640955
      19A     -0.603320    20A     -0.584235    21A     -0.566863
      22A     -0.525983    23A     -0.506338    24A     -0.502406
      25A     -0.489108    26A     -0.442596    27A     -0.375677

  @DF-RHF Final Energy:  -343.85137785454418

   => Energetics <=

    Nuclear Repulsion Energy =            293.1659192037001844
    One-Electron Energy =               -1049.5441090929432448
    Two-Electron Energy =                 412.5268120346988212
    Total Energy =                       -343.8513778545441824
  Basis Set: (AUG-CC-PVTZ AUX)
    Blend: AUG-CC-PVTZ-RI
    Molecular point group: c1

    Geometry (in Angstrom), charge = 0, multiplicity = 1:

       Center              X                  Y                   Z               Mass
    ------------   -----------------  -----------------  -----------------  -----------------
         O            2.531468572562    -0.080618863709     0.205274030931    15.994914619570
         O            0.821392572562     1.241340136291    -0.430176969069    15.994914619570
         C           -1.818224427438    -0.174341863709    -0.587821969069    12.000000000000
         C           -2.585754427438     0.644298136291     0.453959030931    12.000000000000
         C           -0.903506427438    -1.155235863709     0.078878030931    12.000000000000
         C            0.412152572562    -1.023004863709     0.323562030931    12.000000000000
         C            1.231853472562     0.227814636291    -0.044506369069    12.000000000000
         H           -2.526809427438    -0.728979863709    -1.212943969069     1.007825032230
         H           -1.261401427438     0.499827136291    -1.235668969069     1.007825032230
         H           -3.293649427438     1.319070136291    -0.035195969069     1.007825032230
         H           -1.889760427438     1.244969136291     1.045269030931     1.007825032230
         H           -3.146652427438    -0.004477863709     1.133307030931     1.007825032230
         H           -1.368372427438    -2.083260863709     0.412483030931     1.007825032230
         H            0.951497572562    -1.814641863709     0.833389030931     1.007825032230
         H            2.943228172562     0.773705636291    -0.039238469069     1.007825032230

  Basis Set: AUG-CC-PVTZ
    Blend: AUG-CC-PVTZ
  Basis Set: (AUG-CC-PVTZ AUX)
    Blend: AUG-CC-PVTZ-JKFIT
	 Reference Energy          =    -343.8513778545441824 [Eh]
	 Singles Energy            =      -0.0000000000000000 [Eh]
	 Same-Spin Energy          =      -0.3397810014557702 [Eh]
	 Opposite-Spin Energy      =      -1.0979636675048159 [Eh]
	 Correlation Energy        =      -1.4377446689605862 [Eh]
	 Total Energy              =    -345.2891225235047727 [Eh]

	 ================> DF-SCS-MP2 Energies <==================
	-----------------------------------------------------------
	 SCS Same-Spin Scale       =       0.3333333333333333 [-]
	 SCS Opposite-Spin Scale   =       1.2000000000000000 [-]
	 SCS Same-Spin Energy      =      -0.1132603338185901 [Eh]
	 SCS Opposite-Spin Energy  =      -1.3175564010057790 [Eh]
	 SCS Correlation Energy    =      -1.4308167348243690 [Eh]
	 SCS Total Energy          =    -345.2821945893685438 [Eh]
	-----------------------------------------------------------

  Dipole Moment: [D]
     X:    -0.2952      Y:    -0.7130      Z:     0.2054     Total:     0.7985

*** Psi4 exiting successfully. Buy a developer a beer!
