                               Psi4 1.3.2 release

  ==> Input File <==

--------------------------------------------------------------------------
#psi4
#
memory 32 gb

molecule  {
0 1
  O        2.5331200    -0.0725200     0.2027050
  O        0.8230440     1.2494390    -0.4327460
  C       -1.8165730    -0.1662430    -0.5903910
  C       -2.5841030     0.6523970     0.4513900
  C       -0.9629265    -1.0816472     0.0317965
  C        0.4138040    -1.0149060     0.3209930
  C        1.2159030     0.1700770    -0.0266570
  H       -2.5251580    -0.7208810    -1.2155130
  H       -1.2597500     0.5079260    -1.2382380
  H       -3.2919980     1.3271690    -0.0377650
  H       -1.8881090     1.2530680     1.0427000
  H       -3.1450010     0.0036210     1.1307380
  H       -1.3667210    -2.0751620     0.4099140
  H        0.9531490    -1.8065430     0.8308200
  H        2.9905100     0.7616870    -0.0298800
units angstrom
no_reorient  #important for SAPT in psi4, default
symmetry c1  #important for SAPT in psi4, default
}

set PROPERTIES_ORIGIN ["COM"]
properties('MP2/aug-cc-pvtz', properties = ['dipole'])
--------------------------------------------------------------------------

    Molecular point group: c1
  Charge       = 0
  Multiplicity = 1
  Basis Set: AUG-CC-PVTZ
    Blend: AUG-CC-PVTZ
  Basis Set: (AUG-CC-PVTZ AUX)
    Blend: AUG-CC-PVTZ-JKFIT

    Orbital Energies [Eh]
    ---------------------

    Doubly Occupied:

       1A    -20.607655     2A    -20.540430     3A    -11.383368
       4A    -11.282714     5A    -11.248123     6A    -11.228935
       7A    -11.226544     8A     -1.454555     9A     -1.349171
      10A     -1.115919    11A     -1.017917    12A     -0.914424
      13A     -0.838842    14A     -0.748163    15A     -0.704511
      16A     -0.676170    17A     -0.646979    18A     -0.626254
      19A     -0.607240    20A     -0.583469    21A     -0.553076
      22A     -0.540475    23A     -0.518123    24A     -0.495514
      25A     -0.479870    26A     -0.440505    27A     -0.364189

  @DF-RHF Final Energy:  -343.83997022380538

   => Energetics <=

    Nuclear Repulsion Energy =            293.2942238685204757
    One-Electron Energy =               -1049.8821187850307979
    Two-Electron Energy =                 412.7479246927049417
    Total Energy =                       -343.8399702238053806
  Basis Set: (AUG-CC-PVTZ AUX)
    Blend: AUG-CC-PVTZ-RI
    Molecular point group: c1

    Geometry (in Angstrom), charge = 0, multiplicity = 1:

       Center              X                  Y                   Z               Mass
    ------------   -----------------  -----------------  -----------------  -----------------
         O            2.540444799778    -0.080374638554     0.208043662496    15.994914619570
         O            0.830368799778     1.241584361446    -0.427407337504    15.994914619570
         C           -1.809248200222    -0.174097638554    -0.585052337504    12.000000000000
         C           -2.576778200222     0.644542361446     0.456728662496    12.000000000000
         C           -0.955601700222    -1.089501838554     0.037135162496    12.000000000000
         C            0.421128799778    -1.022760638554     0.326331662496    12.000000000000
         C            1.223227799778     0.162222361446    -0.021318337504    12.000000000000
         H           -2.517833200222    -0.728735638554    -1.210174337504     1.007825032230
         H           -1.252425200222     0.500071361446    -1.232899337504     1.007825032230
         H           -3.284673200222     1.319314361446    -0.032426337504     1.007825032230
         H           -1.880784200222     1.245213361446     1.048038662496     1.007825032230
         H           -3.137676200222    -0.004233638554     1.136076662496     1.007825032230
         H           -1.359396200222    -2.083016638554     0.415252662496     1.007825032230
         H            0.960473799778    -1.814397638554     0.836158662496     1.007825032230
         H            2.997834799778     0.753832361446    -0.024541337504     1.007825032230

  Basis Set: AUG-CC-PVTZ
    Blend: AUG-CC-PVTZ
  Basis Set: (AUG-CC-PVTZ AUX)
    Blend: AUG-CC-PVTZ-JKFIT
	 Reference Energy          =    -343.8399702238053806 [Eh]
	 Singles Energy            =      -0.0000000000000000 [Eh]
	 Same-Spin Energy          =      -0.3429998929850309 [Eh]
	 Opposite-Spin Energy      =      -1.1024723509920400 [Eh]
	 Correlation Energy        =      -1.4454722439770709 [Eh]
	 Total Energy              =    -345.2854424677824454 [Eh]

	 ================> DF-SCS-MP2 Energies <==================
	-----------------------------------------------------------
	 SCS Same-Spin Scale       =       0.3333333333333333 [-]
	 SCS Opposite-Spin Scale   =       1.2000000000000000 [-]
	 SCS Same-Spin Energy      =      -0.1143332976616769 [Eh]
	 SCS Opposite-Spin Energy  =      -1.3229668211904480 [Eh]
	 SCS Correlation Energy    =      -1.4373001188521248 [Eh]
	 SCS Total Energy          =    -345.2772703426575163 [Eh]
	-----------------------------------------------------------

  Dipole Moment: [D]
     X:    -0.6430      Y:    -1.0607      Z:     0.2963     Total:     1.2753

*** Psi4 exiting successfully. Buy a developer a beer!
