                               Psi4 1.3.2 release

  ==> Input File <==

--------------------------------------------------------------------------
#psi4
#
memory 32 gb

molecule  {
0 1
  O        2.5331200    -0.0725200     0.2027050
  O        0.8230440     1.2494390    -0.4327460
  C       -1.8165730    -0.1662430    -0.5903910
  C       -2.5841030     0.6523970     0.4513900
  C       -0.9018550    -1.1471370     0.0763090
  C        0.4138040    -1.0149060     0.3209930
  C        1.2159030     0.1700770    -0.0266570
  H       -2.5251580    -0.7208810    -1.2155130
  H       -1.2597500     0.5079260    -1.2382380
  H       -3.2919980     1.3271690    -0.0377650
  H       -1.8881090     1.2530680     1.0427000
  H       -3.1450010     0.0036210     1.1307380
  H       -1.3240821    -1.9900408     0.3793148
  H        0.9531490    -1.8065430     0.8308200
  H        2.9905100     0.7616870    -0.0298800
units angstrom
no_reorient  #important for SAPT in psi4, default
symmetry c1  #important for SAPT in psi4, default
}

set PROPERTIES_ORIGIN ["COM"]
properties('MP2/aug-cc-pvtz', properties = ['dipole'])
--------------------------------------------------------------------------

    Molecular point group: c1
  Charge       = 0
  Multiplicity = 1
  Basis Set: AUG-CC-PVTZ
    Blend: AUG-CC-PVTZ
  Basis Set: (AUG-CC-PVTZ AUX)
    Blend: AUG-CC-PVTZ-JKFIT

    Orbital Energies [Eh]
    ---------------------

    Doubly Occupied:

       1A    -20.610929     2A    -20.544241     3A    -11.387621
       4A    -11.258938     5A    -11.242748     6A    -11.230564
       7A    -11.221011     8A     -1.457723     9A     -1.352214
      10A     -1.108885    11A     -1.019435    12A     -0.914240
      13A     -0.840885    14A     -0.763540    15A     -0.708267
      16A     -0.673818    17A     -0.650992    18A     -0.627814
      19A     -0.602086    20A     -0.584106    21A     -0.572682
      22A     -0.527624    23A     -0.504920    24A     -0.495172
      25A     -0.481370    26A     -0.445064    27A     -0.380666

  @DF-RHF Final Energy:  -343.85076197115029

   => Energetics <=

    Nuclear Repulsion Energy =            293.3371273987558538
    One-Electron Energy =               -1049.9606701510333551
    Two-Electron Energy =                 412.7727807811271532
    Total Energy =                       -343.8507619711502912
  Basis Set: (AUG-CC-PVTZ AUX)
    Blend: AUG-CC-PVTZ-RI
    Molecular point group: c1

    Geometry (in Angstrom), charge = 0, multiplicity = 1:

       Center              X                  Y                   Z               Mass
    ------------   -----------------  -----------------  -----------------  -----------------
         O            2.532690559779    -0.073377403930     0.203013186347    15.994914619570
         O            0.822614559779     1.248581596070    -0.432437813653    15.994914619570
         C           -1.817002440221    -0.167100403930    -0.590082813653    12.000000000000
         C           -2.584532440221     0.651539596070     0.451698186347    12.000000000000
         C           -0.902284440221    -1.147994403930     0.076617186347    12.000000000000
         C            0.413374559779    -1.015763403930     0.321301186347    12.000000000000
         C            1.215473559779     0.169219596070    -0.026348813653    12.000000000000
         H           -2.525587440221    -0.721738403930    -1.215204813653     1.007825032230
         H           -1.260179440221     0.507068596070    -1.237929813653     1.007825032230
         H           -3.292427440221     1.326311596070    -0.037456813653     1.007825032230
         H           -1.888538440221     1.252210596070     1.043008186347     1.007825032230
         H           -3.145430440221     0.002763596070     1.131046186347     1.007825032230
         H           -1.324511540221    -1.990898203930     0.379622986347     1.007825032230
         H            0.952719559779    -1.807400403930     0.831128186347     1.007825032230
         H            2.990080559779     0.760829596070    -0.029571813653     1.007825032230

  Basis Set: AUG-CC-PVTZ
    Blend: AUG-CC-PVTZ
  Basis Set: (AUG-CC-PVTZ AUX)
    Blend: AUG-CC-PVTZ-JKFIT
	 Reference Energy          =    -343.8507619711502912 [Eh]
	 Singles Energy            =      -0.0000000000000000 [Eh]
	 Same-Spin Energy          =      -0.3407986497287571 [Eh]
	 Opposite-Spin Energy      =      -1.0994604459482562 [Eh]
	 Correlation Energy        =      -1.4402590956770132 [Eh]
	 Total Energy              =    -345.2910210668272839 [Eh]

	 ================> DF-SCS-MP2 Energies <==================
	-----------------------------------------------------------
	 SCS Same-Spin Scale       =       0.3333333333333333 [-]
	 SCS Opposite-Spin Scale   =       1.2000000000000000 [-]
	 SCS Same-Spin Energy      =      -0.1135995499095857 [Eh]
	 SCS Opposite-Spin Energy  =      -1.3193525351379074 [Eh]
	 SCS Correlation Energy    =      -1.4329520850474931 [Eh]
	 SCS Total Energy          =    -345.2837140561977662 [Eh]
	-----------------------------------------------------------

  Dipole Moment: [D]
     X:    -0.4301      Y:    -1.1524      Z:     0.3478     Total:     1.2783

*** Psi4 exiting successfully. Buy a developer a beer!
