                               Psi4 1.3.2 release

  ==> Input File <==

--------------------------------------------------------------------------
#psi4
#
memory 32 gb

molecule  {
0 1
  O        2.5331200    -0.0725200     0.2027050
  O        0.8230440     1.2494390    -0.4327460
  C       -1.8165730    -0.1662430    -0.5903910
  C       -2.5725251     0.6570068     0.4562119
  C       -0.9018550    -1.1471370     0.0763090
  C        0.4138040    -1.0149060     0.3209930
  C        1.2159030     0.1700770    -0.0266570
  H       -2.5178492    -0.7245657    -1.2204553
  H       -1.2597500     0.5079260    -1.2382380
  H       -3.2919980     1.3271690    -0.0377650
  H       -1.8881090     1.2530680     1.0427000
  H       -3.1450010     0.0036210     1.1307380
  H       -1.3667210    -2.0751620     0.4099140
  H        0.9531490    -1.8065430     0.8308200
  H        2.9905100     0.7616870    -0.0298800
units angstrom
no_reorient  #important for SAPT in psi4, default
symmetry c1  #important for SAPT in psi4, default
}

set PROPERTIES_ORIGIN ["COM"]
properties('MP2/aug-cc-pvtz', properties = ['dipole'])
--------------------------------------------------------------------------

    Molecular point group: c1
  Charge       = 0
  Multiplicity = 1
  Basis Set: AUG-CC-PVTZ
    Blend: AUG-CC-PVTZ
  Basis Set: (AUG-CC-PVTZ AUX)
    Blend: AUG-CC-PVTZ-JKFIT

    Orbital Energies [Eh]
    ---------------------

    Doubly Occupied:

       1A    -20.611244     2A    -20.544503     3A    -11.388169
       4A    -11.270762     5A    -11.243069     6A    -11.231587
       7A    -11.221372     8A     -1.458035     9A     -1.352536
      10A     -1.105587    11A     -1.019627    12A     -0.908917
      13A     -0.840238    14A     -0.752365    15A     -0.707815
      16A     -0.673866    17A     -0.647219    18A     -0.627934
      19A     -0.600511    20A     -0.584169    21A     -0.565582
      22A     -0.528930    23A     -0.502171    24A     -0.497035
      25A     -0.481613    26A     -0.444079    27A     -0.381000

  @DF-RHF Final Energy:  -343.85645000644263

   => Energetics <=

    Nuclear Repulsion Energy =            292.8864571897332780
    One-Electron Energy =               -1049.1059482794869382
    Two-Electron Energy =                 412.3630410833110318
    Total Energy =                       -343.8564500064426284
  Basis Set: (AUG-CC-PVTZ AUX)
    Blend: AUG-CC-PVTZ-RI
    Molecular point group: c1

    Geometry (in Angstrom), charge = 0, multiplicity = 1:

       Center              X                  Y                   Z               Mass
    ------------   -----------------  -----------------  -----------------  -----------------
         O            2.531657818832    -0.073035750967     0.202176420398    15.994914619570
         O            0.821581818832     1.248923249033    -0.433274579602    15.994914619570
         C           -1.818035181168    -0.166758750967    -0.590919579602    12.000000000000
         C           -2.573987281168     0.656491049033     0.455683320398    12.000000000000
         C           -0.903317181168    -1.147652750967     0.075780420398    12.000000000000
         C            0.412341818832    -1.015421750967     0.320464420398    12.000000000000
         C            1.214440818832     0.169561249033    -0.027185579602    12.000000000000
         H           -2.519311381168    -0.725081450967    -1.220983879602     1.007825032230
         H           -1.261212181168     0.507410249033    -1.238766579602     1.007825032230
         H           -3.293460181168     1.326653249033    -0.038293579602     1.007825032230
         H           -1.889571181168     1.252552249033     1.042171420398     1.007825032230
         H           -3.146463181168     0.003105249033     1.130209420398     1.007825032230
         H           -1.368183181168    -2.075677750967     0.409385420398     1.007825032230
         H            0.951686818832    -1.807058750967     0.830291420398     1.007825032230
         H            2.989047818832     0.761171249033    -0.030408579602     1.007825032230

  Basis Set: AUG-CC-PVTZ
    Blend: AUG-CC-PVTZ
  Basis Set: (AUG-CC-PVTZ AUX)
    Blend: AUG-CC-PVTZ-JKFIT
	 Reference Energy          =    -343.8564500064426284 [Eh]
	 Singles Energy            =      -0.0000000000000000 [Eh]
	 Same-Spin Energy          =      -0.3409320435620020 [Eh]
	 Opposite-Spin Energy      =      -1.0998841395374643 [Eh]
	 Correlation Energy        =      -1.4408161830994664 [Eh]
	 Total Energy              =    -345.2972661895420856 [Eh]

	 ================> DF-SCS-MP2 Energies <==================
	-----------------------------------------------------------
	 SCS Same-Spin Scale       =       0.3333333333333333 [-]
	 SCS Opposite-Spin Scale   =       1.2000000000000000 [-]
	 SCS Same-Spin Energy      =      -0.1136440145206673 [Eh]
	 SCS Opposite-Spin Energy  =      -1.3198609674449571 [Eh]
	 SCS Correlation Energy    =      -1.4335049819656245 [Eh]
	 SCS Total Energy          =    -345.2899549884082262 [Eh]
	-----------------------------------------------------------

  Dipole Moment: [D]
     X:    -0.4229      Y:    -1.1207      Z:     0.3330     Total:     1.2433

*** Psi4 exiting successfully. Buy a developer a beer!
