                               Psi4 1.3.2 release

  ==> Input File <==

--------------------------------------------------------------------------
#psi4
#
memory 32 gb

molecule  {
0 1
  O        2.5331200    -0.0725200     0.2027050
  O        0.8230440     1.2494390    -0.4327460
  C       -1.8165730    -0.1662430    -0.5903910
  C       -2.5137898     0.6791083     0.4791189
  C       -0.9018550    -1.1471370     0.0763090
  C        0.4138040    -1.0149060     0.3209930
  C        1.2159030     0.1700770    -0.0266570
  H       -2.4805152    -0.7423462    -1.2444394
  H       -1.2597500     0.5079260    -1.2382380
  H       -3.2919980     1.3271690    -0.0377650
  H       -1.8881090     1.2530680     1.0427000
  H       -3.1450010     0.0036210     1.1307380
  H       -1.3667210    -2.0751620     0.4099140
  H        0.9531490    -1.8065430     0.8308200
  H        2.9905100     0.7616870    -0.0298800
units angstrom
no_reorient  #important for SAPT in psi4, default
symmetry c1  #important for SAPT in psi4, default
}

set PROPERTIES_ORIGIN ["COM"]
properties('MP2/aug-cc-pvtz', properties = ['dipole'])
--------------------------------------------------------------------------

    Molecular point group: c1
  Charge       = 0
  Multiplicity = 1
  Basis Set: AUG-CC-PVTZ
    Blend: AUG-CC-PVTZ
  Basis Set: (AUG-CC-PVTZ AUX)
    Blend: AUG-CC-PVTZ-JKFIT

    Orbital Energies [Eh]
    ---------------------

    Doubly Occupied:

       1A    -20.611092     2A    -20.544383     3A    -11.387979
       4A    -11.270148     5A    -11.242310     6A    -11.232187
       7A    -11.223413     8A     -1.457903     9A     -1.352442
      10A     -1.106092    11A     -1.019397    12A     -0.909359
      13A     -0.842209    14A     -0.752235    15A     -0.707690
      16A     -0.673823    17A     -0.647726    18A     -0.627925
      19A     -0.597863    20A     -0.588566    21A     -0.564125
      22A     -0.539946    23A     -0.497307    24A     -0.491907
      25A     -0.480136    26A     -0.443109    27A     -0.380566

  @DF-RHF Final Energy:  -343.84819465906435

   => Energetics <=

    Nuclear Repulsion Energy =            293.2563243263939512
    One-Electron Energy =               -1049.8253596503870995
    Two-Electron Energy =                 412.7208406649288008
    Total Energy =                       -343.8481946590643474
  Basis Set: (AUG-CC-PVTZ AUX)
    Blend: AUG-CC-PVTZ-RI
    Molecular point group: c1

    Geometry (in Angstrom), charge = 0, multiplicity = 1:

       Center              X                  Y                   Z               Mass
    ------------   -----------------  -----------------  -----------------  -----------------
         O            2.524237212021    -0.075507438743     0.199670611945    15.994914619570
         O            0.814161212021     1.246451561257    -0.435780388055    15.994914619570
         C           -1.825455787979    -0.169230438743    -0.593425388055    12.000000000000
         C           -2.522672587979     0.676120861257     0.476084511945    12.000000000000
         C           -0.910737787979    -1.150124438743     0.073274611945    12.000000000000
         C            0.404921212021    -1.017893438743     0.317958611945    12.000000000000
         C            1.207020212021     0.167089561257    -0.029691388055    12.000000000000
         H           -2.489397987979    -0.745333638743    -1.247473788055     1.007825032230
         H           -1.268632787979     0.504938561257    -1.241272388055     1.007825032230
         H           -3.300880787979     1.324181561257    -0.040799388055     1.007825032230
         H           -1.896991787979     1.250080561257     1.039665611945     1.007825032230
         H           -3.153883787979     0.000633561257     1.127703611945     1.007825032230
         H           -1.375603787979    -2.078149438743     0.406879611945     1.007825032230
         H            0.944266212021    -1.809530438743     0.827785611945     1.007825032230
         H            2.981627212021     0.758699561257    -0.032914388055     1.007825032230

  Basis Set: AUG-CC-PVTZ
    Blend: AUG-CC-PVTZ
  Basis Set: (AUG-CC-PVTZ AUX)
    Blend: AUG-CC-PVTZ-JKFIT
	 Reference Energy          =    -343.8481946590643474 [Eh]
	 Singles Energy            =      -0.0000000000000000 [Eh]
	 Same-Spin Energy          =      -0.3410710730418048 [Eh]
	 Opposite-Spin Energy      =      -1.1002570121117308 [Eh]
	 Correlation Energy        =      -1.4413280851535357 [Eh]
	 Total Energy              =    -345.2895227442178907 [Eh]

	 ================> DF-SCS-MP2 Energies <==================
	-----------------------------------------------------------
	 SCS Same-Spin Scale       =       0.3333333333333333 [-]
	 SCS Opposite-Spin Scale   =       1.2000000000000000 [-]
	 SCS Same-Spin Energy      =      -0.1136903576806016 [Eh]
	 SCS Opposite-Spin Energy  =      -1.3203084145340769 [Eh]
	 SCS Correlation Energy    =      -1.4339987722146785 [Eh]
	 SCS Total Energy          =    -345.2821934312790404 [Eh]
	-----------------------------------------------------------

  Dipole Moment: [D]
     X:    -0.4106      Y:    -1.1207      Z:     0.3185     Total:     1.2353

*** Psi4 exiting successfully. Buy a developer a beer!
