                               Psi4 1.4a3.dev225

  ==> Input File <==

--------------------------------------------------------------------------
#psi4
#
memory 32 gb

molecule  {
0 1
  O        2.6043210     0.0828630    -0.1445960
  O        0.8461570    -1.2916990     0.2386850
  C       -1.7394130     0.0979440     0.6095950
  C       -2.3802920    -0.6692310    -0.5542970
  C       -0.8352614     1.1600883     0.1152855
  C        0.4895550     1.0683010    -0.1734410
  C        1.2721580    -0.1688410     0.0026710
  H       -2.5220070     0.5621210     1.2198080
  H       -1.1892610    -0.6035630     1.2386490
  H       -3.0933810    -1.4091330    -0.1797240
  H       -1.6064800    -1.1915300    -1.1205690
  H       -2.9131760     0.0061510    -1.2301320
  H       -1.2820910     2.1452700    -0.0812320
  H        1.0432440     1.9287000    -0.5363220
  H        3.0455250    -0.7830240    -0.0219810
units angstrom
no_reorient  #important for SAPT in psi4, default
symmetry c1  #important for SAPT in psi4, default
}

set PROPERTIES_ORIGIN ["COM"]
properties('MP2/aug-cc-pvtz', properties = ['dipole'])
--------------------------------------------------------------------------

    Molecular point group: c1
  Charge       = 0
  Multiplicity = 1
  Basis Set: AUG-CC-PVTZ
    Blend: AUG-CC-PVTZ
  Basis Set: (AUG-CC-PVTZ AUX)
    Blend: AUG-CC-PVTZ-JKFIT

    Orbital Energies [Eh]
    ---------------------

    Doubly Occupied:

       1A    -20.611530     2A    -20.544638     3A    -11.389221
       4A    -11.273939     5A    -11.245239     6A    -11.231623
       7A    -11.220068     8A     -1.454547     9A     -1.350319
      10A     -1.105766    11A     -1.017839    12A     -0.908762
      13A     -0.839533    14A     -0.750064    15A     -0.707078
      16A     -0.674427    17A     -0.645797    18A     -0.625798
      19A     -0.600993    20A     -0.579570    21A     -0.566085
      22A     -0.528546    23A     -0.505427    24A     -0.496142
      25A     -0.479282    26A     -0.444582    27A     -0.377331

  @DF-RHF Final Energy:  -343.85399628265475

   => Energetics <=

    Nuclear Repulsion Energy =            293.8238840995323358
    One-Electron Energy =               -1051.0074709060190798
    Two-Electron Energy =                 413.3295905238320529
    Total Energy =                       -343.8539962826547480
  Basis Set: (AUG-CC-PVTZ AUX)
    Blend: AUG-CC-PVTZ-RI
    Molecular point group: c1

    Geometry (in Angstrom), charge = 0, multiplicity = 1:

       Center              X                  Y                   Z               Mass
    ------------   -----------------  -----------------  -----------------  -----------------
         O            2.521496599408     0.091018480878    -0.152448252981    15.994914619570
         O            0.763332599408    -1.283543519122     0.230832747019    15.994914619570
         C           -1.822237400592     0.106099480878     0.601742747019    12.000000000000
         C           -2.463116400592    -0.661075519122    -0.562149252981    12.000000000000
         C           -0.918085800592     1.168243780878     0.107433247019    12.000000000000
         C            0.406730599408     1.076456480878    -0.181293252981    12.000000000000
         C            1.189333599408    -0.160685519122    -0.005181252981    12.000000000000
         H           -2.604831400592     0.570276480878     1.211955747019     1.007825032230
         H           -1.272085400592    -0.595407519122     1.230796747019     1.007825032230
         H           -3.176205400592    -1.400977519122    -0.187576252981     1.007825032230
         H           -1.689304400592    -1.183374519122    -1.128421252981     1.007825032230
         H           -2.996000400592     0.014306480878    -1.237984252981     1.007825032230
         H           -1.364915400592     2.153425480878    -0.089084252981     1.007825032230
         H            0.960419599408     1.936855480878    -0.544174252981     1.007825032230
         H            2.962700599408    -0.774868519122    -0.029833252981     1.007825032230

  Basis Set: AUG-CC-PVTZ
    Blend: AUG-CC-PVTZ
  Basis Set: (AUG-CC-PVTZ AUX)
    Blend: AUG-CC-PVTZ-JKFIT
	 Reference Energy          =    -343.8539962826547480 [Eh]
	 Singles Energy            =      -0.0000000000000000 [Eh]
	 Same-Spin Energy          =      -0.3416657569208814 [Eh]
	 Opposite-Spin Energy      =      -1.1012044154525662 [Eh]
	 Correlation Energy        =      -1.4428701723734476 [Eh]
	 Total Energy              =    -345.2968664550281801 [Eh]

	 ================> DF-SCS-MP2 Energies <==================
	-----------------------------------------------------------
	 SCS Same-Spin Scale       =       0.3333333333333333 [-]
	 SCS Opposite-Spin Scale   =       1.2000000000000000 [-]
	 SCS Same-Spin Energy      =      -0.1138885856402938 [Eh]
	 SCS Opposite-Spin Energy  =      -1.3214452985430793 [Eh]
	 SCS Correlation Energy    =      -1.4353338841833732 [Eh]
	 SCS Total Energy          =    -345.2893301668381127 [Eh]
	-----------------------------------------------------------

  Dipole Moment: [D]
     X:    -0.3912      Y:     1.1422      Z:    -0.1273     Total:     1.2141

*** Psi4 exiting successfully. Buy a developer a beer!
