                               Psi4 1.3.2 release

  ==> Input File <==

--------------------------------------------------------------------------
#psi4
#
memory 32 gb

molecule  {
0 1
  O        2.5331200    -0.0725200     0.2027050
  O        0.8230440     1.2494390    -0.4327460
  C       -1.8165730    -0.1662430    -0.5903910
  C       -2.5608896     0.6615538     0.4609542
  C       -0.9018550    -1.1471370     0.0763090
  C        0.4138040    -1.0149060     0.3209930
  C        1.2159030     0.1700770    -0.0266570
  H       -2.5104869    -0.7282080    -1.2253495
  H       -1.2597500     0.5079260    -1.2382380
  H       -3.2919980     1.3271690    -0.0377650
  H       -1.8881090     1.2530680     1.0427000
  H       -3.1450010     0.0036210     1.1307380
  H       -1.3667210    -2.0751620     0.4099140
  H        0.9531490    -1.8065430     0.8308200
  H        2.9905100     0.7616870    -0.0298800
units angstrom
no_reorient  #important for SAPT in psi4, default
symmetry c1  #important for SAPT in psi4, default
}

set PROPERTIES_ORIGIN ["COM"]
properties('MP2/aug-cc-pvtz', properties = ['dipole'])
--------------------------------------------------------------------------

    Molecular point group: c1
  Charge       = 0
  Multiplicity = 1
  Basis Set: AUG-CC-PVTZ
    Blend: AUG-CC-PVTZ
  Basis Set: (AUG-CC-PVTZ AUX)
    Blend: AUG-CC-PVTZ-JKFIT

    Orbital Energies [Eh]
    ---------------------

    Doubly Occupied:

       1A    -20.611209     2A    -20.544473     3A    -11.388125
       4A    -11.270624     5A    -11.242908     6A    -11.231644
       7A    -11.221644     8A     -1.458004     9A     -1.352511
      10A     -1.105654    11A     -1.019524    12A     -0.908927
      13A     -0.840524    14A     -0.752320    15A     -0.707782
      16A     -0.673814    17A     -0.647284    18A     -0.627936
      19A     -0.599871    20A     -0.584927    21A     -0.564982
      22A     -0.530681    23A     -0.500264    24A     -0.497931
      25A     -0.481429    26A     -0.443914    27A     -0.380926

  @DF-RHF Final Energy:  -343.85577088243599

   => Energetics <=

    Nuclear Repulsion Energy =            292.9578154087242865
    One-Electron Energy =               -1049.2475085612420571
    Two-Electron Energy =                 412.4339222700817800
    Total Energy =                       -343.8557708824359906
  Basis Set: (AUG-CC-PVTZ AUX)
    Blend: AUG-CC-PVTZ-RI
    Molecular point group: c1

    Geometry (in Angstrom), charge = 0, multiplicity = 1:

       Center              X                  Y                   Z               Mass
    ------------   -----------------  -----------------  -----------------  -----------------
         O            2.530188130280    -0.073544416265     0.201656941731    15.994914619570
         O            0.820112130280     1.248414583735    -0.433794058269    15.994914619570
         C           -1.819504869720    -0.167267416265    -0.591439058269    12.000000000000
         C           -2.563821469720     0.660529383735     0.459906141731    12.000000000000
         C           -0.904786869720    -1.148161416265     0.075260941731    12.000000000000
         C            0.410872130280    -1.015930416265     0.319944941731    12.000000000000
         C            1.212971130280     0.169052583735    -0.027705058269    12.000000000000
         H           -2.513418769720    -0.729232416265    -1.226397558269     1.007825032230
         H           -1.262681869720     0.506901583735    -1.239286058269     1.007825032230
         H           -3.294929869720     1.326144583735    -0.038813058269     1.007825032230
         H           -1.891040869720     1.252043583735     1.041651941731     1.007825032230
         H           -3.147932869720     0.002596583735     1.129689941731     1.007825032230
         H           -1.369652869720    -2.076186416265     0.408865941731     1.007825032230
         H            0.950217130280    -1.807567416265     0.829771941731     1.007825032230
         H            2.987578130280     0.760662583735    -0.030928058269     1.007825032230

  Basis Set: AUG-CC-PVTZ
    Blend: AUG-CC-PVTZ
  Basis Set: (AUG-CC-PVTZ AUX)
    Blend: AUG-CC-PVTZ-JKFIT
	 Reference Energy          =    -343.8557708824359906 [Eh]
	 Singles Energy            =      -0.0000000000000000 [Eh]
	 Same-Spin Energy          =      -0.3409427952488998 [Eh]
	 Opposite-Spin Energy      =      -1.0999131182992599 [Eh]
	 Correlation Energy        =      -1.4408559135481598 [Eh]
	 Total Energy              =    -345.2966267959841389 [Eh]

	 ================> DF-SCS-MP2 Energies <==================
	-----------------------------------------------------------
	 SCS Same-Spin Scale       =       0.3333333333333333 [-]
	 SCS Opposite-Spin Scale   =       1.2000000000000000 [-]
	 SCS Same-Spin Energy      =      -0.1136475984162999 [Eh]
	 SCS Opposite-Spin Energy  =      -1.3198957419591117 [Eh]
	 SCS Correlation Energy    =      -1.4335433403754116 [Eh]
	 SCS Total Energy          =    -345.2893142228114129 [Eh]
	-----------------------------------------------------------

  Dipole Moment: [D]
     X:    -0.4206      Y:    -1.1198      Z:     0.3312     Total:     1.2412

*** Psi4 exiting successfully. Buy a developer a beer!
