                               Psi4 1.3.2 release

  ==> Input File <==

--------------------------------------------------------------------------
#psi4
#
memory 32 gb

molecule  {
0 1
  O        2.5331200    -0.0725200     0.2027050
  O        0.8230440     1.2494390    -0.4327460
  C       -1.8165730    -0.1662430    -0.5903910
  C       -2.5716006     0.6389617     0.4708159
  C       -0.9099700    -1.1385155     0.0996149
  C        0.4138040    -1.0149060     0.3209930
  C        1.2159030     0.1700770    -0.0266570
  H       -2.5251580    -0.7208810    -1.2155130
  H       -1.2597500     0.5079260    -1.2382380
  H       -3.2919980     1.3271690    -0.0377650
  H       -1.8881090     1.2530680     1.0427000
  H       -3.1450010     0.0036210     1.1307380
  H       -1.3667210    -2.0751620     0.4099140
  H        0.9531490    -1.8065430     0.8308200
  H        2.9905100     0.7616870    -0.0298800
units angstrom
no_reorient  #important for SAPT in psi4, default
symmetry c1  #important for SAPT in psi4, default
}

set PROPERTIES_ORIGIN ["COM"]
properties('MP2/aug-cc-pvtz', properties = ['dipole'])
--------------------------------------------------------------------------

    Molecular point group: c1
  Charge       = 0
  Multiplicity = 1
  Basis Set: AUG-CC-PVTZ
    Blend: AUG-CC-PVTZ
  Basis Set: (AUG-CC-PVTZ AUX)
    Blend: AUG-CC-PVTZ-JKFIT

    Orbital Energies [Eh]
    ---------------------

    Doubly Occupied:

       1A    -20.611054     2A    -20.544260     3A    -11.388004
       4A    -11.271085     5A    -11.243015     6A    -11.231960
       7A    -11.221161     8A     -1.457838     9A     -1.352344
      10A     -1.105662    11A     -1.019591    12A     -0.908303
      13A     -0.839838    14A     -0.753064    15A     -0.707601
      16A     -0.674018    17A     -0.647739    18A     -0.627836
      19A     -0.600536    20A     -0.583989    21A     -0.566058
      22A     -0.528888    23A     -0.503112    24A     -0.495741
      25A     -0.481618    26A     -0.444303    27A     -0.379732

  @DF-RHF Final Energy:  -343.85528840328323

   => Energetics <=

    Nuclear Repulsion Energy =            292.9350277341437732
    One-Electron Energy =               -1049.2039367316399421
    Two-Electron Energy =                 412.4136205942129436
    Total Energy =                       -343.8552884032832253
  Basis Set: (AUG-CC-PVTZ AUX)
    Blend: AUG-CC-PVTZ-RI
    Molecular point group: c1

    Geometry (in Angstrom), charge = 0, multiplicity = 1:

       Center              X                  Y                   Z               Mass
    ------------   -----------------  -----------------  -----------------  -----------------
         O            2.532593847992    -0.071942627415     0.197579832630    15.994914619570
         O            0.822517847992     1.250016372585    -0.437871167370    15.994914619570
         C           -1.817099152008    -0.165665627415    -0.595516167370    12.000000000000
         C           -2.572126752008     0.639539072585     0.465690732630    12.000000000000
         C           -0.910496152008    -1.137938127415     0.094489732630    12.000000000000
         C            0.413277847992    -1.014328627415     0.315867832630    12.000000000000
         C            1.215376847992     0.170654372585    -0.031782167370    12.000000000000
         H           -2.525684152008    -0.720303627415    -1.220638167370     1.007825032230
         H           -1.260276152008     0.508503372585    -1.243363167370     1.007825032230
         H           -3.292524152008     1.327746372585    -0.042890167370     1.007825032230
         H           -1.888635152008     1.253645372585     1.037574832630     1.007825032230
         H           -3.145527152008     0.004198372585     1.125612832630     1.007825032230
         H           -1.367247152008    -2.074584627415     0.404788832630     1.007825032230
         H            0.952622847992    -1.805965627415     0.825694832630     1.007825032230
         H            2.989983847992     0.762264372585    -0.035005167370     1.007825032230

  Basis Set: AUG-CC-PVTZ
    Blend: AUG-CC-PVTZ
  Basis Set: (AUG-CC-PVTZ AUX)
    Blend: AUG-CC-PVTZ-JKFIT
	 Reference Energy          =    -343.8552884032832253 [Eh]
	 Singles Energy            =      -0.0000000000000000 [Eh]
	 Same-Spin Energy          =      -0.3410405876809409 [Eh]
	 Opposite-Spin Energy      =      -1.1000504384889391 [Eh]
	 Correlation Energy        =      -1.4410910261698799 [Eh]
	 Total Energy              =    -345.2963794294531112 [Eh]

	 ================> DF-SCS-MP2 Energies <==================
	-----------------------------------------------------------
	 SCS Same-Spin Scale       =       0.3333333333333333 [-]
	 SCS Opposite-Spin Scale   =       1.2000000000000000 [-]
	 SCS Same-Spin Energy      =      -0.1136801958936469 [Eh]
	 SCS Opposite-Spin Energy  =      -1.3200605261867269 [Eh]
	 SCS Correlation Energy    =      -1.4337407220803737 [Eh]
	 SCS Total Energy          =    -345.2890291253635837 [Eh]
	-----------------------------------------------------------

  Dipole Moment: [D]
     X:    -0.4373      Y:    -1.1436      Z:     0.3219     Total:     1.2660

*** Psi4 exiting successfully. Buy a developer a beer!
