                               Psi4 1.3.2 release

  ==> Input File <==

--------------------------------------------------------------------------
#psi4
#
memory 32 gb

molecule  {
0 1
  O        2.5331200    -0.0725200     0.2027050
  O        0.8230440     1.2494390    -0.4327460
  C       -1.8165730    -0.1662430    -0.5903910
  C       -2.5841030     0.6523970     0.4513900
  C       -0.7797120    -1.2781165     0.1653340
  C        0.4138040    -1.0149060     0.3209930
  C        1.2159030     0.1700770    -0.0266570
  H       -2.5251580    -0.7208810    -1.2155130
  H       -1.2597500     0.5079260    -1.2382380
  H       -3.2919980     1.3271690    -0.0377650
  H       -1.8881090     1.2530680     1.0427000
  H       -3.1450010     0.0036210     1.1307380
  H       -1.3667210    -2.0751620     0.4099140
  H        0.9531490    -1.8065430     0.8308200
  H        2.9905100     0.7616870    -0.0298800
units angstrom
no_reorient  #important for SAPT in psi4, default
symmetry c1  #important for SAPT in psi4, default
}

set PROPERTIES_ORIGIN ["COM"]
properties('MP2/aug-cc-pvtz', properties = ['dipole'])
--------------------------------------------------------------------------

    Molecular point group: c1
  Charge       = 0
  Multiplicity = 1
  Basis Set: AUG-CC-PVTZ
    Blend: AUG-CC-PVTZ
  Basis Set: (AUG-CC-PVTZ AUX)
    Blend: AUG-CC-PVTZ-JKFIT

    Orbital Energies [Eh]
    ---------------------

    Doubly Occupied:

       1A    -20.616924     2A    -20.551295     3A    -11.396549
       4A    -11.252183     5A    -11.233915     6A    -11.232588
       7A    -11.214644     8A     -1.463540     9A     -1.357926
      10A     -1.113028    11A     -1.013446    12A     -0.909734
      13A     -0.832622    14A     -0.763098    15A     -0.713064
      16A     -0.681501    17A     -0.654499    18A     -0.632153
      19A     -0.600513    20A     -0.591265    21A     -0.566098
      22A     -0.514315    23A     -0.495686    24A     -0.486479
      25A     -0.468184    26A     -0.426018    27A     -0.413879

  @DF-RHF Final Energy:  -343.81864528909642

   => Energetics <=

    Nuclear Repulsion Energy =            292.1738678596091177
    One-Electron Energy =               -1047.5947359930032690
    Two-Electron Energy =                 411.6022228442977280
    Total Energy =                       -343.8186452890964233
  Basis Set: (AUG-CC-PVTZ AUX)
    Blend: AUG-CC-PVTZ-RI
    Molecular point group: c1

    Geometry (in Angstrom), charge = 0, multiplicity = 1:

       Center              X                  Y                   Z               Mass
    ------------   -----------------  -----------------  -----------------  -----------------
         O            2.518470580750    -0.056810677020     0.192027559659    15.994914619570
         O            0.808394580750     1.265148322980    -0.443423440341    15.994914619570
         C           -1.831222419250    -0.150533677020    -0.601068440341    12.000000000000
         C           -2.598752419250     0.668106322980     0.440712559659    12.000000000000
         C           -0.794361419250    -1.262407177020     0.154656559659    12.000000000000
         C            0.399154580750    -0.999196677020     0.310315559659    12.000000000000
         C            1.201253580750     0.185786322980    -0.037334440341    12.000000000000
         H           -2.539807419250    -0.705171677020    -1.226190440341     1.007825032230
         H           -1.274399419250     0.523635322980    -1.248915440341     1.007825032230
         H           -3.306647419250     1.342878322980    -0.048442440341     1.007825032230
         H           -1.902758419250     1.268777322980     1.032022559659     1.007825032230
         H           -3.159650419250     0.019330322980     1.120060559659     1.007825032230
         H           -1.381370419250    -2.059452677020     0.399236559659     1.007825032230
         H            0.938499580750    -1.790833677020     0.820142559659     1.007825032230
         H            2.975860580750     0.777396322980    -0.040557440341     1.007825032230

  Basis Set: AUG-CC-PVTZ
    Blend: AUG-CC-PVTZ
  Basis Set: (AUG-CC-PVTZ AUX)
    Blend: AUG-CC-PVTZ-JKFIT
	 Reference Energy          =    -343.8186452890964233 [Eh]
	 Singles Energy            =      -0.0000000000000000 [Eh]
	 Same-Spin Energy          =      -0.3397100570890464 [Eh]
	 Opposite-Spin Energy      =      -1.0990967055177050 [Eh]
	 Correlation Energy        =      -1.4388067626067516 [Eh]
	 Total Energy              =    -345.2574520517031829 [Eh]

	 ================> DF-SCS-MP2 Energies <==================
	-----------------------------------------------------------
	 SCS Same-Spin Scale       =       0.3333333333333333 [-]
	 SCS Opposite-Spin Scale   =       1.2000000000000000 [-]
	 SCS Same-Spin Energy      =      -0.1132366856963488 [Eh]
	 SCS Opposite-Spin Energy  =      -1.3189160466212460 [Eh]
	 SCS Correlation Energy    =      -1.4321527323175949 [Eh]
	 SCS Total Energy          =    -345.2507980214140275 [Eh]
	-----------------------------------------------------------

  Dipole Moment: [D]
     X:    -0.0752      Y:    -1.1839      Z:     0.3950     Total:     1.2503

*** Psi4 exiting successfully. Buy a developer a beer!
