                               Psi4 1.4a3.dev225

  ==> Input File <==

--------------------------------------------------------------------------
#psi4
#
memory 32 gb

molecule  {
0 1
  O        2.6043210     0.0828630    -0.1445960
  O        0.8461570    -1.2916990     0.2386850
  C       -1.7394130     0.0979440     0.6095950
  C       -2.3802920    -0.6692310    -0.5542970
  C       -0.8230420     1.1744430     0.1086050
  C        0.4895550     1.0683010    -0.1734410
  C        1.2721580    -0.1688410     0.0026710
  H       -2.5220070     0.5621210     1.2198080
  H       -1.1892610    -0.6035630     1.2386490
  H       -3.0933810    -1.4091330    -0.1797240
  H       -1.6064800    -1.1915300    -1.1205690
  H       -2.9131760     0.0061510    -1.2301320
  H       -1.2610441     2.1007585    -0.0725282
  H        1.0432440     1.9287000    -0.5363220
  H        3.0455250    -0.7830240    -0.0219810
units angstrom
no_reorient  #important for SAPT in psi4, default
symmetry c1  #important for SAPT in psi4, default
}

set PROPERTIES_ORIGIN ["COM"]
properties('MP2/aug-cc-pvtz', properties = ['dipole'])
--------------------------------------------------------------------------

    Molecular point group: c1
  Charge       = 0
  Multiplicity = 1
  Basis Set: AUG-CC-PVTZ
    Blend: AUG-CC-PVTZ
  Basis Set: (AUG-CC-PVTZ AUX)
    Blend: AUG-CC-PVTZ-JKFIT

    Orbital Energies [Eh]
    ---------------------

    Doubly Occupied:

       1A    -20.612004     2A    -20.545214     3A    -11.389815
       4A    -11.265711     5A    -11.243907     6A    -11.231609
       7A    -11.219042     8A     -1.454995     9A     -1.350736
      10A     -1.106181    11A     -1.017551    12A     -0.910505
      13A     -0.839684    14A     -0.756359    15A     -0.707854
      16A     -0.673925    17A     -0.648296    18A     -0.626147
      19A     -0.600358    20A     -0.580097    21A     -0.571239
      22A     -0.526380    23A     -0.502740    24A     -0.496035
      25A     -0.479276    26A     -0.445407    27A     -0.380410

  @DF-RHF Final Energy:  -343.85441050087809

   => Energetics <=

    Nuclear Repulsion Energy =            293.9885773353137779
    One-Electron Energy =               -1051.3230203629022981
    Two-Electron Energy =                 413.4800325267104881
    Total Energy =                       -343.8544105008780889
  Basis Set: (AUG-CC-PVTZ AUX)
    Blend: AUG-CC-PVTZ-RI
    Molecular point group: c1

    Geometry (in Angstrom), charge = 0, multiplicity = 1:

       Center              X                  Y                   Z               Mass
    ------------   -----------------  -----------------  -----------------  -----------------
         O            2.519819035019     0.089745182501    -0.151734686175    15.994914619570
         O            0.761655035019    -1.284816817499     0.231546313825    15.994914619570
         C           -1.823914964981     0.104826182501     0.602456313825    12.000000000000
         C           -2.464793964981    -0.662348817499    -0.561435686175    12.000000000000
         C           -0.907543964981     1.181325182501     0.101466313825    12.000000000000
         C            0.405053035019     1.075183182501    -0.180579686175    12.000000000000
         C            1.187656035019    -0.161958817499    -0.004467686175    12.000000000000
         H           -2.606508964981     0.569003182501     1.212669313825     1.007825032230
         H           -1.273762964981    -0.596680817499     1.231510313825     1.007825032230
         H           -3.177882964981    -1.402250817499    -0.186862686175     1.007825032230
         H           -1.690981964981    -1.184647817499    -1.127707686175     1.007825032230
         H           -2.997677964981     0.013033182501    -1.237270686175     1.007825032230
         H           -1.345546064981     2.107640682501    -0.079666886175     1.007825032230
         H            0.958742035019     1.935582182501    -0.543460686175     1.007825032230
         H            2.961023035019    -0.776141817499    -0.029119686175     1.007825032230

  Basis Set: AUG-CC-PVTZ
    Blend: AUG-CC-PVTZ
  Basis Set: (AUG-CC-PVTZ AUX)
    Blend: AUG-CC-PVTZ-JKFIT
	 Reference Energy          =    -343.8544105008780889 [Eh]
	 Singles Energy            =      -0.0000000000000000 [Eh]
	 Same-Spin Energy          =      -0.3412527103216695 [Eh]
	 Opposite-Spin Energy      =      -1.1005319744493463 [Eh]
	 Correlation Energy        =      -1.4417846847710158 [Eh]
	 Total Energy              =    -345.2961951856490828 [Eh]

	 ================> DF-SCS-MP2 Energies <==================
	-----------------------------------------------------------
	 SCS Same-Spin Scale       =       0.3333333333333333 [-]
	 SCS Opposite-Spin Scale   =       1.2000000000000000 [-]
	 SCS Same-Spin Energy      =      -0.1137509034405565 [Eh]
	 SCS Opposite-Spin Energy  =      -1.3206383693392154 [Eh]
	 SCS Correlation Energy    =      -1.4343892727797720 [Eh]
	 SCS Total Energy          =    -345.2887997736578427 [Eh]
	-----------------------------------------------------------

  Dipole Moment: [D]
     X:    -0.3555      Y:     1.1715      Z:    -0.1363     Total:     1.2318

*** Psi4 exiting successfully. Buy a developer a beer!
