                               Psi4 1.3.2 release

  ==> Input File <==

--------------------------------------------------------------------------
#psi4
#
memory 32 gb

molecule  {
0 1
  O        2.5331200    -0.0725200     0.2027050
  O        0.8230440     1.2494390    -0.4327460
  C       -1.8165730    -0.1662430    -0.5903910
  C       -2.5841030     0.6523970     0.4513900
  C       -0.9018550    -1.1471370     0.0763090
  C        0.4138040    -1.0149060     0.3209930
  C        1.2481493     0.0814817     0.0066753
  H       -2.5251580    -0.7208810    -1.2155130
  H       -1.2597500     0.5079260    -1.2382380
  H       -3.2919980     1.3271690    -0.0377650
  H       -1.8881090     1.2530680     1.0427000
  H       -3.1450010     0.0036210     1.1307380
  H       -1.3667210    -2.0751620     0.4099140
  H        0.9531490    -1.8065430     0.8308200
  H        2.9905100     0.7616870    -0.0298800
units angstrom
no_reorient  #important for SAPT in psi4, default
symmetry c1  #important for SAPT in psi4, default
}

set PROPERTIES_ORIGIN ["COM"]
properties('MP2/aug-cc-pvtz', properties = ['dipole'])
--------------------------------------------------------------------------

    Molecular point group: c1
  Charge       = 0
  Multiplicity = 1
  Basis Set: AUG-CC-PVTZ
    Blend: AUG-CC-PVTZ
  Basis Set: (AUG-CC-PVTZ AUX)
    Blend: AUG-CC-PVTZ-JKFIT

    Orbital Energies [Eh]
    ---------------------

    Doubly Occupied:

       1A    -20.624307     2A    -20.523107     3A    -11.390976
       4A    -11.282073     5A    -11.242916     6A    -11.232143
       7A    -11.221523     8A     -1.469936     9A     -1.294408
      10A     -1.112285    11A     -1.028983    12A     -0.924946
      13A     -0.847577    14A     -0.770336    15A     -0.704776
      16A     -0.673399    17A     -0.655455    18A     -0.632771
      19A     -0.596487    20A     -0.577455    21A     -0.553129
      22A     -0.526372    23A     -0.500574    24A     -0.493390
      25A     -0.457015    26A     -0.432095    27A     -0.381284

  @DF-RHF Final Energy:  -343.83562291342815

   => Energetics <=

    Nuclear Repulsion Energy =            292.4643974903484605
    One-Electron Energy =               -1048.3006043583923201
    Two-Electron Energy =                 412.0005839546157063
    Total Energy =                       -343.8356229134281534
  Basis Set: (AUG-CC-PVTZ AUX)
    Blend: AUG-CC-PVTZ-RI
    Molecular point group: c1

    Geometry (in Angstrom), charge = 0, multiplicity = 1:

       Center              X                  Y                   Z               Mass
    ------------   -----------------  -----------------  -----------------  -----------------
         O            2.529252531827    -0.061894115799     0.198707181566    15.994914619570
         O            0.819176531827     1.260064884201    -0.436743818434    15.994914619570
         C           -1.820440468173    -0.155617115799    -0.594388818434    12.000000000000
         C           -2.587970468173     0.663022884201     0.447392181566    12.000000000000
         C           -0.905722468173    -1.136511115799     0.072311181566    12.000000000000
         C            0.409936531827    -1.004280115799     0.316995181566    12.000000000000
         C            1.244281831827     0.092107584201     0.002677481566    12.000000000000
         H           -2.529025468173    -0.710255115799    -1.219510818434     1.007825032230
         H           -1.263617468173     0.518551884201    -1.242235818434     1.007825032230
         H           -3.295865468173     1.337794884201    -0.041762818434     1.007825032230
         H           -1.891976468173     1.263693884201     1.038702181566     1.007825032230
         H           -3.148868468173     0.014246884201     1.126740181566     1.007825032230
         H           -1.370588468173    -2.064536115799     0.405916181566     1.007825032230
         H            0.949281531827    -1.795917115799     0.826822181566     1.007825032230
         H            2.986642531827     0.772312884201    -0.033877818434     1.007825032230

  Basis Set: AUG-CC-PVTZ
    Blend: AUG-CC-PVTZ
  Basis Set: (AUG-CC-PVTZ AUX)
    Blend: AUG-CC-PVTZ-JKFIT
	 Reference Energy          =    -343.8356229134281534 [Eh]
	 Singles Energy            =      -0.0000000000000000 [Eh]
	 Same-Spin Energy          =      -0.3430228155987363 [Eh]
	 Opposite-Spin Energy      =      -1.1031686152391262 [Eh]
	 Correlation Energy        =      -1.4461914308378625 [Eh]
	 Total Energy              =    -345.2818143442660244 [Eh]

	 ================> DF-SCS-MP2 Energies <==================
	-----------------------------------------------------------
	 SCS Same-Spin Scale       =       0.3333333333333333 [-]
	 SCS Opposite-Spin Scale   =       1.2000000000000000 [-]
	 SCS Same-Spin Energy      =      -0.1143409385329121 [Eh]
	 SCS Opposite-Spin Energy  =      -1.3238023382869515 [Eh]
	 SCS Correlation Energy    =      -1.4381432768198636 [Eh]
	 SCS Total Energy          =    -345.2737661902480113 [Eh]
	-----------------------------------------------------------

  Dipole Moment: [D]
     X:    -0.1879      Y:    -1.6256      Z:     0.5301     Total:     1.7201

*** Psi4 exiting successfully. Buy a developer a beer!
