                               Psi4 1.3.2 release

  ==> Input File <==

--------------------------------------------------------------------------
#psi4
#
memory 32 gb

molecule  {
0 1
  O        2.5331200    -0.0725200     0.2027050
  O        0.8230440     1.2494390    -0.4327460
  C       -1.8165730    -0.1662430    -0.5903910
  C       -2.5841030     0.6523970     0.4513900
  C       -0.9018550    -1.1471370     0.0763090
  C        0.4138040    -1.0149060     0.3209930
  C        1.2159030     0.1700770    -0.0266570
  H       -2.5251580    -0.7208810    -1.2155130
  H       -1.2597500     0.5079260    -1.2382380
  H       -3.2919980     1.3271690    -0.0377650
  H       -1.8881090     1.2530680     1.0427000
  H       -3.1450010     0.0036210     1.1307380
  H       -1.3667210    -2.0751620     0.4099140
  H        1.0028523    -1.8794962     0.8778031
  H        2.9905100     0.7616870    -0.0298800
units angstrom
no_reorient  #important for SAPT in psi4, default
symmetry c1  #important for SAPT in psi4, default
}

set PROPERTIES_ORIGIN ["COM"]
properties('MP2/aug-cc-pvtz', properties = ['dipole'])
--------------------------------------------------------------------------

    Molecular point group: c1
  Charge       = 0
  Multiplicity = 1
  Basis Set: AUG-CC-PVTZ
    Blend: AUG-CC-PVTZ
  Basis Set: (AUG-CC-PVTZ AUX)
    Blend: AUG-CC-PVTZ-JKFIT

    Orbital Energies [Eh]
    ---------------------

    Doubly Occupied:

       1A    -20.611173     2A    -20.545363     3A    -11.389435
       4A    -11.271461     5A    -11.253870     6A    -11.232181
       7A    -11.221431     8A     -1.458241     9A     -1.353037
      10A     -1.104462    11A     -1.017348    12A     -0.908545
      13A     -0.839486    14A     -0.751758    15A     -0.704999
      16A     -0.664105    17A     -0.645101    18A     -0.628141
      19A     -0.600828    20A     -0.577301    21A     -0.565799
      22A     -0.526845    23A     -0.503556    24A     -0.494670
      25A     -0.481813    26A     -0.443221    27A     -0.381515

  @DF-RHF Final Energy:  -343.84928592783564

   => Energetics <=

    Nuclear Repulsion Energy =            292.3470648272129893
    One-Electron Energy =               -1048.0413336938515840
    Two-Electron Energy =                 411.8449829388029571
    Total Energy =                       -343.8492859278356377
  Basis Set: (AUG-CC-PVTZ AUX)
    Blend: AUG-CC-PVTZ-RI
    Molecular point group: c1

    Geometry (in Angstrom), charge = 0, multiplicity = 1:

       Center              X                  Y                   Z               Mass
    ------------   -----------------  -----------------  -----------------  -----------------
         O            2.532619400296    -0.071785125381     0.202231702235    15.994914619570
         O            0.822543400296     1.250173874619    -0.433219297765    15.994914619570
         C           -1.817073599704    -0.165508125381    -0.590864297765    12.000000000000
         C           -2.584603599704     0.653131874619     0.450916702235    12.000000000000
         C           -0.902355599704    -1.146402125381     0.075835702235    12.000000000000
         C            0.413303400296    -1.014171125381     0.320519702235    12.000000000000
         C            1.215402400296     0.170811874619    -0.027130297765    12.000000000000
         H           -2.525658599704    -0.720146125381    -1.215986297765     1.007825032230
         H           -1.260250599704     0.508660874619    -1.238711297765     1.007825032230
         H           -3.292498599704     1.327903874619    -0.038238297765     1.007825032230
         H           -1.888609599704     1.253802874619     1.042226702235     1.007825032230
         H           -3.145501599704     0.004355874619     1.130264702235     1.007825032230
         H           -1.367221599704    -2.074427125381     0.409440702235     1.007825032230
         H            1.002351700296    -1.878761325381     0.877329802235     1.007825032230
         H            2.990009400296     0.762421874619    -0.030353297765     1.007825032230

  Basis Set: AUG-CC-PVTZ
    Blend: AUG-CC-PVTZ
  Basis Set: (AUG-CC-PVTZ AUX)
    Blend: AUG-CC-PVTZ-JKFIT
	 Reference Energy          =    -343.8492859278356377 [Eh]
	 Singles Energy            =      -0.0000000000000000 [Eh]
	 Same-Spin Energy          =      -0.3411666581727674 [Eh]
	 Opposite-Spin Energy      =      -1.1007386453069907 [Eh]
	 Correlation Energy        =      -1.4419053034797582 [Eh]
	 Total Energy              =    -345.2911912313153948 [Eh]

	 ================> DF-SCS-MP2 Energies <==================
	-----------------------------------------------------------
	 SCS Same-Spin Scale       =       0.3333333333333333 [-]
	 SCS Opposite-Spin Scale   =       1.2000000000000000 [-]
	 SCS Same-Spin Energy      =      -0.1137222193909225 [Eh]
	 SCS Opposite-Spin Energy  =      -1.3208863743683887 [Eh]
	 SCS Correlation Energy    =      -1.4346085937593112 [Eh]
	 SCS Total Energy          =    -345.2838945215949593 [Eh]
	-----------------------------------------------------------

  Dipole Moment: [D]
     X:    -0.4293      Y:    -1.0993      Z:     0.3258     Total:     1.2243

*** Psi4 exiting successfully. Buy a developer a beer!
