                               Psi4 1.3.2 release

  ==> Input File <==

--------------------------------------------------------------------------
#psi4
#
memory 32 gb

molecule  {
0 1
  O        2.5331200    -0.0725200     0.2027050
  O        0.8230440     1.2494390    -0.4327460
  C       -1.8165730    -0.1662430    -0.5903910
  C       -2.5841030     0.6523970     0.4513900
  C       -0.9016991    -1.1576839     0.0814519
  C        0.4138040    -1.0149060     0.3209930
  C        1.2159030     0.1700770    -0.0266570
  H       -2.5251580    -0.7208810    -1.2155130
  H       -1.2597500     0.5079260    -1.2382380
  H       -3.2919980     1.3271690    -0.0377650
  H       -1.8881090     1.2530680     1.0427000
  H       -3.1450010     0.0036210     1.1307380
  H       -1.3667210    -2.0751620     0.4099140
  H        0.9451479    -1.8115770     0.8313799
  H        2.9905100     0.7616870    -0.0298800
units angstrom
no_reorient  #important for SAPT in psi4, default
symmetry c1  #important for SAPT in psi4, default
}

set PROPERTIES_ORIGIN ["COM"]
properties('MP2/aug-cc-pvtz', properties = ['dipole'])
--------------------------------------------------------------------------

    Molecular point group: c1
  Charge       = 0
  Multiplicity = 1
  Basis Set: AUG-CC-PVTZ
    Blend: AUG-CC-PVTZ
  Basis Set: (AUG-CC-PVTZ AUX)
    Blend: AUG-CC-PVTZ-JKFIT

    Orbital Energies [Eh]
    ---------------------

    Doubly Occupied:

       1A    -20.611527     2A    -20.544912     3A    -11.388883
       4A    -11.270270     5A    -11.243292     6A    -11.231746
       7A    -11.220774     8A     -1.458317     9A     -1.352830
      10A     -1.104489    11A     -1.019189    12A     -0.908926
      13A     -0.839638    14A     -0.753732    15A     -0.707926
      16A     -0.673909    17A     -0.647324    18A     -0.628071
      19A     -0.600814    20A     -0.582926    21A     -0.568239
      22A     -0.526629    23A     -0.503218    24A     -0.494605
      25A     -0.481718    26A     -0.444940    27A     -0.381328

  @DF-RHF Final Energy:  -343.85661666244965

   => Energetics <=

    Nuclear Repulsion Energy =            292.6750814455007230
    One-Electron Energy =               -1048.6830510282838986
    Two-Electron Energy =                 412.1513529203335224
    Total Energy =                       -343.8566166624496532
  Basis Set: (AUG-CC-PVTZ AUX)
    Blend: AUG-CC-PVTZ-RI
    Molecular point group: c1

    Geometry (in Angstrom), charge = 0, multiplicity = 1:

       Center              X                  Y                   Z               Mass
    ------------   -----------------  -----------------  -----------------  -----------------
         O            2.533181956738    -0.071204308600     0.202082497093    15.994914619570
         O            0.823105956738     1.250754691400    -0.433368502907    15.994914619570
         C           -1.816511043262    -0.164927308600    -0.591013502907    12.000000000000
         C           -2.584041043262     0.653712691400     0.450767497093    12.000000000000
         C           -0.901637143262    -1.156368208600     0.080829397093    12.000000000000
         C            0.413865956738    -1.013590308600     0.320370497093    12.000000000000
         C            1.215964956738     0.171392691400    -0.027279502907    12.000000000000
         H           -2.525096043262    -0.719565308600    -1.216135502907     1.007825032230
         H           -1.259688043262     0.509241691400    -1.238860502907     1.007825032230
         H           -3.291936043262     1.328484691400    -0.038387502907     1.007825032230
         H           -1.888047043262     1.254383691400     1.042077497093     1.007825032230
         H           -3.144939043262     0.004936691400     1.130115497093     1.007825032230
         H           -1.366659043262    -2.073846308600     0.409291497093     1.007825032230
         H            0.945209856738    -1.810261308600     0.830757397093     1.007825032230
         H            2.990571956738     0.763002691400    -0.030502502907     1.007825032230

  Basis Set: AUG-CC-PVTZ
    Blend: AUG-CC-PVTZ
  Basis Set: (AUG-CC-PVTZ AUX)
    Blend: AUG-CC-PVTZ-JKFIT
	 Reference Energy          =    -343.8566166624496532 [Eh]
	 Singles Energy            =      -0.0000000000000000 [Eh]
	 Same-Spin Energy          =      -0.3408349051622624 [Eh]
	 Opposite-Spin Energy      =      -1.0998325092924708 [Eh]
	 Correlation Energy        =      -1.4406674144547331 [Eh]
	 Total Energy              =    -345.2972840769043614 [Eh]

	 ================> DF-SCS-MP2 Energies <==================
	-----------------------------------------------------------
	 SCS Same-Spin Scale       =       0.3333333333333333 [-]
	 SCS Opposite-Spin Scale   =       1.2000000000000000 [-]
	 SCS Same-Spin Energy      =      -0.1136116350540875 [Eh]
	 SCS Opposite-Spin Energy  =      -1.3197990111509650 [Eh]
	 SCS Correlation Energy    =      -1.4334106462050524 [Eh]
	 SCS Total Energy          =    -345.2900273086547145 [Eh]
	-----------------------------------------------------------

  Dipole Moment: [D]
     X:    -0.4114      Y:    -1.1307      Z:     0.3381     Total:     1.2498

*** Psi4 exiting successfully. Buy a developer a beer!
