                               Psi4 1.3.2 release

  ==> Input File <==

--------------------------------------------------------------------------
#psi4
#
memory 32 gb

molecule  {
0 1
  O        2.5331200    -0.0725200     0.2027050
  O        0.8230440     1.2494390    -0.4327460
  C       -1.8165730    -0.1662430    -0.5903910
  C       -2.5841030     0.6523970     0.4513900
  C       -0.9018550    -1.1471370     0.0763090
  C        0.4138040    -1.0149060     0.3209930
  C        1.2159030     0.1700770    -0.0266570
  H       -2.5251580    -0.7208810    -1.2155130
  H       -1.2597500     0.5079260    -1.2382380
  H       -3.2919980     1.3271690    -0.0377650
  H       -1.8881090     1.2530680     1.0427000
  H       -3.1450010     0.0036210     1.1307380
  H       -1.2814433    -1.9049197     0.3487155
  H        0.9531490    -1.8065430     0.8308200
  H        2.9905100     0.7616870    -0.0298800
units angstrom
no_reorient  #important for SAPT in psi4, default
symmetry c1  #important for SAPT in psi4, default
}

set PROPERTIES_ORIGIN ["COM"]
properties('MP2/aug-cc-pvtz', properties = ['dipole'])
--------------------------------------------------------------------------

    Molecular point group: c1
  Charge       = 0
  Multiplicity = 1
  Basis Set: AUG-CC-PVTZ
    Blend: AUG-CC-PVTZ
  Basis Set: (AUG-CC-PVTZ AUX)
    Blend: AUG-CC-PVTZ-JKFIT

    Orbital Energies [Eh]
    ---------------------

    Doubly Occupied:

       1A    -20.610762     2A    -20.544151     3A    -11.387283
       4A    -11.247057     5A    -11.242534     6A    -11.229817
       7A    -11.220878     8A     -1.457565     9A     -1.352056
      10A     -1.114221    11A     -1.019334    12A     -0.922303
      13A     -0.842433    14A     -0.776518    15A     -0.708700
      16A     -0.673978    17A     -0.654738    18A     -0.627827
      19A     -0.603401    20A     -0.585499    21A     -0.576504
      22A     -0.527575    23A     -0.505559    24A     -0.494866
      25A     -0.481158    26A     -0.445796    27A     -0.380542

  @DF-RHF Final Energy:  -343.82227201493811

   => Energetics <=

    Nuclear Repulsion Energy =            293.9330109010056731
    One-Electron Energy =               -1051.0444547905574382
    Two-Electron Energy =                 413.2891718746136576
    Total Energy =                       -343.8222720149381075
  Basis Set: (AUG-CC-PVTZ AUX)
    Blend: AUG-CC-PVTZ-RI
    Molecular point group: c1

    Geometry (in Angstrom), charge = 0, multiplicity = 1:

       Center              X                  Y                   Z               Mass
    ------------   -----------------  -----------------  -----------------  -----------------
         O            2.532261060463    -0.074234826141     0.203321412151    15.994914619570
         O            0.822185060463     1.247724173859    -0.432129587849    15.994914619570
         C           -1.817431939537    -0.167957826141    -0.589774587849    12.000000000000
         C           -2.584961939537     0.650682173859     0.452006412151    12.000000000000
         C           -0.902713939537    -1.148851826141     0.076925412151    12.000000000000
         C            0.412945060463    -1.016620826141     0.321609412151    12.000000000000
         C            1.215044060463     0.168362173859    -0.026040587849    12.000000000000
         H           -2.526016939537    -0.722595826141    -1.214896587849     1.007825032230
         H           -1.260608939537     0.506211173859    -1.237621587849     1.007825032230
         H           -3.292856939537     1.325454173859    -0.037148587849     1.007825032230
         H           -1.888967939537     1.251353173859     1.043316412151     1.007825032230
         H           -3.145859939537     0.001906173859     1.131354412151     1.007825032230
         H           -1.282302239537    -1.906634526141     0.349331912151     1.007825032230
         H            0.952290060463    -1.808257826141     0.831436412151     1.007825032230
         H            2.989651060463     0.759972173859    -0.029263587849     1.007825032230

  Basis Set: AUG-CC-PVTZ
    Blend: AUG-CC-PVTZ
  Basis Set: (AUG-CC-PVTZ AUX)
    Blend: AUG-CC-PVTZ-JKFIT
	 Reference Energy          =    -343.8222720149381075 [Eh]
	 Singles Energy            =      -0.0000000000000000 [Eh]
	 Same-Spin Energy          =      -0.3407735702580313 [Eh]
	 Opposite-Spin Energy      =      -1.0995060872732936 [Eh]
	 Correlation Energy        =      -1.4402796575313248 [Eh]
	 Total Energy              =    -345.2625516724694421 [Eh]

	 ================> DF-SCS-MP2 Energies <==================
	-----------------------------------------------------------
	 SCS Same-Spin Scale       =       0.3333333333333333 [-]
	 SCS Opposite-Spin Scale   =       1.2000000000000000 [-]
	 SCS Same-Spin Energy      =      -0.1135911900860104 [Eh]
	 SCS Opposite-Spin Energy  =      -1.3194073047279522 [Eh]
	 SCS Correlation Energy    =      -1.4329984948139627 [Eh]
	 SCS Total Energy          =    -345.2552705097520516 [Eh]
	-----------------------------------------------------------

  Dipole Moment: [D]
     X:    -0.4237      Y:    -1.1681      Z:     0.3571     Total:     1.2929

*** Psi4 exiting successfully. Buy a developer a beer!
