                               Psi4 1.4a3.dev225

  ==> Input File <==

--------------------------------------------------------------------------
#psi4
#
memory 32 gb

molecule  {
0 1
  O        2.6043210     0.0828630    -0.1445960
  O        0.8461570    -1.2916990     0.2386850
  C       -1.7394130     0.0979440     0.6095950
  C       -2.3802920    -0.6692310    -0.5542970
  C       -0.8230420     1.1744430     0.1086050
  C        0.4895550     1.0683010    -0.1734410
  C        1.2895611    -0.1229698    -0.0069707
  H       -2.5220070     0.5621210     1.2198080
  H       -1.1892610    -0.6035630     1.2386490
  H       -3.0933810    -1.4091330    -0.1797240
  H       -1.6064800    -1.1915300    -1.1205690
  H       -2.9131760     0.0061510    -1.2301320
  H       -1.2820910     2.1452700    -0.0812320
  H        1.0432440     1.9287000    -0.5363220
  H        3.0455250    -0.7830240    -0.0219810
units angstrom
no_reorient  #important for SAPT in psi4, default
symmetry c1  #important for SAPT in psi4, default
}

set PROPERTIES_ORIGIN ["COM"]
properties('MP2/aug-cc-pvtz', properties = ['dipole'])
--------------------------------------------------------------------------

    Molecular point group: c1
  Charge       = 0
  Multiplicity = 1
  Basis Set: AUG-CC-PVTZ
    Blend: AUG-CC-PVTZ
  Basis Set: (AUG-CC-PVTZ AUX)
    Blend: AUG-CC-PVTZ-JKFIT

    Orbital Energies [Eh]
    ---------------------

    Doubly Occupied:

       1A    -20.619039     2A    -20.534806     3A    -11.391887
       4A    -11.277013     5A    -11.244080     6A    -11.232290
       7A    -11.218967     8A     -1.458905     9A     -1.323142
      10A     -1.107930    11A     -1.022070    12A     -0.915943
      13A     -0.843242    14A     -0.759096    15A     -0.705417
      16A     -0.673358    17A     -0.649273    18A     -0.627403
      19A     -0.596413    20A     -0.577292    21A     -0.563226
      22A     -0.525783    23A     -0.500813    24A     -0.493685
      25A     -0.467653    26A     -0.440412    27A     -0.381354

  @DF-RHF Final Energy:  -343.84783046279534

   => Energetics <=

    Nuclear Repulsion Energy =            293.5245500627347610
    One-Electron Energy =               -1050.4437780614744042
    Two-Electron Energy =                 413.0713975359442998
    Total Energy =                       -343.8478304627953435
  Basis Set: (AUG-CC-PVTZ AUX)
    Blend: AUG-CC-PVTZ-RI
    Molecular point group: c1

    Geometry (in Angstrom), charge = 0, multiplicity = 1:

       Center              X                  Y                   Z               Mass
    ------------   -----------------  -----------------  -----------------  -----------------
         O            2.517943762142     0.083795160029    -0.150490615360    15.994914619570
         O            0.759779762142    -1.290766839971     0.232790384640    15.994914619570
         C           -1.825790237858     0.098876160029     0.603700384640    12.000000000000
         C           -2.466669237858    -0.668298839971    -0.560191615360    12.000000000000
         C           -0.909419237858     1.175375160029     0.102710384640    12.000000000000
         C            0.403177762142     1.069233160029    -0.179335615360    12.000000000000
         C            1.203183862142    -0.122037639971    -0.012865315360    12.000000000000
         H           -2.608384237858     0.563053160029     1.213913384640     1.007825032230
         H           -1.275638237858    -0.602630839971     1.232754384640     1.007825032230
         H           -3.179758237858    -1.408200839971    -0.185618615360     1.007825032230
         H           -1.692857237858    -1.190597839971    -1.126463615360     1.007825032230
         H           -2.999553237858     0.007083160029    -1.236026615360     1.007825032230
         H           -1.368468237858     2.146202160029    -0.087126615360     1.007825032230
         H            0.956866762142     1.929632160029    -0.542216615360     1.007825032230
         H            2.959147762142    -0.782091839971    -0.027875615360     1.007825032230

  Basis Set: AUG-CC-PVTZ
    Blend: AUG-CC-PVTZ
  Basis Set: (AUG-CC-PVTZ AUX)
    Blend: AUG-CC-PVTZ-JKFIT
	 Reference Energy          =    -343.8478304627953435 [Eh]
	 Singles Energy            =      -0.0000000000000000 [Eh]
	 Same-Spin Energy          =      -0.3423419038727157 [Eh]
	 Opposite-Spin Energy      =      -1.1023691771625554 [Eh]
	 Correlation Energy        =      -1.4447110810352712 [Eh]
	 Total Energy              =    -345.2925415438306231 [Eh]

	 ================> DF-SCS-MP2 Energies <==================
	-----------------------------------------------------------
	 SCS Same-Spin Scale       =       0.3333333333333333 [-]
	 SCS Opposite-Spin Scale   =       1.2000000000000000 [-]
	 SCS Same-Spin Energy      =      -0.1141139679575719 [Eh]
	 SCS Opposite-Spin Energy  =      -1.3228430125950665 [Eh]
	 SCS Correlation Energy    =      -1.4369569805526383 [Eh]
	 SCS Total Energy          =    -345.2847874433479660 [Eh]
	-----------------------------------------------------------

  Dipole Moment: [D]
     X:    -0.2156      Y:     1.4179      Z:    -0.1861     Total:     1.4463

*** Psi4 exiting successfully. Buy a developer a beer!
