                               Psi4 1.3.2 release

  ==> Input File <==

--------------------------------------------------------------------------
#psi4
#
memory 32 gb

molecule  {
0 1
  O        2.5331200    -0.0725200     0.2027050
  O        0.8230440     1.2494390    -0.4327460
  C       -1.8165730    -0.1662430    -0.5903910
  C       -2.5841030     0.6523970     0.4513900
  C       -0.9014766    -1.1048569     0.0559276
  C        0.4138040    -1.0149060     0.3209930
  C        1.2159030     0.1700770    -0.0266570
  H       -2.5251580    -0.7208810    -1.2155130
  H       -1.2597500     0.5079260    -1.2382380
  H       -3.2919980     1.3271690    -0.0377650
  H       -1.8881090     1.2530680     1.0427000
  H       -3.1450010     0.0036210     1.1307380
  H       -1.3667210    -2.0751620     0.4099140
  H        0.9847366    -1.7858082     0.8281928
  H        2.9905100     0.7616870    -0.0298800
units angstrom
no_reorient  #important for SAPT in psi4, default
symmetry c1  #important for SAPT in psi4, default
}

set PROPERTIES_ORIGIN ["COM"]
properties('MP2/aug-cc-pvtz', properties = ['dipole'])
--------------------------------------------------------------------------

    Molecular point group: c1
  Charge       = 0
  Multiplicity = 1
  Basis Set: AUG-CC-PVTZ
    Blend: AUG-CC-PVTZ
  Basis Set: (AUG-CC-PVTZ AUX)
    Blend: AUG-CC-PVTZ-JKFIT

    Orbital Energies [Eh]
    ---------------------

    Doubly Occupied:

       1A    -20.610358     2A    -20.543107     3A    -11.385619
       4A    -11.273696     5A    -11.243252     6A    -11.230844
       7A    -11.222819     8A     -1.457153     9A     -1.351573
      10A     -1.110214    11A     -1.022150    12A     -0.909620
      13A     -0.841245    14A     -0.747742    15A     -0.707580
      16A     -0.674626    17A     -0.646804    18A     -0.627536
      19A     -0.603704    20A     -0.585105    21A     -0.558280
      22A     -0.531933    23A     -0.508445    24A     -0.496691
      25A     -0.481529    26A     -0.440894    27A     -0.380138

  @DF-RHF Final Energy:  -343.85335698526211

   => Energetics <=

    Nuclear Repulsion Energy =            293.3935664537453931
    One-Electron Energy =               -1050.1085334297026748
    Two-Electron Energy =                 412.8616099906951717
    Total Energy =                       -343.8533569852621099
  Basis Set: (AUG-CC-PVTZ AUX)
    Blend: AUG-CC-PVTZ-RI
    Molecular point group: c1

    Geometry (in Angstrom), charge = 0, multiplicity = 1:

       Center              X                  Y                   Z               Mass
    ------------   -----------------  -----------------  -----------------  -----------------
         O            2.532756494977    -0.077799795036     0.205175911623    15.994914619570
         O            0.822680494977     1.244159204964    -0.430275088377    15.994914619570
         C           -1.816936505023    -0.171522795036    -0.587920088377    12.000000000000
         C           -2.584466505023     0.647117204964     0.453860911623    12.000000000000
         C           -0.901840105023    -1.110136695036     0.058398511623    12.000000000000
         C            0.413440494977    -1.020185795036     0.323463911623    12.000000000000
         C            1.215539494977     0.164797204964    -0.024186088377    12.000000000000
         H           -2.525521505023    -0.726160795036    -1.213042088377     1.007825032230
         H           -1.260113505023     0.502646204964    -1.235767088377     1.007825032230
         H           -3.292361505023     1.321889204964    -0.035294088377     1.007825032230
         H           -1.888472505023     1.247788204964     1.045170911623     1.007825032230
         H           -3.145364505023    -0.001658795036     1.133208911623     1.007825032230
         H           -1.367084505023    -2.080441795036     0.412384911623     1.007825032230
         H            0.984373094977    -1.791087995036     0.830663711623     1.007825032230
         H            2.990146494977     0.756407204964    -0.027409088377     1.007825032230

  Basis Set: AUG-CC-PVTZ
    Blend: AUG-CC-PVTZ
  Basis Set: (AUG-CC-PVTZ AUX)
    Blend: AUG-CC-PVTZ-JKFIT
	 Reference Energy          =    -343.8533569852621099 [Eh]
	 Singles Energy            =      -0.0000000000000000 [Eh]
	 Same-Spin Energy          =      -0.3414117849036743 [Eh]
	 Opposite-Spin Energy      =      -1.1002865277546872 [Eh]
	 Correlation Energy        =      -1.4416983126583616 [Eh]
	 Total Energy              =    -345.2950552979204986 [Eh]

	 ================> DF-SCS-MP2 Energies <==================
	-----------------------------------------------------------
	 SCS Same-Spin Scale       =       0.3333333333333333 [-]
	 SCS Opposite-Spin Scale   =       1.2000000000000000 [-]
	 SCS Same-Spin Energy      =      -0.1138039283012248 [Eh]
	 SCS Opposite-Spin Energy  =      -1.3203438333056245 [Eh]
	 SCS Correlation Energy    =      -1.4341477616068494 [Eh]
	 SCS Total Energy          =    -345.2875047468689331 [Eh]
	-----------------------------------------------------------

  Dipole Moment: [D]
     X:    -0.4771      Y:    -1.0816      Z:     0.3173     Total:     1.2240

*** Psi4 exiting successfully. Buy a developer a beer!
