                               Psi4 1.3.2 release

  ==> Input File <==

--------------------------------------------------------------------------
#psi4
#
memory 32 gb

molecule  {
0 1
  O        2.5331200    -0.0725200     0.2027050
  O        0.8230440     1.2494390    -0.4327460
  C       -1.8165730    -0.1662430    -0.5903910
  C       -2.5841030     0.6523970     0.4513900
  C       -0.9018662    -1.1260139     0.0660795
  C        0.4138040    -1.0149060     0.3209930
  C        1.2159030     0.1700770    -0.0266570
  H       -2.5251580    -0.7208810    -1.2155130
  H       -1.2597500     0.5079260    -1.2382380
  H       -3.2919980     1.3271690    -0.0377650
  H       -1.8881090     1.2530680     1.0427000
  H       -3.1450010     0.0036210     1.1307380
  H       -1.3667210    -2.0751620     0.4099140
  H        0.9690273    -1.7962946     0.8295838
  H        2.9905100     0.7616870    -0.0298800
units angstrom
no_reorient  #important for SAPT in psi4, default
symmetry c1  #important for SAPT in psi4, default
}

set PROPERTIES_ORIGIN ["COM"]
properties('MP2/aug-cc-pvtz', properties = ['dipole'])
--------------------------------------------------------------------------

    Molecular point group: c1
  Charge       = 0
  Multiplicity = 1
  Basis Set: AUG-CC-PVTZ
    Blend: AUG-CC-PVTZ
  Basis Set: (AUG-CC-PVTZ AUX)
    Blend: AUG-CC-PVTZ-JKFIT

    Orbital Energies [Eh]
    ---------------------

    Doubly Occupied:

       1A    -20.610805     2A    -20.543806     3A    -11.386901
       4A    -11.272256     5A    -11.243191     6A    -11.231194
       7A    -11.221980     8A     -1.457595     9A     -1.352051
      10A     -1.107779    11A     -1.020932    12A     -0.909158
      13A     -0.840663    14A     -0.749968    15A     -0.707711
      16A     -0.674190    17A     -0.646935    18A     -0.627699
      19A     -0.602276    20A     -0.584397    21A     -0.562215
      22A     -0.529812    23A     -0.506038    24A     -0.496592
      25A     -0.481667    26A     -0.442663    27A     -0.380580

  @DF-RHF Final Energy:  -343.85571231606787

   => Energetics <=

    Nuclear Repulsion Energy =            293.1025606710066995
    One-Electron Energy =               -1049.5344375966301413
    Two-Electron Energy =                 412.5761646095555761
    Total Energy =                       -343.8557123160678657
  Basis Set: (AUG-CC-PVTZ AUX)
    Blend: AUG-CC-PVTZ-RI
    Molecular point group: c1

    Geometry (in Angstrom), charge = 0, multiplicity = 1:

       Center              X                  Y                   Z               Mass
    ------------   -----------------  -----------------  -----------------  -----------------
         O            2.532961461772    -0.075156656256     0.203944310499    15.994914619570
         O            0.822885461772     1.246802343744    -0.431506689501    15.994914619570
         C           -1.816731538228    -0.168879656256    -0.589151689501    12.000000000000
         C           -2.584261538228     0.649760343744     0.452629310499    12.000000000000
         C           -0.902024738228    -1.128650556256     0.067318810499    12.000000000000
         C            0.413645461772    -1.017542656256     0.322232310499    12.000000000000
         C            1.215744461772     0.167440343744    -0.025417689501    12.000000000000
         H           -2.525316538228    -0.723517656256    -1.214273689501     1.007825032230
         H           -1.259908538228     0.505289343744    -1.236998689501     1.007825032230
         H           -3.292156538228     1.324532343744    -0.036525689501     1.007825032230
         H           -1.888267538228     1.250431343744     1.043939310499     1.007825032230
         H           -3.145159538228     0.000984343744     1.131977310499     1.007825032230
         H           -1.366879538228    -2.077798656256     0.411153310499     1.007825032230
         H            0.968868761772    -1.798931256256     0.830823110499     1.007825032230
         H            2.990351461772     0.759050343744    -0.028640689501     1.007825032230

  Basis Set: AUG-CC-PVTZ
    Blend: AUG-CC-PVTZ
  Basis Set: (AUG-CC-PVTZ AUX)
    Blend: AUG-CC-PVTZ-JKFIT
	 Reference Energy          =    -343.8557123160678657 [Eh]
	 Singles Energy            =      -0.0000000000000000 [Eh]
	 Same-Spin Energy          =      -0.3411505026256521 [Eh]
	 Opposite-Spin Energy      =      -1.1000365736099116 [Eh]
	 Correlation Energy        =      -1.4411870762355636 [Eh]
	 Total Energy              =    -345.2968993923034304 [Eh]

	 ================> DF-SCS-MP2 Energies <==================
	-----------------------------------------------------------
	 SCS Same-Spin Scale       =       0.3333333333333333 [-]
	 SCS Opposite-Spin Scale   =       1.2000000000000000 [-]
	 SCS Same-Spin Energy      =      -0.1137168342085507 [Eh]
	 SCS Opposite-Spin Energy  =      -1.3200438883318939 [Eh]
	 SCS Correlation Energy    =      -1.4337607225404445 [Eh]
	 SCS Total Energy          =    -345.2894730386083211 [Eh]
	-----------------------------------------------------------

  Dipole Moment: [D]
     X:    -0.4518      Y:    -1.1032      Z:     0.3262     Total:     1.2360

*** Psi4 exiting successfully. Buy a developer a beer!
