                               Psi4 1.4a3.dev225

  ==> Input File <==

--------------------------------------------------------------------------
#psi4
#
memory 32 gb

molecule  {
0 1
  O        2.6043210     0.0828630    -0.1445960
  O        0.8461570    -1.2916990     0.2386850
  C       -1.7394130     0.0979440     0.6095950
  C       -2.3802920    -0.6692310    -0.5542970
  C       -0.8230420     1.1744430     0.1086050
  C        0.4895550     1.0683010    -0.1734410
  C        1.2721580    -0.1688410     0.0026710
  H       -2.5220070     0.5621210     1.2198080
  H       -1.1892610    -0.6035630     1.2386490
  H       -3.0933810    -1.4091330    -0.1797240
  H       -1.6064800    -1.1915300    -1.1205690
  H       -2.9131760     0.0061510    -1.2301320
  H       -1.2905098     2.1630746    -0.0847135
  H        1.0432440     1.9287000    -0.5363220
  H        3.0455250    -0.7830240    -0.0219810
units angstrom
no_reorient  #important for SAPT in psi4, default
symmetry c1  #important for SAPT in psi4, default
}

set PROPERTIES_ORIGIN ["COM"]
properties('MP2/aug-cc-pvtz', properties = ['dipole'])
--------------------------------------------------------------------------

    Molecular point group: c1
  Charge       = 0
  Multiplicity = 1
  Basis Set: AUG-CC-PVTZ
    Blend: AUG-CC-PVTZ
  Basis Set: (AUG-CC-PVTZ AUX)
    Blend: AUG-CC-PVTZ-JKFIT

    Orbital Energies [Eh]
    ---------------------

    Doubly Occupied:

       1A    -20.612287     2A    -20.545462     3A    -11.390281
       4A    -11.273947     5A    -11.244319     6A    -11.232355
       7A    -11.219203     8A     -1.455275     9A     -1.351019
      10A     -1.104255    11A     -1.017845    12A     -0.907266
      13A     -0.839278    14A     -0.749111    15A     -0.707598
      16A     -0.674135    17A     -0.645570    18A     -0.626186
      19A     -0.599894    20A     -0.579606    21A     -0.566800
      22A     -0.526275    23A     -0.502166    24A     -0.496088
      25A     -0.479548    26A     -0.444763    27A     -0.380748

  @DF-RHF Final Energy:  -343.85461020373447

   => Energetics <=

    Nuclear Repulsion Energy =            293.6391241385343278
    One-Electron Energy =               -1050.6449069800569305
    Two-Electron Energy =                 413.1511726377881928
    Total Energy =                       -343.8546102037344667
  Basis Set: (AUG-CC-PVTZ AUX)
    Blend: AUG-CC-PVTZ-RI
    Molecular point group: c1

    Geometry (in Angstrom), charge = 0, multiplicity = 1:

       Center              X                  Y                   Z               Mass
    ------------   -----------------  -----------------  -----------------  -----------------
         O            2.520115842105     0.089117474350    -0.151611944025    15.994914619570
         O            0.761951842105    -1.285444525650     0.231669055975    15.994914619570
         C           -1.823618157895     0.104198474350     0.602579055975    12.000000000000
         C           -2.464497157895    -0.662976525650    -0.561312944025    12.000000000000
         C           -0.907247157895     1.180697474350     0.101589055975    12.000000000000
         C            0.405349842105     1.074555474350    -0.180456944025    12.000000000000
         C            1.187952842105    -0.162586525650    -0.004344944025    12.000000000000
         H           -2.606212157895     0.568375474350     1.212792055975     1.007825032230
         H           -1.273466157895    -0.597308525650     1.231633055975     1.007825032230
         H           -3.177586157895    -1.402878525650    -0.186739944025     1.007825032230
         H           -1.690685157895    -1.185275525650    -1.127584944025     1.007825032230
         H           -2.997381157895     0.012405474350    -1.237147944025     1.007825032230
         H           -1.374714957895     2.169329074350    -0.091729444025     1.007825032230
         H            0.959038842105     1.934954474350    -0.543337944025     1.007825032230
         H            2.961319842105    -0.776769525650    -0.028996944025     1.007825032230

  Basis Set: AUG-CC-PVTZ
    Blend: AUG-CC-PVTZ
  Basis Set: (AUG-CC-PVTZ AUX)
    Blend: AUG-CC-PVTZ-JKFIT
	 Reference Energy          =    -343.8546102037344667 [Eh]
	 Singles Energy            =      -0.0000000000000000 [Eh]
	 Same-Spin Energy          =      -0.3413648096168368 [Eh]
	 Opposite-Spin Energy      =      -1.1009385582013040 [Eh]
	 Correlation Energy        =      -1.4423033678181407 [Eh]
	 Total Energy              =    -345.2969135715525795 [Eh]

	 ================> DF-SCS-MP2 Energies <==================
	-----------------------------------------------------------
	 SCS Same-Spin Scale       =       0.3333333333333333 [-]
	 SCS Opposite-Spin Scale   =       1.2000000000000000 [-]
	 SCS Same-Spin Energy      =      -0.1137882698722789 [Eh]
	 SCS Opposite-Spin Energy  =      -1.3211262698415649 [Eh]
	 SCS Correlation Energy    =      -1.4349145397138439 [Eh]
	 SCS Total Energy          =    -345.2895247434482826 [Eh]
	-----------------------------------------------------------

  Dipole Moment: [D]
     X:    -0.3508      Y:     1.1451      Z:    -0.1303     Total:     1.2047

*** Psi4 exiting successfully. Buy a developer a beer!
