                               Psi4 1.3.2 release

  ==> Input File <==

--------------------------------------------------------------------------
#psi4
#
memory 32 gb

molecule  {
0 1
  O        2.5331200    -0.0725200     0.2027050
  O        0.8230440     1.2494390    -0.4327460
  C       -1.8165730    -0.1662430    -0.5903910
  C       -2.5841030     0.6523970     0.4513900
  C       -0.9405439    -1.2048198     0.0399122
  C        0.4138040    -1.0149060     0.3209930
  C        1.2159030     0.1700770    -0.0266570
  H       -2.4996697    -0.7694383    -1.1986902
  H       -1.2597500     0.5079260    -1.2382380
  H       -3.2919980     1.3271690    -0.0377650
  H       -1.8881090     1.2530680     1.0427000
  H       -3.1450010     0.0036210     1.1307380
  H       -1.3667210    -2.0751620     0.4099140
  H        0.9531490    -1.8065430     0.8308200
  H        2.9905100     0.7616870    -0.0298800
units angstrom
no_reorient  #important for SAPT in psi4, default
symmetry c1  #important for SAPT in psi4, default
}

set PROPERTIES_ORIGIN ["COM"]
properties('MP2/aug-cc-pvtz', properties = ['dipole'])
--------------------------------------------------------------------------

    Molecular point group: c1
  Charge       = 0
  Multiplicity = 1
  Basis Set: AUG-CC-PVTZ
    Blend: AUG-CC-PVTZ
  Basis Set: (AUG-CC-PVTZ AUX)
    Blend: AUG-CC-PVTZ-JKFIT

    Orbital Energies [Eh]
    ---------------------

    Doubly Occupied:

       1A    -20.610822     2A    -20.543904     3A    -11.388444
       4A    -11.275104     5A    -11.248289     6A    -11.232467
       7A    -11.222610     8A     -1.457498     9A     -1.351929
      10A     -1.100260    11A     -1.014922    12A     -0.913457
      13A     -0.838291    14A     -0.759688    15A     -0.706315
      16A     -0.670228    17A     -0.647924    18A     -0.627023
      19A     -0.602536    20A     -0.578670    21A     -0.573472
      22A     -0.530944    23A     -0.508283    24A     -0.489584
      25A     -0.480633    26A     -0.447033    27A     -0.369799

  @DF-RHF Final Energy:  -343.84796556790468

   => Energetics <=

    Nuclear Repulsion Energy =            291.8998552395330535
    One-Electron Energy =               -1047.1153843113968378
    Two-Electron Energy =                 411.3675635039591043
    Total Energy =                       -343.8479655679046800
  Basis Set: (AUG-CC-PVTZ AUX)
    Blend: AUG-CC-PVTZ-RI
    Molecular point group: c1

    Geometry (in Angstrom), charge = 0, multiplicity = 1:

       Center              X                  Y                   Z               Mass
    ------------   -----------------  -----------------  -----------------  -----------------
         O            2.537503552391    -0.065112555763     0.206900833286    15.994914619570
         O            0.827427552391     1.256846444237    -0.428550166714    15.994914619570
         C           -1.812189447609    -0.158835555763    -0.586195166714    12.000000000000
         C           -2.579719447609     0.659804444237     0.455585833286    12.000000000000
         C           -0.936160347609    -1.197412355763     0.044108033286    12.000000000000
         C            0.418187552391    -1.007498555763     0.325188833286    12.000000000000
         C            1.220286552391     0.177484444237    -0.022461166714    12.000000000000
         H           -2.495286147609    -0.762030855763    -1.194494366714     1.007825032230
         H           -1.255366447609     0.515333444237    -1.234042166714     1.007825032230
         H           -3.287614447609     1.334576444237    -0.033569166714     1.007825032230
         H           -1.883725447609     1.260475444237     1.046895833286     1.007825032230
         H           -3.140617447609     0.011028444237     1.134933833286     1.007825032230
         H           -1.362337447609    -2.067754555763     0.414109833286     1.007825032230
         H            0.957532552391    -1.799135555763     0.835015833286     1.007825032230
         H            2.994893552391     0.769094444237    -0.025684166714     1.007825032230

  Basis Set: AUG-CC-PVTZ
    Blend: AUG-CC-PVTZ
  Basis Set: (AUG-CC-PVTZ AUX)
    Blend: AUG-CC-PVTZ-JKFIT
	 Reference Energy          =    -343.8479655679046800 [Eh]
	 Singles Energy            =      -0.0000000000000000 [Eh]
	 Same-Spin Energy          =      -0.3414784588884957 [Eh]
	 Opposite-Spin Energy      =      -1.1012928604881991 [Eh]
	 Correlation Energy        =      -1.4427713193766947 [Eh]
	 Total Energy              =    -345.2907368872813549 [Eh]

	 ================> DF-SCS-MP2 Energies <==================
	-----------------------------------------------------------
	 SCS Same-Spin Scale       =       0.3333333333333333 [-]
	 SCS Opposite-Spin Scale   =       1.2000000000000000 [-]
	 SCS Same-Spin Energy      =      -0.1138261529628319 [Eh]
	 SCS Opposite-Spin Energy  =      -1.3215514325858388 [Eh]
	 SCS Correlation Energy    =      -1.4353775855486708 [Eh]
	 SCS Total Energy          =    -345.2833431534533588 [Eh]
	-----------------------------------------------------------

  Dipole Moment: [D]
     X:    -0.4517      Y:    -1.1279      Z:     0.3860     Total:     1.2748

*** Psi4 exiting successfully. Buy a developer a beer!
