                               Psi4 1.3.2 release

  ==> Input File <==

--------------------------------------------------------------------------
#psi4
#
memory 32 gb

molecule  {
0 1
  O        2.5331200    -0.0725200     0.2027050
  O        0.8230440     1.2494390    -0.4327460
  C       -1.8560916    -0.1997527    -0.5834231
  C       -2.5841030     0.6523970     0.4513900
  C       -0.9018550    -1.1471370     0.0763090
  C        0.4138040    -1.0149060     0.3209930
  C        1.2159030     0.1700770    -0.0266570
  H       -2.5251580    -0.7208810    -1.2155130
  H       -1.2597500     0.5079260    -1.2382380
  H       -3.2919980     1.3271690    -0.0377650
  H       -1.8881090     1.2530680     1.0427000
  H       -3.1450010     0.0036210     1.1307380
  H       -1.4000194    -2.0625183     0.3965158
  H        0.9531490    -1.8065430     0.8308200
  H        2.9905100     0.7616870    -0.0298800
units angstrom
no_reorient  #important for SAPT in psi4, default
symmetry c1  #important for SAPT in psi4, default
}

set PROPERTIES_ORIGIN ["COM"]
properties('MP2/aug-cc-pvtz', properties = ['dipole'])
--------------------------------------------------------------------------

    Molecular point group: c1
  Charge       = 0
  Multiplicity = 1
  Basis Set: AUG-CC-PVTZ
    Blend: AUG-CC-PVTZ
  Basis Set: (AUG-CC-PVTZ AUX)
    Blend: AUG-CC-PVTZ-JKFIT

    Orbital Energies [Eh]
    ---------------------

    Doubly Occupied:

       1A    -20.611395     2A    -20.544611     3A    -11.388470
       4A    -11.271351     5A    -11.244662     6A    -11.231119
       7A    -11.221137     8A     -1.458142     9A     -1.352539
      10A     -1.105354    11A     -1.021084    12A     -0.909776
      13A     -0.840198    14A     -0.751200    15A     -0.707979
      16A     -0.676180    17A     -0.647726    18A     -0.628223
      19A     -0.600541    20A     -0.584838    21A     -0.566888
      22A     -0.530207    23A     -0.503518    24A     -0.493820
      25A     -0.479726    26A     -0.440745    27A     -0.381826

  @DF-RHF Final Energy:  -343.85298596584215

   => Energetics <=

    Nuclear Repulsion Energy =            292.5390086729424297
    One-Electron Energy =               -1048.3974745990908559
    Two-Electron Energy =                 412.0054799603063316
    Total Energy =                       -343.8529859658421515
  Basis Set: (AUG-CC-PVTZ AUX)
    Blend: AUG-CC-PVTZ-RI
    Molecular point group: c1

    Geometry (in Angstrom), charge = 0, multiplicity = 1:

       Center              X                  Y                   Z               Mass
    ------------   -----------------  -----------------  -----------------  -----------------
         O            2.538195220831    -0.068628283482     0.202004211364    15.994914619570
         O            0.828119220831     1.253330716518    -0.433446788636    15.994914619570
         C           -1.851016379169    -0.195860983482    -0.584123888636    12.000000000000
         C           -2.579027779169     0.656288716518     0.450689211364    12.000000000000
         C           -0.896779779169    -1.143245283482     0.075608211364    12.000000000000
         C            0.418879220831    -1.011014283482     0.320292211364    12.000000000000
         C            1.220978220831     0.173968716518    -0.027357788636    12.000000000000
         H           -2.520082779169    -0.716989283482    -1.216213788636     1.007825032230
         H           -1.254674779169     0.511817716518    -1.238938788636     1.007825032230
         H           -3.286922779169     1.331060716518    -0.038465788636     1.007825032230
         H           -1.883033779169     1.256959716518     1.041999211364     1.007825032230
         H           -3.139925779169     0.007512716518     1.130037211364     1.007825032230
         H           -1.394944179169    -2.058626583482     0.395815011364     1.007825032230
         H            0.958224220831    -1.802651283482     0.830119211364     1.007825032230
         H            2.995585220831     0.765578716518    -0.030580788636     1.007825032230

  Basis Set: AUG-CC-PVTZ
    Blend: AUG-CC-PVTZ
  Basis Set: (AUG-CC-PVTZ AUX)
    Blend: AUG-CC-PVTZ-JKFIT
	 Reference Energy          =    -343.8529859658421515 [Eh]
	 Singles Energy            =      -0.0000000000000000 [Eh]
	 Same-Spin Energy          =      -0.3410405675960620 [Eh]
	 Opposite-Spin Energy      =      -1.1001861818115592 [Eh]
	 Correlation Energy        =      -1.4412267494076212 [Eh]
	 Total Energy              =    -345.2942127152497847 [Eh]

	 ================> DF-SCS-MP2 Energies <==================
	-----------------------------------------------------------
	 SCS Same-Spin Scale       =       0.3333333333333333 [-]
	 SCS Opposite-Spin Scale   =       1.2000000000000000 [-]
	 SCS Same-Spin Energy      =      -0.1136801891986873 [Eh]
	 SCS Opposite-Spin Energy  =      -1.3202234181738710 [Eh]
	 SCS Correlation Energy    =      -1.4339036073725584 [Eh]
	 SCS Total Energy          =    -345.2868895732146939 [Eh]
	-----------------------------------------------------------

  Dipole Moment: [D]
     X:    -0.4332      Y:    -1.1239      Z:     0.3293     Total:     1.2487

*** Psi4 exiting successfully. Buy a developer a beer!
