                               Psi4 1.3.2 release

  ==> Input File <==

--------------------------------------------------------------------------
#psi4
#
memory 32 gb

molecule  {
0 1
  O        2.5331200    -0.0725200     0.2027050
  O        0.8230440     1.2494390    -0.4327460
  C       -1.8065173    -0.1580507    -0.5920064
  C       -2.5841030     0.6523970     0.4513900
  C       -0.9018550    -1.1471370     0.0763090
  C        0.4138040    -1.0149060     0.3209930
  C        1.2159030     0.1700770    -0.0266570
  H       -2.5251580    -0.7208810    -1.2155130
  H       -1.2597500     0.5079260    -1.2382380
  H       -3.2919980     1.3271690    -0.0377650
  H       -1.8881090     1.2530680     1.0427000
  H       -3.1450010     0.0036210     1.1307380
  H       -1.3583063    -2.0781468     0.4132007
  H        0.9531490    -1.8065430     0.8308200
  H        2.9905100     0.7616870    -0.0298800
units angstrom
no_reorient  #important for SAPT in psi4, default
symmetry c1  #important for SAPT in psi4, default
}

set PROPERTIES_ORIGIN ["COM"]
properties('MP2/aug-cc-pvtz', properties = ['dipole'])
--------------------------------------------------------------------------

    Molecular point group: c1
  Charge       = 0
  Multiplicity = 1
  Basis Set: AUG-CC-PVTZ
    Blend: AUG-CC-PVTZ
  Basis Set: (AUG-CC-PVTZ AUX)
    Blend: AUG-CC-PVTZ-JKFIT

    Orbital Energies [Eh]
    ---------------------

    Doubly Occupied:

       1A    -20.611258     2A    -20.544529     3A    -11.388159
       4A    -11.270858     5A    -11.242892     6A    -11.231805
       7A    -11.221264     8A     -1.458059     9A     -1.352579
      10A     -1.105634    11A     -1.019441    12A     -0.908768
      13A     -0.840145    14A     -0.752805    15A     -0.707840
      16A     -0.673599    17A     -0.646925    18A     -0.627864
      19A     -0.601681    20A     -0.582978    21A     -0.566175
      22A     -0.527418    23A     -0.505667    24A     -0.494071
      25A     -0.481996    26A     -0.444862    27A     -0.380828

  @DF-RHF Final Energy:  -343.85648364793980

   => Energetics <=

    Nuclear Repulsion Energy =            292.8868662904189364
    One-Electron Energy =               -1049.1065006032108613
    Two-Electron Energy =                 412.3631506648520713
    Total Energy =                       -343.8564836479397968
  Basis Set: (AUG-CC-PVTZ AUX)
    Blend: AUG-CC-PVTZ-RI
    Molecular point group: c1

    Geometry (in Angstrom), charge = 0, multiplicity = 1:

       Center              X                  Y                   Z               Mass
    ------------   -----------------  -----------------  -----------------  -----------------
         O            2.531829247415    -0.073472475761     0.202865601143    15.994914619570
         O            0.821753247415     1.248486524239    -0.432585398857    15.994914619570
         C           -1.807808052585    -0.159003175761    -0.591845798857    12.000000000000
         C           -2.585393752585     0.651444524239     0.451550601143    12.000000000000
         C           -0.903145752585    -1.148089475761     0.076469601143    12.000000000000
         C            0.412513247415    -1.015858475761     0.321153601143    12.000000000000
         C            1.214612247415     0.169124524239    -0.026496398857    12.000000000000
         H           -2.526448752585    -0.721833475761    -1.215352398857     1.007825032230
         H           -1.261040752585     0.506973524239    -1.238077398857     1.007825032230
         H           -3.293288752585     1.326216524239    -0.037604398857     1.007825032230
         H           -1.889399752585     1.252115524239     1.042860601143     1.007825032230
         H           -3.146291752585     0.002668524239     1.130898601143     1.007825032230
         H           -1.359597052585    -2.079099275761     0.413361301143     1.007825032230
         H            0.951858247415    -1.807495475761     0.830980601143     1.007825032230
         H            2.989219247415     0.760734524239    -0.029719398857     1.007825032230

  Basis Set: AUG-CC-PVTZ
    Blend: AUG-CC-PVTZ
  Basis Set: (AUG-CC-PVTZ AUX)
    Blend: AUG-CC-PVTZ-JKFIT
	 Reference Energy          =    -343.8564836479397968 [Eh]
	 Singles Energy            =      -0.0000000000000000 [Eh]
	 Same-Spin Energy          =      -0.3409256876310872 [Eh]
	 Opposite-Spin Energy      =      -1.0998605567631403 [Eh]
	 Correlation Energy        =      -1.4407862443942276 [Eh]
	 Total Energy              =    -345.2972698923340431 [Eh]

	 ================> DF-SCS-MP2 Energies <==================
	-----------------------------------------------------------
	 SCS Same-Spin Scale       =       0.3333333333333333 [-]
	 SCS Opposite-Spin Scale   =       1.2000000000000000 [-]
	 SCS Same-Spin Energy      =      -0.1136418958770291 [Eh]
	 SCS Opposite-Spin Energy  =      -1.3198326681157684 [Eh]
	 SCS Correlation Energy    =      -1.4334745639927975 [Eh]
	 SCS Total Energy          =    -345.2899582119325714 [Eh]
	-----------------------------------------------------------

  Dipole Moment: [D]
     X:    -0.4230      Y:    -1.1213      Z:     0.3370     Total:     1.2450

*** Psi4 exiting successfully. Buy a developer a beer!
