                               Psi4 1.3.2 release

  ==> Input File <==

--------------------------------------------------------------------------
#psi4
#
memory 32 gb

molecule  {
0 1
  O        2.5331200    -0.0725200     0.2027050
  O        0.8230440     1.2494390    -0.4327460
  C       -1.7963927    -0.1499338    -0.5935708
  C       -2.5841030     0.6523970     0.4513900
  C       -0.9018550    -1.1471370     0.0763090
  C        0.4138040    -1.0149060     0.3209930
  C        1.2159030     0.1700770    -0.0266570
  H       -2.5251580    -0.7208810    -1.2155130
  H       -1.2597500     0.5079260    -1.2382380
  H       -3.2919980     1.3271690    -0.0377650
  H       -1.8881090     1.2530680     1.0427000
  H       -3.1450010     0.0036210     1.1307380
  H       -1.3498569    -2.0810608     0.4164617
  H        0.9531490    -1.8065430     0.8308200
  H        2.9905100     0.7616870    -0.0298800
units angstrom
no_reorient  #important for SAPT in psi4, default
symmetry c1  #important for SAPT in psi4, default
}

set PROPERTIES_ORIGIN ["COM"]
properties('MP2/aug-cc-pvtz', properties = ['dipole'])
--------------------------------------------------------------------------

    Molecular point group: c1
  Charge       = 0
  Multiplicity = 1
  Basis Set: AUG-CC-PVTZ
    Blend: AUG-CC-PVTZ
  Basis Set: (AUG-CC-PVTZ AUX)
    Blend: AUG-CC-PVTZ-JKFIT

    Orbital Energies [Eh]
    ---------------------

    Doubly Occupied:

       1A    -20.611238     2A    -20.544527     3A    -11.388107
       4A    -11.270833     5A    -11.242559     6A    -11.232102
       7A    -11.221393     8A     -1.458053     9A     -1.352601
      10A     -1.105752    11A     -1.019130    12A     -0.908610
      13A     -0.840371    14A     -0.753213    15A     -0.707838
      16A     -0.673357    17A     -0.646622    18A     -0.627798
      19A     -0.602253    20A     -0.582482    21A     -0.566095
      22A     -0.527355    23A     -0.507397    24A     -0.492306
      25A     -0.482185    26A     -0.445417    27A     -0.380570

  @DF-RHF Final Energy:  -343.85584292773257

   => Energetics <=

    Nuclear Repulsion Energy =            292.9579685442815844
    One-Electron Energy =               -1049.2472950953756481
    Two-Electron Energy =                 412.4334836233614965
    Total Energy =                       -343.8558429277325672
  Basis Set: (AUG-CC-PVTZ AUX)
    Blend: AUG-CC-PVTZ-RI
    Molecular point group: c1

    Geometry (in Angstrom), charge = 0, multiplicity = 1:

       Center              X                  Y                   Z               Mass
    ------------   -----------------  -----------------  -----------------  -----------------
         O            2.530529821530    -0.074416640719     0.203020382817    15.994914619570
         O            0.820453821530     1.247542359281    -0.432430617183    15.994914619570
         C           -1.798982878470    -0.151830440719    -0.593255417183    12.000000000000
         C           -2.586693178470     0.650500359281     0.451705382817    12.000000000000
         C           -0.904445178470    -1.149033640719     0.076624382817    12.000000000000
         C            0.411213821530    -1.016802640719     0.321308382817    12.000000000000
         C            1.213312821530     0.168180359281    -0.026341617183    12.000000000000
         H           -2.527748178470    -0.722777640719    -1.215197617183     1.007825032230
         H           -1.262340178470     0.506029359281    -1.237922617183     1.007825032230
         H           -3.294588178470     1.325272359281    -0.037449617183     1.007825032230
         H           -1.890699178470     1.251171359281     1.043015382817     1.007825032230
         H           -3.147591178470     0.001724359281     1.131053382817     1.007825032230
         H           -1.352447078470    -2.082957440719     0.416777082817     1.007825032230
         H            0.950558821530    -1.808439640719     0.831135382817     1.007825032230
         H            2.987919821530     0.759790359281    -0.029564617183     1.007825032230

  Basis Set: AUG-CC-PVTZ
    Blend: AUG-CC-PVTZ
  Basis Set: (AUG-CC-PVTZ AUX)
    Blend: AUG-CC-PVTZ-JKFIT
	 Reference Energy          =    -343.8558429277325672 [Eh]
	 Singles Energy            =      -0.0000000000000000 [Eh]
	 Same-Spin Energy          =      -0.3409311502578796 [Eh]
	 Opposite-Spin Energy      =      -1.0998684677683903 [Eh]
	 Correlation Energy        =      -1.4407996180262699 [Eh]
	 Total Energy              =    -345.2966425457588571 [Eh]

	 ================> DF-SCS-MP2 Energies <==================
	-----------------------------------------------------------
	 SCS Same-Spin Scale       =       0.3333333333333333 [-]
	 SCS Opposite-Spin Scale   =       1.2000000000000000 [-]
	 SCS Same-Spin Energy      =      -0.1136437167526265 [Eh]
	 SCS Opposite-Spin Energy  =      -1.3198421613220683 [Eh]
	 SCS Correlation Energy    =      -1.4334858780746949 [Eh]
	 SCS Total Energy          =    -345.2893288058072585 [Eh]
	-----------------------------------------------------------

  Dipole Moment: [D]
     X:    -0.4206      Y:    -1.1204      Z:     0.3404     Total:     1.2442

*** Psi4 exiting successfully. Buy a developer a beer!
