                               Psi4 1.3.2 release

  ==> Input File <==

--------------------------------------------------------------------------
#psi4
#
memory 32 gb

molecule  {
0 1
  S        0.7637890    -0.7221230    -0.3122950
  O        0.7428910    -1.8740890     0.5977740
  O        1.1390870    -0.8496890    -1.7151490
  N        1.7366500     0.4402300     0.3626080
  N       -1.8489830    -0.7837230     0.4594430
  N       -1.3755504     0.9838868    -0.8424350
  C       -0.8811970    -0.0860610    -0.1982810
  C        1.4606880     0.7318840     1.7727460
  C        1.9603790     1.6404280    -0.4583390
  C       -2.9965950    -0.0375860     0.3980590
  C       -2.6480900     1.1053220    -0.2992680
  H        1.3484140    -0.2039780     2.3191610
  H        0.5624770     1.3529910     1.8963580
  H        2.3234150     1.2701900     2.1711160
  H        2.1708410     1.3362470    -1.4821670
  H        2.8360500     2.1503740    -0.0502520
  H        1.0944390     2.3121220    -0.4419640
  H       -1.7008040    -1.6902470     0.8932800
  H       -3.9262080    -0.3702980     0.8362390
  H       -3.2806590     1.9452040    -0.5535070
units angstrom
no_reorient  #important for SAPT in psi4, default
symmetry c1  #important for SAPT in psi4, default
}

set PROPERTIES_ORIGIN ["COM"]
properties('MP2/aug-cc-pvtz', properties = ['dipole'])
--------------------------------------------------------------------------

    Molecular point group: c1
  Charge       = 0
  Multiplicity = 1
  Basis Set: AUG-CC-PVTZ
    Blend: AUG-CC-PVTZ
  Basis Set: (AUG-CC-PVTZ AUX)
    Blend: AUG-CC-PVTZ-JKFIT

    Orbital Energies [Eh]
    ---------------------

    Doubly Occupied:

       1A    -92.215561     2A    -20.558470     3A    -20.555352
       4A    -15.655234     5A    -15.612006     6A    -15.590157
       7A    -11.339117     8A    -11.293789     9A    -11.276538
      10A    -11.275167    11A    -11.267530    12A     -9.180102
      13A     -6.865255    14A     -6.864946    15A     -6.864514
      16A     -1.464076    17A     -1.367287    18A     -1.345077
      19A     -1.258719    20A     -1.194180    21A     -1.049025
      22A     -0.982837    23A     -0.960633    24A     -0.877311
      25A     -0.837345    26A     -0.818343    27A     -0.752858
      28A     -0.710549    29A     -0.677501    30A     -0.668064
      31A     -0.640389    32A     -0.631671    33A     -0.624861
      34A     -0.617451    35A     -0.606011    36A     -0.578060
      37A     -0.572236    38A     -0.542892    39A     -0.513693
      40A     -0.507039    41A     -0.486081    42A     -0.479924
      43A     -0.475491    44A     -0.422720    45A     -0.418664
      46A     -0.345283

  @DF-RHF Final Energy:  -905.29629804889521

   => Energetics <=

    Nuclear Repulsion Energy =            796.3506106455294002
    One-Electron Energy =               -2823.6137985961800041
    Two-Electron Energy =                1121.9668899017553940
    Total Energy =                       -905.2962980488953235
  Basis Set: (AUG-CC-PVTZ AUX)
    Blend: AUG-CC-PVTZ-RI
    Molecular point group: c1

    Geometry (in Angstrom), charge = 0, multiplicity = 1:

       Center              X                  Y                   Z               Mass
    ------------   -----------------  -----------------  -----------------  -----------------
         S            0.775966616227    -0.669146831155    -0.266983026309    31.972071174400
         O            0.755068616227    -1.821112831155     0.643085973691    15.994914619570
         O            1.151264616227    -0.796712831155    -1.669837026309    15.994914619570
         N            1.748827616227     0.493206168845     0.407919973691    14.003074004430
         N           -1.836805383773    -0.730746831155     0.504754973691    14.003074004430
         N           -1.363372783773     1.036862968845    -0.797123026309    14.003074004430
         C           -0.869019383773    -0.033084831155    -0.152969026309    12.000000000000
         C            1.472865616227     0.784860168845     1.818057973691    12.000000000000
         C            1.972556616227     1.693404168845    -0.413027026309    12.000000000000
         C           -2.984417383773     0.015390168845     0.443370973691    12.000000000000
         C           -2.635912383773     1.158298168845    -0.253956026309    12.000000000000
         H            1.360591616227    -0.151001831155     2.364472973691     1.007825032230
         H            0.574654616227     1.405967168845     1.941669973691     1.007825032230
         H            2.335592616227     1.323166168845     2.216427973691     1.007825032230
         H            2.183018616227     1.389223168845    -1.436855026309     1.007825032230
         H            2.848227616227     2.203350168845    -0.004940026309     1.007825032230
         H            1.106616616227     2.365098168845    -0.396652026309     1.007825032230
         H           -1.688626383773    -1.637270831155     0.938591973691     1.007825032230
         H           -3.914030383773    -0.317321831155     0.881550973691     1.007825032230
         H           -3.268481383773     1.998180168845    -0.508195026309     1.007825032230

  Basis Set: AUG-CC-PVTZ
    Blend: AUG-CC-PVTZ
  Basis Set: (AUG-CC-PVTZ AUX)
    Blend: AUG-CC-PVTZ-JKFIT
	 Reference Energy          =    -905.2962980488952098 [Eh]
	 Singles Energy            =      -0.0000000000000000 [Eh]
	 Same-Spin Energy          =      -0.5978372832448046 [Eh]
	 Opposite-Spin Energy      =      -1.7768532950810478 [Eh]
	 Correlation Energy        =      -2.3746905783258523 [Eh]
	 Total Energy              =    -907.6709886272210497 [Eh]

	 ================> DF-SCS-MP2 Energies <==================
	-----------------------------------------------------------
	 SCS Same-Spin Scale       =       0.3333333333333333 [-]
	 SCS Opposite-Spin Scale   =       1.2000000000000000 [-]
	 SCS Same-Spin Energy      =      -0.1992790944149349 [Eh]
	 SCS Opposite-Spin Energy  =      -2.1322239540972574 [Eh]
	 SCS Correlation Energy    =      -2.3315030485121921 [Eh]
	 SCS Total Energy          =    -907.6278010974074277 [Eh]
	-----------------------------------------------------------

  Dipole Moment: [D]
     X:    -2.6162      Y:     1.9817      Z:     3.7651     Total:     4.9948

*** Psi4 exiting successfully. Buy a developer a beer!
