                               Psi4 1.3.2 release

  ==> Input File <==

--------------------------------------------------------------------------
#psi4
#
memory 32 gb

molecule  {
0 1
  S        0.7637890    -0.7221230    -0.3122950
  O        0.7428910    -1.8740890     0.5977740
  O        1.1390870    -0.8496890    -1.7151490
  N        1.7366500     0.4402300     0.3626080
  N       -1.8489830    -0.7837230     0.4594430
  N       -1.3270270     1.0745880    -0.6709160
  C       -0.8811970    -0.0860610    -0.1982810
  C        1.4606880     0.7318840     1.7727460
  C        1.9603790     1.6404280    -0.4583390
  C       -2.9965950    -0.0375860     0.3980590
  C       -2.6480900     1.1053220    -0.2992680
  H        1.3484140    -0.2039780     2.3191610
  H        0.5624770     1.3529910     1.8963580
  H        2.3234150     1.2701900     2.1711160
  H        2.1708410     1.3362470    -1.4821670
  H        2.8360500     2.1503740    -0.0502520
  H        1.0944390     2.3121220    -0.4419640
  H       -1.7008040    -1.6902470     0.8932800
  H       -3.9262080    -0.3702980     0.8362390
  H       -3.3308857     1.8556421    -0.7251343
units angstrom
no_reorient  #important for SAPT in psi4, default
symmetry c1  #important for SAPT in psi4, default
}

set PROPERTIES_ORIGIN ["COM"]
properties('MP2/aug-cc-pvtz', properties = ['dipole'])
--------------------------------------------------------------------------

    Molecular point group: c1
  Charge       = 0
  Multiplicity = 1
  Basis Set: AUG-CC-PVTZ
    Blend: AUG-CC-PVTZ
  Basis Set: (AUG-CC-PVTZ AUX)
    Blend: AUG-CC-PVTZ-JKFIT

    Orbital Energies [Eh]
    ---------------------

    Doubly Occupied:

       1A    -92.215959     2A    -20.558622     3A    -20.556117
       4A    -15.655400     5A    -15.611320     6A    -15.586821
       7A    -11.337745     8A    -11.293626     9A    -11.275234
      10A    -11.274847    11A    -11.266110    12A     -9.180483
      13A     -6.865709    14A     -6.865292    15A     -6.864873
      16A     -1.464501    17A     -1.370293    18A     -1.345575
      19A     -1.258051    20A     -1.198837    21A     -1.049900
      22A     -0.981705    23A     -0.959965    24A     -0.877246
      25A     -0.838342    26A     -0.818634    27A     -0.752894
      28A     -0.710622    29A     -0.677031    30A     -0.668356
      31A     -0.643198    32A     -0.632462    33A     -0.627060
      34A     -0.612968    35A     -0.606285    36A     -0.576884
      37A     -0.571159    38A     -0.541953    39A     -0.514244
      40A     -0.508174    41A     -0.485298    42A     -0.480174
      43A     -0.471679    44A     -0.429025    45A     -0.418036
      46A     -0.346084

  @DF-RHF Final Energy:  -905.30338508914065

   => Energetics <=

    Nuclear Repulsion Energy =            797.3751096038939750
    One-Electron Energy =               -2825.6674018073326806
    Two-Electron Energy =                1122.9889071142979446
    Total Energy =                       -905.3033850891406473
  Basis Set: (AUG-CC-PVTZ AUX)
    Blend: AUG-CC-PVTZ-RI
    Molecular point group: c1

    Geometry (in Angstrom), charge = 0, multiplicity = 1:

       Center              X                  Y                   Z               Mass
    ------------   -----------------  -----------------  -----------------  -----------------
         S            0.772374000395    -0.675887133138    -0.279716134477    31.972071174400
         O            0.751476000395    -1.827853133138     0.630352865523    15.994914619570
         O            1.147672000395    -0.803453133138    -1.682570134477    15.994914619570
         N            1.745235000395     0.486465866862     0.395186865523    14.003074004430
         N           -1.840397999605    -0.737487133138     0.492021865523    14.003074004430
         N           -1.318441999605     1.120823866862    -0.638337134477    14.003074004430
         C           -0.872611999605    -0.039825133138    -0.165702134477    12.000000000000
         C            1.469273000395     0.778119866862     1.805324865523    12.000000000000
         C            1.968964000395     1.686663866862    -0.425760134477    12.000000000000
         C           -2.988009999605     0.008649866862     0.430637865523    12.000000000000
         C           -2.639504999605     1.151557866862    -0.266689134477    12.000000000000
         H            1.356999000395    -0.157742133138     2.351739865523     1.007825032230
         H            0.571062000395     1.399226866862     1.928936865523     1.007825032230
         H            2.332000000395     1.316425866862     2.203694865523     1.007825032230
         H            2.179426000395     1.382482866862    -1.449588134477     1.007825032230
         H            2.844635000395     2.196609866862    -0.017673134477     1.007825032230
         H            1.103024000395     2.358357866862    -0.409385134477     1.007825032230
         H           -1.692218999605    -1.644011133138     0.925858865523     1.007825032230
         H           -3.917622999605    -0.324062133138     0.868817865523     1.007825032230
         H           -3.322300699605     1.901877966862    -0.692555434477     1.007825032230

  Basis Set: AUG-CC-PVTZ
    Blend: AUG-CC-PVTZ
  Basis Set: (AUG-CC-PVTZ AUX)
    Blend: AUG-CC-PVTZ-JKFIT
	 Reference Energy          =    -905.3033850891406473 [Eh]
	 Singles Energy            =      -0.0000000000000000 [Eh]
	 Same-Spin Energy          =      -0.5975944469314702 [Eh]
	 Opposite-Spin Energy      =      -1.7757452928767616 [Eh]
	 Correlation Energy        =      -2.3733397398082321 [Eh]
	 Total Energy              =    -907.6767248289488634 [Eh]

	 ================> DF-SCS-MP2 Energies <==================
	-----------------------------------------------------------
	 SCS Same-Spin Scale       =       0.3333333333333333 [-]
	 SCS Opposite-Spin Scale   =       1.2000000000000000 [-]
	 SCS Same-Spin Energy      =      -0.1991981489771567 [Eh]
	 SCS Opposite-Spin Energy  =      -2.1308943514521137 [Eh]
	 SCS Correlation Energy    =      -2.3300925004292705 [Eh]
	 SCS Total Energy          =    -907.6334775895699067 [Eh]
	-----------------------------------------------------------

  Dipole Moment: [D]
     X:    -2.6904      Y:     1.8016      Z:     3.4534     Total:     4.7339

*** Psi4 exiting successfully. Buy a developer a beer!
