                               Psi4 1.3.2 release

  ==> Input File <==

--------------------------------------------------------------------------
#psi4
#
memory 32 gb

molecule  {
0 1
  S        0.7637890    -0.7221230    -0.3122950
  O        0.7428910    -1.8740890     0.5977740
  O        1.1390870    -0.8496890    -1.7151490
  N        1.7366500     0.4402300     0.3626080
  N       -1.8489830    -0.7837230     0.4594430
  N       -1.3270270     1.0745880    -0.6709160
  C       -0.8811970    -0.0860610    -0.1982810
  C        1.4606880     0.7318840     1.7727460
  C        1.9603790     1.6404280    -0.4583390
  C       -2.9965950    -0.0375860     0.3980590
  C       -2.6480900     1.1053220    -0.2992680
  H        1.3484140    -0.2039780     2.3191610
  H        0.5624770     1.3529910     1.8963580
  H        2.3234150     1.2701900     2.1711160
  H        2.1708410     1.3362470    -1.4821670
  H        2.8360500     2.1503740    -0.0502520
  H        1.0944390     2.3121220    -0.4419640
  H       -1.7008040    -1.6902470     0.8932800
  H       -3.9262080    -0.3702980     0.8362390
  H       -3.3183291     1.8780326    -0.6822275
units angstrom
no_reorient  #important for SAPT in psi4, default
symmetry c1  #important for SAPT in psi4, default
}

set PROPERTIES_ORIGIN ["COM"]
properties('MP2/aug-cc-pvtz', properties = ['dipole'])
--------------------------------------------------------------------------

    Molecular point group: c1
  Charge       = 0
  Multiplicity = 1
  Basis Set: AUG-CC-PVTZ
    Blend: AUG-CC-PVTZ
  Basis Set: (AUG-CC-PVTZ AUX)
    Blend: AUG-CC-PVTZ-JKFIT

    Orbital Energies [Eh]
    ---------------------

    Doubly Occupied:

       1A    -92.215905     2A    -20.558572     3A    -20.556041
       4A    -15.655282     5A    -15.611299     6A    -15.586751
       7A    -11.337641     8A    -11.293408     9A    -11.275230
      10A    -11.274255    11A    -11.266099    12A     -9.180427
      13A     -6.865651    14A     -6.865238    15A     -6.864819
      16A     -1.464441    17A     -1.370173    18A     -1.345514
      19A     -1.258025    20A     -1.198772    21A     -1.049935
      22A     -0.981694    23A     -0.959961    24A     -0.877192
      25A     -0.839276    26A     -0.818523    27A     -0.752907
      28A     -0.710633    29A     -0.676964    30A     -0.668292
      31A     -0.643023    32A     -0.632454    33A     -0.626577
      34A     -0.613663    35A     -0.608069    36A     -0.576988
      37A     -0.571138    38A     -0.541938    39A     -0.514184
      40A     -0.508093    41A     -0.485348    42A     -0.480119
      43A     -0.471601    44A     -0.429130    45A     -0.418034
      46A     -0.346088

  @DF-RHF Final Energy:  -905.30452827059253

   => Energetics <=

    Nuclear Repulsion Energy =            797.4124862236549234
    One-Electron Energy =               -2825.7432952471576755
    Two-Electron Energy =                1123.0262807529102247
    Total Energy =                       -905.3045282705925274
  Basis Set: (AUG-CC-PVTZ AUX)
    Blend: AUG-CC-PVTZ-RI
    Molecular point group: c1

    Geometry (in Angstrom), charge = 0, multiplicity = 1:

       Center              X                  Y                   Z               Mass
    ------------   -----------------  -----------------  -----------------  -----------------
         S            0.772301704097    -0.676016049425    -0.279963176094    31.972071174400
         O            0.751403704097    -1.827982049425     0.630105823906    15.994914619570
         O            1.147599704097    -0.803582049425    -1.682817176094    15.994914619570
         N            1.745162704097     0.486336950575     0.394939823906    14.003074004430
         N           -1.840470295903    -0.737616049425     0.491774823906    14.003074004430
         N           -1.318514295903     1.120694950575    -0.638584176094    14.003074004430
         C           -0.872684295903    -0.039954049425    -0.165949176094    12.000000000000
         C            1.469200704097     0.777990950575     1.805077823906    12.000000000000
         C            1.968891704097     1.686534950575    -0.426007176094    12.000000000000
         C           -2.988082295903     0.008520950575     0.430390823906    12.000000000000
         C           -2.639577295903     1.151428950575    -0.266936176094    12.000000000000
         H            1.356926704097    -0.157871049425     2.351492823906     1.007825032230
         H            0.570989704097     1.399097950575     1.928689823906     1.007825032230
         H            2.331927704097     1.316296950575     2.203447823906     1.007825032230
         H            2.179353704097     1.382353950575    -1.449835176094     1.007825032230
         H            2.844562704097     2.196480950575    -0.017920176094     1.007825032230
         H            1.102951704097     2.358228950575    -0.409632176094     1.007825032230
         H           -1.692291295903    -1.644140049425     0.925611823906     1.007825032230
         H           -3.917695295903    -0.324191049425     0.868570823906     1.007825032230
         H           -3.309816395903     1.924139550575    -0.649895676094     1.007825032230

  Basis Set: AUG-CC-PVTZ
    Blend: AUG-CC-PVTZ
  Basis Set: (AUG-CC-PVTZ AUX)
    Blend: AUG-CC-PVTZ-JKFIT
	 Reference Energy          =    -905.3045282705925274 [Eh]
	 Singles Energy            =      -0.0000000000000000 [Eh]
	 Same-Spin Energy          =      -0.5975417242832789 [Eh]
	 Opposite-Spin Energy      =      -1.7756150956020753 [Eh]
	 Correlation Energy        =      -2.3731568198853541 [Eh]
	 Total Energy              =    -907.6776850904778939 [Eh]

	 ================> DF-SCS-MP2 Energies <==================
	-----------------------------------------------------------
	 SCS Same-Spin Scale       =       0.3333333333333333 [-]
	 SCS Opposite-Spin Scale   =       1.2000000000000000 [-]
	 SCS Same-Spin Energy      =      -0.1991805747610930 [Eh]
	 SCS Opposite-Spin Energy  =      -2.1307381147224902 [Eh]
	 SCS Correlation Energy    =      -2.3299186894835833 [Eh]
	 SCS Total Energy          =    -907.6344469600761613 [Eh]
	-----------------------------------------------------------

  Dipole Moment: [D]
     X:    -2.6928      Y:     1.8281      Z:     3.4809     Total:     4.7655

*** Psi4 exiting successfully. Buy a developer a beer!
