                               Psi4 1.3.2 release

  ==> Input File <==

--------------------------------------------------------------------------
#psi4
#
memory 32 gb

molecule  {
0 1
  S        0.7637890    -0.7221230    -0.3122950
  O        0.7428910    -1.8740890     0.5977740
  O        1.1390870    -0.8496890    -1.7151490
  N        1.7366500     0.4402300     0.3626080
  N       -1.8489830    -0.7837230     0.4594430
  N       -1.3998121     0.9385362    -0.9281945
  C       -0.8811970    -0.0860610    -0.1982810
  C        1.4606880     0.7318840     1.7727460
  C        1.9603790     1.6404280    -0.4583390
  C       -2.9965950    -0.0375860     0.3980590
  C       -2.6480900     1.1053220    -0.2992680
  H        1.3484140    -0.2039780     2.3191610
  H        0.5624770     1.3529910     1.8963580
  H        2.3234150     1.2701900     2.1711160
  H        2.1708410     1.3362470    -1.4821670
  H        2.8360500     2.1503740    -0.0502520
  H        1.0944390     2.3121220    -0.4419640
  H       -1.7008040    -1.6902470     0.8932800
  H       -3.9262080    -0.3702980     0.8362390
  H       -3.2806590     1.9452040    -0.5535070
units angstrom
no_reorient  #important for SAPT in psi4, default
symmetry c1  #important for SAPT in psi4, default
}

set PROPERTIES_ORIGIN ["COM"]
properties('MP2/aug-cc-pvtz', properties = ['dipole'])
--------------------------------------------------------------------------

    Molecular point group: c1
  Charge       = 0
  Multiplicity = 1
  Basis Set: AUG-CC-PVTZ
    Blend: AUG-CC-PVTZ
  Basis Set: (AUG-CC-PVTZ AUX)
    Blend: AUG-CC-PVTZ-JKFIT

    Orbital Energies [Eh]
    ---------------------

    Doubly Occupied:

       1A    -92.215337     2A    -20.558331     3A    -20.555183
       4A    -15.655607     5A    -15.612410     6A    -15.594429
       7A    -11.341697     8A    -11.294455     9A    -11.277243
      10A    -11.277115    11A    -11.268178    12A     -9.179911
      13A     -6.865029    14A     -6.864770    15A     -6.864325
      16A     -1.463912    17A     -1.364447    18A     -1.344821
      19A     -1.259079    20A     -1.188668    21A     -1.048117
      22A     -0.983368    23A     -0.960961    24A     -0.877513
      25A     -0.833910    26A     -0.818596    27A     -0.752471
      28A     -0.710349    29A     -0.677207    30A     -0.668040
      31A     -0.639484    32A     -0.630510    33A     -0.623394
      34A     -0.617243    35A     -0.602722    36A     -0.578363
      37A     -0.572750    38A     -0.543338    39A     -0.513467
      40A     -0.506534    41A     -0.487763    42A     -0.480191
      43A     -0.477740    44A     -0.420205    45A     -0.415348
      46A     -0.343907

  @DF-RHF Final Energy:  -905.28373209161384

   => Energetics <=

    Nuclear Repulsion Energy =            795.4073150744673057
    One-Electron Energy =               -2821.7252131824402568
    Two-Electron Energy =                1121.0341660163592223
    Total Energy =                       -905.2837320916137287
  Basis Set: (AUG-CC-PVTZ AUX)
    Blend: AUG-CC-PVTZ-RI
    Molecular point group: c1

    Geometry (in Angstrom), charge = 0, multiplicity = 1:

       Center              X                  Y                   Z               Mass
    ------------   -----------------  -----------------  -----------------  -----------------
         S            0.777907517602    -0.665518847878    -0.260122388701    31.972071174400
         O            0.757009517602    -1.817484847878     0.649946611299    15.994914619570
         O            1.153205517602    -0.793084847878    -1.662976388701    15.994914619570
         N            1.750768517602     0.496834152122     0.414780611299    14.003074004430
         N           -1.834864482398    -0.727118847878     0.511615611299    14.003074004430
         N           -1.385693582398     0.995140352122    -0.876021888701    14.003074004430
         C           -0.867078482398    -0.029456847878    -0.146108388701    12.000000000000
         C            1.474806517602     0.788488152122     1.824918611299    12.000000000000
         C            1.974497517602     1.697032152122    -0.406166388701    12.000000000000
         C           -2.982476482398     0.019018152122     0.450231611299    12.000000000000
         C           -2.633971482398     1.161926152122    -0.247095388701    12.000000000000
         H            1.362532517602    -0.147373847878     2.371333611299     1.007825032230
         H            0.576595517602     1.409595152122     1.948530611299     1.007825032230
         H            2.337533517602     1.326794152122     2.223288611299     1.007825032230
         H            2.184959517602     1.392851152122    -1.429994388701     1.007825032230
         H            2.850168517602     2.206978152122     0.001920611299     1.007825032230
         H            1.108557517602     2.368726152122    -0.389791388701     1.007825032230
         H           -1.686685482398    -1.633642847878     0.945452611299     1.007825032230
         H           -3.912089482398    -0.313693847878     0.888411611299     1.007825032230
         H           -3.266540482398     2.001808152122    -0.501334388701     1.007825032230

  Basis Set: AUG-CC-PVTZ
    Blend: AUG-CC-PVTZ
  Basis Set: (AUG-CC-PVTZ AUX)
    Blend: AUG-CC-PVTZ-JKFIT
	 Reference Energy          =    -905.2837320916138424 [Eh]
	 Singles Energy            =      -0.0000000000000000 [Eh]
	 Same-Spin Energy          =      -0.5984393013043536 [Eh]
	 Opposite-Spin Energy      =      -1.7788523932341112 [Eh]
	 Correlation Energy        =      -2.3772916945384646 [Eh]
	 Total Energy              =    -907.6610237861523274 [Eh]

	 ================> DF-SCS-MP2 Energies <==================
	-----------------------------------------------------------
	 SCS Same-Spin Scale       =       0.3333333333333333 [-]
	 SCS Opposite-Spin Scale   =       1.2000000000000000 [-]
	 SCS Same-Spin Energy      =      -0.1994797671014512 [Eh]
	 SCS Opposite-Spin Energy  =      -2.1346228718809335 [Eh]
	 SCS Correlation Energy    =      -2.3341026389823849 [Eh]
	 SCS Total Energy          =    -907.6178347305962006 [Eh]
	-----------------------------------------------------------

  Dipole Moment: [D]
     X:    -2.5939      Y:     2.0245      Z:     3.8620     Total:     5.0737

*** Psi4 exiting successfully. Buy a developer a beer!
