                               Psi4 1.3.2 release

  ==> Input File <==

--------------------------------------------------------------------------
#psi4
#
memory 32 gb

molecule  {
0 1
  S        0.7637890    -0.7221230    -0.3122950
  O        0.7428910    -1.8740890     0.5977740
  O        1.1390870    -0.8496890    -1.7151490
  N        1.7366500     0.4402300     0.3626080
  N       -1.8489830    -0.7837230     0.4594430
  N       -1.3270270     1.0745880    -0.6709160
  C       -0.8811970    -0.0860610    -0.1982810
  C        1.4606880     0.7318840     1.7727460
  C        1.9603790     1.6404280    -0.4583390
  C       -2.9965950    -0.0375860     0.3980590
  C       -2.6480900     1.1053220    -0.2992680
  H        1.3484140    -0.2039780     2.3191610
  H        0.5624770     1.3529910     1.8963580
  H        2.3234150     1.2701900     2.1711160
  H        2.1708410     1.3362470    -1.4821670
  H        2.8360500     2.1503740    -0.0502520
  H        1.0944390     2.3121220    -0.4419640
  H       -1.7008040    -1.6902470     0.8932800
  H       -3.9262080    -0.3702980     0.8362390
  H       -3.2932157     1.9228135    -0.5964138
units angstrom
no_reorient  #important for SAPT in psi4, default
symmetry c1  #important for SAPT in psi4, default
}

set PROPERTIES_ORIGIN ["COM"]
properties('MP2/aug-cc-pvtz', properties = ['dipole'])
--------------------------------------------------------------------------

    Molecular point group: c1
  Charge       = 0
  Multiplicity = 1
  Basis Set: AUG-CC-PVTZ
    Blend: AUG-CC-PVTZ
  Basis Set: (AUG-CC-PVTZ AUX)
    Blend: AUG-CC-PVTZ-JKFIT

    Orbital Energies [Eh]
    ---------------------

    Doubly Occupied:

       1A    -92.215843     2A    -20.558521     3A    -20.555932
       4A    -15.655157     5A    -15.611297     6A    -15.586676
       7A    -11.337519     8A    -11.293161     9A    -11.275255
      10A    -11.273592    11A    -11.266102    12A     -9.180362
      13A     -6.865583    14A     -6.865175    15A     -6.864755
      16A     -1.464367    17A     -1.370039    18A     -1.345439
      19A     -1.258011    20A     -1.198704    21A     -1.049986
      22A     -0.981703    23A     -0.959971    24A     -0.877141
      25A     -0.840410    26A     -0.818398    27A     -0.752927
      28A     -0.710687    29A     -0.676878    30A     -0.668201
      31A     -0.642756    32A     -0.632540    33A     -0.625543
      34A     -0.616029    35A     -0.609104    36A     -0.577158
      37A     -0.571121    38A     -0.541940    39A     -0.514085
      40A     -0.507968    41A     -0.485435    42A     -0.480043
      43A     -0.471496    44A     -0.429278    45A     -0.418054
      46A     -0.346094

  @DF-RHF Final Energy:  -905.30576189412659

   => Energetics <=

    Nuclear Repulsion Energy =            797.4617658175779980
    One-Electron Energy =               -2825.8421842136649502
    Two-Electron Energy =                1123.0746565019603622
    Total Energy =                       -905.3057618941265901
  Basis Set: (AUG-CC-PVTZ AUX)
    Blend: AUG-CC-PVTZ-RI
    Molecular point group: c1

    Geometry (in Angstrom), charge = 0, multiplicity = 1:

       Center              X                  Y                   Z               Mass
    ------------   -----------------  -----------------  -----------------  -----------------
         S            0.772157110351    -0.676273881423    -0.280457259905    31.972071174400
         O            0.751259110351    -1.828239881423     0.629611740095    15.994914619570
         O            1.147455110351    -0.803839881423    -1.683311259905    15.994914619570
         N            1.745018110351     0.486079118577     0.394445740095    14.003074004430
         N           -1.840614889649    -0.737873881423     0.491280740095    14.003074004430
         N           -1.318658889649     1.120437118577    -0.639078259905    14.003074004430
         C           -0.872828889649    -0.040211881423    -0.166443259905    12.000000000000
         C            1.469056110351     0.777733118577     1.804583740095    12.000000000000
         C            1.968747110351     1.686277118577    -0.426501259905    12.000000000000
         C           -2.988226889649     0.008263118577     0.429896740095    12.000000000000
         C           -2.639721889649     1.151171118577    -0.267430259905    12.000000000000
         H            1.356782110351    -0.158128881423     2.350998740095     1.007825032230
         H            0.570845110351     1.398840118577     1.928195740095     1.007825032230
         H            2.331783110351     1.316039118577     2.202953740095     1.007825032230
         H            2.179209110351     1.382096118577    -1.450329259905     1.007825032230
         H            2.844418110351     2.196223118577    -0.018414259905     1.007825032230
         H            1.102807110351     2.357971118577    -0.410126259905     1.007825032230
         H           -1.692435889649    -1.644397881423     0.925117740095     1.007825032230
         H           -3.917839889649    -0.324448881423     0.868076740095     1.007825032230
         H           -3.284847589649     1.968662618577    -0.564576059905     1.007825032230

  Basis Set: AUG-CC-PVTZ
    Blend: AUG-CC-PVTZ
  Basis Set: (AUG-CC-PVTZ AUX)
    Blend: AUG-CC-PVTZ-JKFIT
	 Reference Energy          =    -905.3057618941265901 [Eh]
	 Singles Energy            =      -0.0000000000000000 [Eh]
	 Same-Spin Energy          =      -0.5974828472812506 [Eh]
	 Opposite-Spin Energy      =      -1.7754747101288264 [Eh]
	 Correlation Energy        =      -2.3729575574100767 [Eh]
	 Total Energy              =    -907.6787194515367219 [Eh]

	 ================> DF-SCS-MP2 Energies <==================
	-----------------------------------------------------------
	 SCS Same-Spin Scale       =       0.3333333333333333 [-]
	 SCS Opposite-Spin Scale   =       1.2000000000000000 [-]
	 SCS Same-Spin Energy      =      -0.1991609490937502 [Eh]
	 SCS Opposite-Spin Energy  =      -2.1305696521545916 [Eh]
	 SCS Correlation Energy    =      -2.3297306012483419 [Eh]
	 SCS Total Energy          =    -907.6354924953749332 [Eh]
	-----------------------------------------------------------

  Dipole Moment: [D]
     X:    -2.6882      Y:     1.8726      Z:     3.5392     Total:     4.8227

*** Psi4 exiting successfully. Buy a developer a beer!
