                               Psi4 1.3.2 release

  ==> Input File <==

--------------------------------------------------------------------------
#psi4
#
memory 32 gb

molecule  {
0 1
  S        0.7637890    -0.7221230    -0.3122950
  O        0.7428910    -1.8740890     0.5977740
  O        1.1390870    -0.8496890    -1.7151490
  N        1.7366500     0.4402300     0.3626080
  N       -1.8489830    -0.7837230     0.4594430
  N       -1.3270270     1.0745880    -0.6709160
  C       -0.8811970    -0.0860610    -0.1982810
  C        1.4606880     0.7318840     1.7727460
  C        1.9603790     1.6404280    -0.4583390
  C       -2.9965950    -0.0375860     0.3980590
  C       -2.6480900     1.1053220    -0.2992680
  H        1.3484140    -0.2039780     2.3191610
  H        0.5624770     1.3529910     1.8963580
  H        2.3234150     1.2701900     2.1711160
  H        2.1708410     1.3362470    -1.4821670
  H        2.8360500     2.1503740    -0.0502520
  H        1.0944390     2.3121220    -0.4419640
  H       -1.7008040    -1.6902470     0.8932800
  H       -3.9262080    -0.3702980     0.8362390
  H       -3.3057724     1.9004231    -0.6393207
units angstrom
no_reorient  #important for SAPT in psi4, default
symmetry c1  #important for SAPT in psi4, default
}

set PROPERTIES_ORIGIN ["COM"]
properties('MP2/aug-cc-pvtz', properties = ['dipole'])
--------------------------------------------------------------------------

    Molecular point group: c1
  Charge       = 0
  Multiplicity = 1
  Basis Set: AUG-CC-PVTZ
    Blend: AUG-CC-PVTZ
  Basis Set: (AUG-CC-PVTZ AUX)
    Blend: AUG-CC-PVTZ-JKFIT

    Orbital Energies [Eh]
    ---------------------

    Doubly Occupied:

       1A    -92.215866     2A    -20.558538     3A    -20.555979
       4A    -15.655201     5A    -15.611291     6A    -15.586703
       7A    -11.337565     8A    -11.293253     9A    -11.275237
      10A    -11.273835    11A    -11.266096    12A     -9.180387
      13A     -6.865609    14A     -6.865199    15A     -6.864779
      16A     -1.464396    17A     -1.370089    18A     -1.345468
      19A     -1.258012    20A     -1.198728    21A     -1.049965
      22A     -0.981693    23A     -0.959964    24A     -0.877157
      25A     -0.839973    26A     -0.818444    27A     -0.752918
      28A     -0.710655    29A     -0.676912    30A     -0.668240
      31A     -0.642872    32A     -0.632482    33A     -0.626053
      34A     -0.614797    35A     -0.608921    36A     -0.577076
      37A     -0.571126    38A     -0.541934    39A     -0.514131
      40A     -0.508024    41A     -0.485392    42A     -0.480075
      43A     -0.471540    44A     -0.429215    45A     -0.418040
      46A     -0.346091

  @DF-RHF Final Energy:  -905.30530913299810

   => Energetics <=

    Nuclear Repulsion Energy =            797.4414757697632012
    One-Electron Energy =               -2825.8017213063881172
    Two-Electron Energy =                1123.0549364036269253
    Total Energy =                       -905.3053091329979907
  Basis Set: (AUG-CC-PVTZ AUX)
    Blend: AUG-CC-PVTZ-RI
    Molecular point group: c1

    Geometry (in Angstrom), charge = 0, multiplicity = 1:

       Center              X                  Y                   Z               Mass
    ------------   -----------------  -----------------  -----------------  -----------------
         S            0.772229407224    -0.676144965712    -0.280210217712    31.972071174400
         O            0.751331407224    -1.828110965712     0.629858782288    15.994914619570
         O            1.147527407224    -0.803710965712    -1.683064217712    15.994914619570
         N            1.745090407224     0.486208034288     0.394692782288    14.003074004430
         N           -1.840542592776    -0.737744965712     0.491527782288    14.003074004430
         N           -1.318586592776     1.120566034288    -0.638831217712    14.003074004430
         C           -0.872756592776    -0.040082965712    -0.166196217712    12.000000000000
         C            1.469128407224     0.777862034288     1.804830782288    12.000000000000
         C            1.968819407224     1.686406034288    -0.426254217712    12.000000000000
         C           -2.988154592776     0.008392034288     0.430143782288    12.000000000000
         C           -2.639649592776     1.151300034288    -0.267183217712    12.000000000000
         H            1.356854407224    -0.157999965712     2.351245782288     1.007825032230
         H            0.570917407224     1.398969034288     1.928442782288     1.007825032230
         H            2.331855407224     1.316168034288     2.203200782288     1.007825032230
         H            2.179281407224     1.382225034288    -1.450082217712     1.007825032230
         H            2.844490407224     2.196352034288    -0.018167217712     1.007825032230
         H            1.102879407224     2.358100034288    -0.409879217712     1.007825032230
         H           -1.692363592776    -1.644268965712     0.925364782288     1.007825032230
         H           -3.917767592776    -0.324319965712     0.868323782288     1.007825032230
         H           -3.297331992776     1.946401134288    -0.607235917712     1.007825032230

  Basis Set: AUG-CC-PVTZ
    Blend: AUG-CC-PVTZ
  Basis Set: (AUG-CC-PVTZ AUX)
    Blend: AUG-CC-PVTZ-JKFIT
	 Reference Energy          =    -905.3053091329981044 [Eh]
	 Singles Energy            =      -0.0000000000000000 [Eh]
	 Same-Spin Energy          =      -0.5975044247154055 [Eh]
	 Opposite-Spin Energy      =      -1.7755263000613239 [Eh]
	 Correlation Energy        =      -2.3730307247767293 [Eh]
	 Total Energy              =    -907.6783398577748585 [Eh]

	 ================> DF-SCS-MP2 Energies <==================
	-----------------------------------------------------------
	 SCS Same-Spin Scale       =       0.3333333333333333 [-]
	 SCS Opposite-Spin Scale   =       1.2000000000000000 [-]
	 SCS Same-Spin Energy      =      -0.1991681415718018 [Eh]
	 SCS Opposite-Spin Energy  =      -2.1306315600735886 [Eh]
	 SCS Correlation Energy    =      -2.3297997016453902 [Eh]
	 SCS Total Energy          =    -907.6351088346434608 [Eh]
	-----------------------------------------------------------

  Dipole Moment: [D]
     X:    -2.6920      Y:     1.8518      Z:     3.5095     Total:     4.7951

*** Psi4 exiting successfully. Buy a developer a beer!
