                               Psi4 1.3.2 release

  ==> Input File <==

--------------------------------------------------------------------------
#psi4
#
memory 32 gb

molecule  {
0 1
  S        0.7637890    -0.7221230    -0.3122950
  O        0.7428910    -1.8740890     0.5977740
  O        1.1390870    -0.8496890    -1.7151490
  N        1.7366500     0.4402300     0.3626080
  N       -1.8489830    -0.7837230     0.4594430
  N       -1.3270270     1.0745880    -0.6709160
  C       -0.8811970    -0.0860610    -0.1982810
  C        1.4606880     0.7318840     1.7727460
  C        1.9603790     1.6404280    -0.4583390
  C       -2.9965950    -0.0375860     0.3980590
  C       -2.6480900     1.1053220    -0.2992680
  H        1.3484140    -0.2039780     2.3191610
  H        0.5624770     1.3529910     1.8963580
  H        2.3234150     1.2701900     2.1711160
  H        2.1708410     1.3362470    -1.4821670
  H        2.8360500     2.1503740    -0.0502520
  H        1.0944390     2.3121220    -0.4419640
  H       -1.7008040    -1.6902470     0.8932800
  H       -3.9262080    -0.3702980     0.8362390
  H       -3.3559991     1.8108612    -0.8109480
units angstrom
no_reorient  #important for SAPT in psi4, default
symmetry c1  #important for SAPT in psi4, default
}

set PROPERTIES_ORIGIN ["COM"]
properties('MP2/aug-cc-pvtz', properties = ['dipole'])
--------------------------------------------------------------------------

    Molecular point group: c1
  Charge       = 0
  Multiplicity = 1
  Basis Set: AUG-CC-PVTZ
    Blend: AUG-CC-PVTZ
  Basis Set: (AUG-CC-PVTZ AUX)
    Blend: AUG-CC-PVTZ-JKFIT

    Orbital Energies [Eh]
    ---------------------

    Doubly Occupied:

       1A    -92.216112     2A    -20.558770     3A    -20.556311
       4A    -15.655744     5A    -15.611402     6A    -15.587027
       7A    -11.338039     8A    -11.294246     9A    -11.276518
      10A    -11.275278    11A    -11.266157    12A     -9.180640
      13A     -6.865868    14A     -6.865447    15A     -6.865028
      16A     -1.464670    17A     -1.370633    18A     -1.345742
      19A     -1.258141    20A     -1.199029    21A     -1.049823
      22A     -0.981760    23A     -0.959995    24A     -0.877409
      25A     -0.835889    26A     -0.818946    27A     -0.752872
      28A     -0.710635    29A     -0.677215    30A     -0.668520
      31A     -0.643587    32A     -0.632602    33A     -0.627839
      34A     -0.612612    35A     -0.600430    36A     -0.576573
      37A     -0.571226    38A     -0.542012    39A     -0.514378
      40A     -0.508372    41A     -0.485171    42A     -0.480319
      43A     -0.471884    44A     -0.428764    45A     -0.418060
      46A     -0.346080

  @DF-RHF Final Energy:  -905.29983849315181

   => Energetics <=

    Nuclear Repulsion Energy =            797.2769338733636459
    One-Electron Energy =               -2825.4659985081361810
    Two-Electron Energy =                1122.8892261416206111
    Total Energy =                       -905.2998384931518103
  Basis Set: (AUG-CC-PVTZ AUX)
    Blend: AUG-CC-PVTZ-RI
    Molecular point group: c1

    Geometry (in Angstrom), charge = 0, multiplicity = 1:

       Center              X                  Y                   Z               Mass
    ------------   -----------------  -----------------  -----------------  -----------------
         S            0.772518594141    -0.675629301140    -0.279222050666    31.972071174400
         O            0.751620594141    -1.827595301140     0.630846949334    15.994914619570
         O            1.147816594141    -0.803195301140    -1.682076050666    15.994914619570
         N            1.745379594141     0.486723698860     0.395680949334    14.003074004430
         N           -1.840253405859    -0.737229301140     0.492515949334    14.003074004430
         N           -1.318297405859     1.121081698860    -0.637843050666    14.003074004430
         C           -0.872467405859    -0.039567301140    -0.165208050666    12.000000000000
         C            1.469417594141     0.778377698860     1.805818949334    12.000000000000
         C            1.969108594141     1.686921698860    -0.425266050666    12.000000000000
         C           -2.987865405859     0.008907698860     0.431131949334    12.000000000000
         C           -2.639360405859     1.151815698860    -0.266195050666    12.000000000000
         H            1.357143594141    -0.157484301140     2.352233949334     1.007825032230
         H            0.571206594141     1.399484698860     1.929430949334     1.007825032230
         H            2.332144594141     1.316683698860     2.204188949334     1.007825032230
         H            2.179570594141     1.382740698860    -1.449094050666     1.007825032230
         H            2.844779594141     2.196867698860    -0.017179050666     1.007825032230
         H            1.103168594141     2.358615698860    -0.408891050666     1.007825032230
         H           -1.692074405859    -1.643753301140     0.926352949334     1.007825032230
         H           -3.917478405859    -0.323804301140     0.869311949334     1.007825032230
         H           -3.347269505859     1.857354898860    -0.777875050666     1.007825032230

  Basis Set: AUG-CC-PVTZ
    Blend: AUG-CC-PVTZ
  Basis Set: (AUG-CC-PVTZ AUX)
    Blend: AUG-CC-PVTZ-JKFIT
	 Reference Energy          =    -905.2998384931518103 [Eh]
	 Singles Energy            =      -0.0000000000000000 [Eh]
	 Same-Spin Energy          =      -0.5977442882207447 [Eh]
	 Opposite-Spin Energy      =      -1.7761429470041843 [Eh]
	 Correlation Energy        =      -2.3738872352249292 [Eh]
	 Total Energy              =    -907.6737257283767804 [Eh]

	 ================> DF-SCS-MP2 Energies <==================
	-----------------------------------------------------------
	 SCS Same-Spin Scale       =       0.3333333333333333 [-]
	 SCS Opposite-Spin Scale   =       1.2000000000000000 [-]
	 SCS Same-Spin Energy      =      -0.1992480960735815 [Eh]
	 SCS Opposite-Spin Energy  =      -2.1313715364050210 [Eh]
	 SCS Correlation Energy    =      -2.3306196324786024 [Eh]
	 SCS Total Energy          =    -907.6304581256304118 [Eh]
	-----------------------------------------------------------

  Dipole Moment: [D]
     X:    -2.6768      Y:     1.7410      Z:     3.4017     Total:     4.6656

*** Psi4 exiting successfully. Buy a developer a beer!
