                               Psi4 1.3.2 release

  ==> Input File <==

--------------------------------------------------------------------------
#psi4
#
memory 32 gb

molecule  {
0 1
  S        0.7637890    -0.7221230    -0.3122950
  O        0.7428910    -1.8740890     0.5977740
  O        1.1390870    -0.8496890    -1.7151490
  N        1.7366500     0.4402300     0.3626080
  N       -1.8489830    -0.7837230     0.4594430
  N       -1.3876812     0.9612115    -0.8853148
  C       -0.8811970    -0.0860610    -0.1982810
  C        1.4606880     0.7318840     1.7727460
  C        1.9603790     1.6404280    -0.4583390
  C       -2.9965950    -0.0375860     0.3980590
  C       -2.6480900     1.1053220    -0.2992680
  H        1.3484140    -0.2039780     2.3191610
  H        0.5624770     1.3529910     1.8963580
  H        2.3234150     1.2701900     2.1711160
  H        2.1708410     1.3362470    -1.4821670
  H        2.8360500     2.1503740    -0.0502520
  H        1.0944390     2.3121220    -0.4419640
  H       -1.7008040    -1.6902470     0.8932800
  H       -3.9262080    -0.3702980     0.8362390
  H       -3.2806590     1.9452040    -0.5535070
units angstrom
no_reorient  #important for SAPT in psi4, default
symmetry c1  #important for SAPT in psi4, default
}

set PROPERTIES_ORIGIN ["COM"]
properties('MP2/aug-cc-pvtz', properties = ['dipole'])
--------------------------------------------------------------------------

    Molecular point group: c1
  Charge       = 0
  Multiplicity = 1
  Basis Set: AUG-CC-PVTZ
    Blend: AUG-CC-PVTZ
  Basis Set: (AUG-CC-PVTZ AUX)
    Blend: AUG-CC-PVTZ-JKFIT

    Orbital Energies [Eh]
    ---------------------

    Doubly Occupied:

       1A    -92.215456     2A    -20.558410     3A    -20.555258
       4A    -15.655394     5A    -15.612205     6A    -15.592097
       7A    -11.340272     8A    -11.294096     9A    -11.276831
      10A    -11.276115    11A    -11.267860    12A     -9.180012
      13A     -6.865148    14A     -6.864864    15A     -6.864426
      16A     -1.463995    17A     -1.365961    18A     -1.344957
      19A     -1.258899    20A     -1.191706    21A     -1.048596
      22A     -0.983105    23A     -0.960798    24A     -0.877395
      25A     -0.835742    26A     -0.818445    27A     -0.752690
      28A     -0.710455    29A     -0.677391    30A     -0.668051
      31A     -0.639878    32A     -0.631124    33A     -0.624290
      34A     -0.617355    35A     -0.604558    36A     -0.578223
      37A     -0.572497    38A     -0.543118    39A     -0.513581
      40A     -0.506793    41A     -0.486740    42A     -0.480003
      43A     -0.476788    44A     -0.420803    45A     -0.417814
      46A     -0.344669

  @DF-RHF Final Energy:  -905.29068886396840

   => Energetics <=

    Nuclear Repulsion Energy =            795.9089289569799348
    One-Electron Energy =               -2822.7295045448618112
    Two-Electron Energy =                1121.5298867239134779
    Total Energy =                       -905.2906888639683984
  Basis Set: (AUG-CC-PVTZ AUX)
    Blend: AUG-CC-PVTZ-RI
    Molecular point group: c1

    Geometry (in Angstrom), charge = 0, multiplicity = 1:

       Center              X                  Y                   Z               Mass
    ------------   -----------------  -----------------  -----------------  -----------------
         S            0.776937062914    -0.667332839517    -0.263552703505    31.972071174400
         O            0.756039062914    -1.819298839517     0.646516296495    15.994914619570
         O            1.152235062914    -0.794898839517    -1.666406703505    15.994914619570
         N            1.749798062914     0.495020160483     0.411350296495    14.003074004430
         N           -1.835834937086    -0.728932839517     0.508185296495    14.003074004430
         N           -1.374533137086     1.016001660483    -0.836572503505    14.003074004430
         C           -0.868048937086    -0.031270839517    -0.149538703505    12.000000000000
         C            1.473836062914     0.786674160483     1.821488296495    12.000000000000
         C            1.973527062914     1.695218160483    -0.409596703505    12.000000000000
         C           -2.983446937086     0.017204160483     0.446801296495    12.000000000000
         C           -2.634941937086     1.160112160483    -0.250525703505    12.000000000000
         H            1.361562062914    -0.149187839517     2.367903296495     1.007825032230
         H            0.575625062914     1.407781160483     1.945100296495     1.007825032230
         H            2.336563062914     1.324980160483     2.219858296495     1.007825032230
         H            2.183989062914     1.391037160483    -1.433424703505     1.007825032230
         H            2.849198062914     2.205164160483    -0.001509703505     1.007825032230
         H            1.107587062914     2.366912160483    -0.393221703505     1.007825032230
         H           -1.687655937086    -1.635456839517     0.942022296495     1.007825032230
         H           -3.913059937086    -0.315507839517     0.884981296495     1.007825032230
         H           -3.267510937086     1.999994160483    -0.504764703505     1.007825032230

  Basis Set: AUG-CC-PVTZ
    Blend: AUG-CC-PVTZ
  Basis Set: (AUG-CC-PVTZ AUX)
    Blend: AUG-CC-PVTZ-JKFIT
	 Reference Energy          =    -905.2906888639683984 [Eh]
	 Singles Energy            =      -0.0000000000000000 [Eh]
	 Same-Spin Energy          =      -0.5981009960593796 [Eh]
	 Opposite-Spin Energy      =      -1.7777384650629253 [Eh]
	 Correlation Energy        =      -2.3758394611223048 [Eh]
	 Total Energy              =    -907.6665283250906668 [Eh]

	 ================> DF-SCS-MP2 Energies <==================
	-----------------------------------------------------------
	 SCS Same-Spin Scale       =       0.3333333333333333 [-]
	 SCS Opposite-Spin Scale   =       1.2000000000000000 [-]
	 SCS Same-Spin Energy      =      -0.1993669986864599 [Eh]
	 SCS Opposite-Spin Energy  =      -2.1332861580755105 [Eh]
	 SCS Correlation Energy    =      -2.3326531567619702 [Eh]
	 SCS Total Energy          =    -907.6233420207303197 [Eh]
	-----------------------------------------------------------

  Dipole Moment: [D]
     X:    -2.6043      Y:     2.0033      Z:     3.8139     Total:     5.0340

*** Psi4 exiting successfully. Buy a developer a beer!
