                               Psi4 1.3.2 release

  ==> Input File <==

--------------------------------------------------------------------------
#psi4
#
memory 32 gb

molecule  {
0 1
  S        0.7637890    -0.7221230    -0.3122950
  O        0.7428910    -1.8740890     0.5977740
  O        1.1390870    -0.8496890    -1.7151490
  N        1.7366500     0.4402300     0.3626080
  N       -1.8489830    -0.7837230     0.4594430
  N       -1.3270270     1.0745880    -0.6709160
  C       -0.8811970    -0.0860610    -0.1982810
  C        1.4606880     0.7318840     1.7727460
  C        1.9603790     1.6404280    -0.4583390
  C       -2.9965950    -0.0375860     0.3980590
  C       -2.6480900     1.1053220    -0.2992680
  H        1.3484140    -0.2039780     2.3191610
  H        0.5624770     1.3529910     1.8963580
  H        2.3234150     1.2701900     2.1711160
  H        2.1708410     1.3362470    -1.4821670
  H        2.8360500     2.1503740    -0.0502520
  H        1.0944390     2.3121220    -0.4419640
  H       -1.7008040    -1.6902470     0.8932800
  H       -3.9262080    -0.3702980     0.8362390
  H       -3.2806590     1.9452040    -0.5535070
units angstrom
no_reorient  #important for SAPT in psi4, default
symmetry c1  #important for SAPT in psi4, default
}

set PROPERTIES_ORIGIN ["COM"]
properties('MP2/aug-cc-pvtz', properties = ['dipole'])
--------------------------------------------------------------------------

    Molecular point group: c1
  Charge       = 0
  Multiplicity = 1
  Basis Set: AUG-CC-PVTZ
    Blend: AUG-CC-PVTZ
  Basis Set: (AUG-CC-PVTZ AUX)
    Blend: AUG-CC-PVTZ-JKFIT

    Orbital Energies [Eh]
    ---------------------

    Doubly Occupied:

       1A    -92.215834     2A    -20.558521     3A    -20.555900
       4A    -15.655151     5A    -15.611316     6A    -15.586670
       7A    -11.337503     8A    -11.293134     9A    -11.275286
      10A    -11.273528    11A    -11.266117    12A     -9.180353
      13A     -6.865572    14A     -6.865167    15A     -6.864747
      16A     -1.464354    17A     -1.370025    18A     -1.345425
      19A     -1.258023    20A     -1.198700    21A     -1.049998
      22A     -0.981724    23A     -0.959983    24A     -0.877142
      25A     -0.840573    26A     -0.818386    27A     -0.752933
      28A     -0.710725    29A     -0.676861    30A     -0.668177
      31A     -0.642682    32A     -0.632621    33A     -0.625144
      34A     -0.616984    35A     -0.608879    36A     -0.577237
      37A     -0.571123    38A     -0.541957    39A     -0.514048
      40A     -0.507925    41A     -0.485477    42A     -0.480023
      43A     -0.471469    44A     -0.429319    45A     -0.418074
      46A     -0.346094

  @DF-RHF Final Energy:  -905.30590888580059

   => Energetics <=

    Nuclear Repulsion Energy =            797.4731590838323427
    One-Electron Energy =               -2825.8643701332662204
    Two-Electron Energy =                1123.0853021636332869
    Total Energy =                       -905.3059088858005907
  Basis Set: (AUG-CC-PVTZ AUX)
    Blend: AUG-CC-PVTZ-RI
    Molecular point group: c1

    Geometry (in Angstrom), charge = 0, multiplicity = 1:

       Center              X                  Y                   Z               Mass
    ------------   -----------------  -----------------  -----------------  -----------------
         S            0.772084813478    -0.676402797710    -0.280704301523    31.972071174400
         O            0.751186813478    -1.828368797710     0.629364698477    15.994914619570
         O            1.147382813478    -0.803968797710    -1.683558301523    15.994914619570
         N            1.744945813478     0.485950202290     0.394198698477    14.003074004430
         N           -1.840687186522    -0.738002797710     0.491033698477    14.003074004430
         N           -1.318731186522     1.120308202290    -0.639325301523    14.003074004430
         C           -0.872901186522    -0.040340797710    -0.166690301523    12.000000000000
         C            1.468983813478     0.777604202290     1.804336698477    12.000000000000
         C            1.968674813478     1.686148202290    -0.426748301523    12.000000000000
         C           -2.988299186522     0.008134202290     0.429649698477    12.000000000000
         C           -2.639794186522     1.151042202290    -0.267677301523    12.000000000000
         H            1.356709813478    -0.158257797710     2.350751698477     1.007825032230
         H            0.570772813478     1.398711202290     1.927948698477     1.007825032230
         H            2.331710813478     1.315910202290     2.202706698477     1.007825032230
         H            2.179136813478     1.381967202290    -1.450576301523     1.007825032230
         H            2.844345813478     2.196094202290    -0.018661301523     1.007825032230
         H            1.102734813478     2.357842202290    -0.410373301523     1.007825032230
         H           -1.692508186522    -1.644526797710     0.924870698477     1.007825032230
         H           -3.917912186522    -0.324577797710     0.867829698477     1.007825032230
         H           -3.272363186522     1.990924202290    -0.521916301523     1.007825032230

  Basis Set: AUG-CC-PVTZ
    Blend: AUG-CC-PVTZ
  Basis Set: (AUG-CC-PVTZ AUX)
    Blend: AUG-CC-PVTZ-JKFIT
	 Reference Energy          =    -905.3059088858005907 [Eh]
	 Singles Energy            =      -0.0000000000000000 [Eh]
	 Same-Spin Energy          =      -0.5974772238181070 [Eh]
	 Opposite-Spin Energy      =      -1.7754572139408327 [Eh]
	 Correlation Energy        =      -2.3729344377589396 [Eh]
	 Total Energy              =    -907.6788433235594766 [Eh]

	 ================> DF-SCS-MP2 Energies <==================
	-----------------------------------------------------------
	 SCS Same-Spin Scale       =       0.3333333333333333 [-]
	 SCS Opposite-Spin Scale   =       1.2000000000000000 [-]
	 SCS Same-Spin Energy      =      -0.1991590746060357 [Eh]
	 SCS Opposite-Spin Energy  =      -2.1305486567289993 [Eh]
	 SCS Correlation Energy    =      -2.3297077313350352 [Eh]
	 SCS Total Energy          =    -907.6356166171356108 [Eh]
	-----------------------------------------------------------

  Dipole Moment: [D]
     X:    -2.6813      Y:     1.8903      Z:     3.5698     Total:     4.8483

*** Psi4 exiting successfully. Buy a developer a beer!
