                               Psi4 1.3.2 release

  ==> Input File <==

--------------------------------------------------------------------------
#psi4
#
memory 32 gb

molecule  {
0 1
  S        0.7637890    -0.7221230    -0.3122950
  O        0.7428910    -1.8740890     0.5977740
  O        1.1390870    -0.8496890    -1.7151490
  N        1.7366500     0.4402300     0.3626080
  N       -1.8489830    -0.7837230     0.4594430
  N       -1.3634195     1.0065621    -0.7995553
  C       -0.8811970    -0.0860610    -0.1982810
  C        1.4606880     0.7318840     1.7727460
  C        1.9603790     1.6404280    -0.4583390
  C       -2.9965950    -0.0375860     0.3980590
  C       -2.6480900     1.1053220    -0.2992680
  H        1.3484140    -0.2039780     2.3191610
  H        0.5624770     1.3529910     1.8963580
  H        2.3234150     1.2701900     2.1711160
  H        2.1708410     1.3362470    -1.4821670
  H        2.8360500     2.1503740    -0.0502520
  H        1.0944390     2.3121220    -0.4419640
  H       -1.7008040    -1.6902470     0.8932800
  H       -3.9262080    -0.3702980     0.8362390
  H       -3.2806590     1.9452040    -0.5535070
units angstrom
no_reorient  #important for SAPT in psi4, default
symmetry c1  #important for SAPT in psi4, default
}

set PROPERTIES_ORIGIN ["COM"]
properties('MP2/aug-cc-pvtz', properties = ['dipole'])
--------------------------------------------------------------------------

    Molecular point group: c1
  Charge       = 0
  Multiplicity = 1
  Basis Set: AUG-CC-PVTZ
    Blend: AUG-CC-PVTZ
  Basis Set: (AUG-CC-PVTZ AUX)
    Blend: AUG-CC-PVTZ-JKFIT

    Orbital Energies [Eh]
    ---------------------

    Doubly Occupied:

       1A    -92.215650     2A    -20.558511     3A    -20.555465
       4A    -15.655130     5A    -15.611815     6A    -15.588631
       7A    -11.338250     8A    -11.293537     9A    -11.276237
      10A    -11.274419    11A    -11.267190    12A     -9.180181
      13A     -6.865351    14A     -6.865017    15A     -6.864590
      16A     -1.464153    17A     -1.368386    18A     -1.345183
      19A     -1.258541    20A     -1.196103    21A     -1.049390
      22A     -0.982564    23A     -0.960467    24A     -0.877251
      25A     -0.838667    26A     -0.818288    27A     -0.752969
      28A     -0.710627    29A     -0.677517    30A     -0.668082
      31A     -0.640976    32A     -0.632111    33A     -0.625165
      34A     -0.617501    35A     -0.607127    36A     -0.577879
      37A     -0.571966    38A     -0.542662    39A     -0.513799
      40A     -0.507274    41A     -0.485692    42A     -0.479912
      43A     -0.474097    44A     -0.425041    45A     -0.418716
      46A     -0.345739

  @DF-RHF Final Energy:  -905.30059434509383

   => Energetics <=

    Nuclear Repulsion Energy =            796.7297378407004089
    One-Electron Energy =               -2824.3730263217767060
    Two-Electron Energy =                1122.3426941359825832
    Total Energy =                       -905.3005943450937139
  Basis Set: (AUG-CC-PVTZ AUX)
    Blend: AUG-CC-PVTZ-RI
    Molecular point group: c1

    Geometry (in Angstrom), charge = 0, multiplicity = 1:

       Center              X                  Y                   Z               Mass
    ------------   -----------------  -----------------  -----------------  -----------------
         S            0.774996161540    -0.670960822794    -0.270413341112    31.972071174400
         O            0.754098161540    -1.822926822794     0.639655658888    15.994914619570
         O            1.150294161540    -0.798526822794    -1.673267341112    15.994914619570
         N            1.747857161540     0.491392177206     0.404489658888    14.003074004430
         N           -1.837775838460    -0.732560822794     0.501324658888    14.003074004430
         N           -1.352212338460     1.057724277206    -0.757673641112    14.003074004430
         C           -0.869989838460    -0.034898822794    -0.156399341112    12.000000000000
         C            1.471895161540     0.783046177206     1.814627658888    12.000000000000
         C            1.971586161540     1.691590177206    -0.416457341112    12.000000000000
         C           -2.985387838460     0.013576177206     0.439940658888    12.000000000000
         C           -2.636882838460     1.156484177206    -0.257386341112    12.000000000000
         H            1.359621161540    -0.152815822794     2.361042658888     1.007825032230
         H            0.573684161540     1.404153177206     1.938239658888     1.007825032230
         H            2.334622161540     1.321352177206     2.212997658888     1.007825032230
         H            2.182048161540     1.387409177206    -1.440285341112     1.007825032230
         H            2.847257161540     2.201536177206    -0.008370341112     1.007825032230
         H            1.105646161540     2.363284177206    -0.400082341112     1.007825032230
         H           -1.689596838460    -1.639084822794     0.935161658888     1.007825032230
         H           -3.915000838460    -0.319135822794     0.878120658888     1.007825032230
         H           -3.269451838460     1.996366177206    -0.511625341112     1.007825032230

  Basis Set: AUG-CC-PVTZ
    Blend: AUG-CC-PVTZ
  Basis Set: (AUG-CC-PVTZ AUX)
    Blend: AUG-CC-PVTZ-JKFIT
	 Reference Energy          =    -905.3005943450938275 [Eh]
	 Singles Energy            =      -0.0000000000000000 [Eh]
	 Same-Spin Energy          =      -0.5976452949810960 [Eh]
	 Opposite-Spin Energy      =      -1.7761900657048546 [Eh]
	 Correlation Energy        =      -2.3738353606859506 [Eh]
	 Total Energy              =    -907.6744297057797439 [Eh]

	 ================> DF-SCS-MP2 Energies <==================
	-----------------------------------------------------------
	 SCS Same-Spin Scale       =       0.3333333333333333 [-]
	 SCS Opposite-Spin Scale   =       1.2000000000000000 [-]
	 SCS Same-Spin Energy      =      -0.1992150983270320 [Eh]
	 SCS Opposite-Spin Energy  =      -2.1314280788458255 [Eh]
	 SCS Correlation Energy    =      -2.3306431771728575 [Eh]
	 SCS Total Energy          =    -907.6312375222667015 [Eh]
	-----------------------------------------------------------

  Dipole Moment: [D]
     X:    -2.6299      Y:     1.9596      Z:     3.7160     Total:     4.9563

*** Psi4 exiting successfully. Buy a developer a beer!
