                               Psi4 1.3.2 release

  ==> Input File <==

--------------------------------------------------------------------------
#psi4
#
memory 32 gb

molecule  {
0 1
  S        0.7637890    -0.7221230    -0.3122950
  O        0.7428910    -1.8740890     0.5977740
  O        1.1390870    -0.8496890    -1.7151490
  N        1.7366500     0.4402300     0.3626080
  N       -1.8489830    -0.7837230     0.4594430
  N       -1.3391578     1.0519127    -0.7137958
  C       -0.8811970    -0.0860610    -0.1982810
  C        1.4606880     0.7318840     1.7727460
  C        1.9603790     1.6404280    -0.4583390
  C       -2.9965950    -0.0375860     0.3980590
  C       -2.6480900     1.1053220    -0.2992680
  H        1.3484140    -0.2039780     2.3191610
  H        0.5624770     1.3529910     1.8963580
  H        2.3234150     1.2701900     2.1711160
  H        2.1708410     1.3362470    -1.4821670
  H        2.8360500     2.1503740    -0.0502520
  H        1.0944390     2.3121220    -0.4419640
  H       -1.7008040    -1.6902470     0.8932800
  H       -3.9262080    -0.3702980     0.8362390
  H       -3.2806590     1.9452040    -0.5535070
units angstrom
no_reorient  #important for SAPT in psi4, default
symmetry c1  #important for SAPT in psi4, default
}

set PROPERTIES_ORIGIN ["COM"]
properties('MP2/aug-cc-pvtz', properties = ['dipole'])
--------------------------------------------------------------------------

    Molecular point group: c1
  Charge       = 0
  Multiplicity = 1
  Basis Set: AUG-CC-PVTZ
    Blend: AUG-CC-PVTZ
  Basis Set: (AUG-CC-PVTZ AUX)
    Blend: AUG-CC-PVTZ-JKFIT

    Orbital Energies [Eh]
    ---------------------

    Doubly Occupied:

       1A    -92.215787     2A    -20.558536     3A    -20.555740
       4A    -15.655088     5A    -15.611469     6A    -15.586881
       7A    -11.337434     8A    -11.293208     9A    -11.275611
      10A    -11.273589    11A    -11.266481    12A     -9.180306
      13A     -6.865510    14A     -6.865127    15A     -6.864706
      16A     -1.464292    17A     -1.369775    18A     -1.345357
      19A     -1.258192    20A     -1.198354    21A     -1.049884
      22A     -0.982006    23A     -0.960140    24A     -0.877174
      25A     -0.840305    26A     -0.818311    27A     -0.753009
      28A     -0.710719    29A     -0.677203    30A     -0.668140
      31A     -0.642166    32A     -0.632591    33A     -0.625248
      34A     -0.617308    35A     -0.608524    36A     -0.577466
      37A     -0.571409    38A     -0.542193    39A     -0.513979
      40A     -0.507716    41A     -0.485423    42A     -0.479975
      43A     -0.471928    44A     -0.428513    45A     -0.418355
      46A     -0.346148

  @DF-RHF Final Energy:  -905.30537692066241

   => Energetics <=

    Nuclear Repulsion Energy =            797.2923188023224839
    One-Electron Energy =               -2825.5008317480082951
    Two-Electron Energy =                1122.9031360250235139
    Total Energy =                       -905.3053769206624111
  Basis Set: (AUG-CC-PVTZ AUX)
    Blend: AUG-CC-PVTZ-RI
    Molecular point group: c1

    Geometry (in Angstrom), charge = 0, multiplicity = 1:

       Center              X                  Y                   Z               Mass
    ------------   -----------------  -----------------  -----------------  -----------------
         S            0.773055260165    -0.674588806071    -0.277273978719    31.972071174400
         O            0.752157260165    -1.826554806071     0.632795021281    15.994914619570
         O            1.148353260165    -0.802154806071    -1.680127978719    15.994914619570
         N            1.745916260165     0.487764193929     0.397629021281    14.003074004430
         N           -1.839716739835    -0.736188806071     0.494464021281    14.003074004430
         N           -1.329891539835     1.099446893929    -0.678774778719    14.003074004430
         C           -0.871930739835    -0.038526806071    -0.163259978719    12.000000000000
         C            1.469954260165     0.779418193929     1.807767021281    12.000000000000
         C            1.969645260165     1.687962193929    -0.423317978719    12.000000000000
         C           -2.987328739835     0.009948193929     0.433080021281    12.000000000000
         C           -2.638823739835     1.152856193929    -0.264246978719    12.000000000000
         H            1.357680260165    -0.156443806071     2.354182021281     1.007825032230
         H            0.571743260165     1.400525193929     1.931379021281     1.007825032230
         H            2.332681260165     1.317724193929     2.206137021281     1.007825032230
         H            2.180107260165     1.383781193929    -1.447145978719     1.007825032230
         H            2.845316260165     2.197908193929    -0.015230978719     1.007825032230
         H            1.103705260165     2.359656193929    -0.406942978719     1.007825032230
         H           -1.691537739835    -1.642712806071     0.928301021281     1.007825032230
         H           -3.916941739835    -0.322763806071     0.871260021281     1.007825032230
         H           -3.271392739835     1.992738193929    -0.518485978719     1.007825032230

  Basis Set: AUG-CC-PVTZ
    Blend: AUG-CC-PVTZ
  Basis Set: (AUG-CC-PVTZ AUX)
    Blend: AUG-CC-PVTZ-JKFIT
	 Reference Energy          =    -905.3053769206624111 [Eh]
	 Singles Energy            =      -0.0000000000000000 [Eh]
	 Same-Spin Energy          =      -0.5974668206879207 [Eh]
	 Opposite-Spin Energy      =      -1.7754980728659784 [Eh]
	 Correlation Energy        =      -2.3729648935538989 [Eh]
	 Total Energy              =    -907.6783418142163100 [Eh]

	 ================> DF-SCS-MP2 Energies <==================
	-----------------------------------------------------------
	 SCS Same-Spin Scale       =       0.3333333333333333 [-]
	 SCS Opposite-Spin Scale   =       1.2000000000000000 [-]
	 SCS Same-Spin Energy      =      -0.1991556068959736 [Eh]
	 SCS Opposite-Spin Energy  =      -2.1305976874391739 [Eh]
	 SCS Correlation Energy    =      -2.3297532943351476 [Eh]
	 SCS Total Energy          =    -907.6351302149975027 [Eh]
	-----------------------------------------------------------

  Dipole Moment: [D]
     X:    -2.6624      Y:     1.9139      Z:     3.6180     Total:     4.8828

*** Psi4 exiting successfully. Buy a developer a beer!
