                               Psi4 1.3.2 release

  ==> Input File <==

--------------------------------------------------------------------------
#psi4
#
memory 32 gb

molecule  {
0 1
  S        0.7637890    -0.7221230    -0.3122950
  O        0.7428910    -1.8740890     0.5977740
  O        1.1390870    -0.8496890    -1.7151490
  N        1.7366500     0.4402300     0.3626080
  N       -1.8489830    -0.7837230     0.4594430
  N       -1.3512887     1.0292374    -0.7566755
  C       -0.8811970    -0.0860610    -0.1982810
  C        1.4606880     0.7318840     1.7727460
  C        1.9603790     1.6404280    -0.4583390
  C       -2.9965950    -0.0375860     0.3980590
  C       -2.6480900     1.1053220    -0.2992680
  H        1.3484140    -0.2039780     2.3191610
  H        0.5624770     1.3529910     1.8963580
  H        2.3234150     1.2701900     2.1711160
  H        2.1708410     1.3362470    -1.4821670
  H        2.8360500     2.1503740    -0.0502520
  H        1.0944390     2.3121220    -0.4419640
  H       -1.7008040    -1.6902470     0.8932800
  H       -3.9262080    -0.3702980     0.8362390
  H       -3.2806590     1.9452040    -0.5535070
units angstrom
no_reorient  #important for SAPT in psi4, default
symmetry c1  #important for SAPT in psi4, default
}

set PROPERTIES_ORIGIN ["COM"]
properties('MP2/aug-cc-pvtz', properties = ['dipole'])
--------------------------------------------------------------------------

    Molecular point group: c1
  Charge       = 0
  Multiplicity = 1
  Basis Set: AUG-CC-PVTZ
    Blend: AUG-CC-PVTZ
  Basis Set: (AUG-CC-PVTZ AUX)
    Blend: AUG-CC-PVTZ-JKFIT

    Orbital Energies [Eh]
    ---------------------

    Doubly Occupied:

       1A    -92.215726     2A    -20.558533     3A    -20.555595
       4A    -15.655081     5A    -15.611636     6A    -15.587536
       7A    -11.337685     8A    -11.293343     9A    -11.275928
      10A    -11.273889    11A    -11.266839    12A     -9.180249
      13A     -6.865436    14A     -6.865078    15A     -6.864654
      16A     -1.464225    17A     -1.369223    18A     -1.345276
      19A     -1.258365    20A     -1.197491    21A     -1.049679
      22A     -0.982287    23A     -0.960302    24A     -0.877208
      25A     -0.839664    26A     -0.818278    27A     -0.753021
      28A     -0.710685    29A     -0.677421    30A     -0.668108
      31A     -0.641585    32A     -0.632420    33A     -0.625273
      34A     -0.617467    35A     -0.607951    36A     -0.577680
      37A     -0.571690    38A     -0.542429    39A     -0.513895
      40A     -0.507499    41A     -0.485489    42A     -0.479935
      43A     -0.472846    44A     -0.427049    45A     -0.418575
      46A     -0.346029

  @DF-RHF Final Energy:  -905.30361140514617

   => Energetics <=

    Nuclear Repulsion Energy =            797.0441746249620110
    One-Electron Energy =               -2825.0030668147719553
    Two-Electron Energy =                1122.6552807846637734
    Total Energy =                       -905.3036114051460572
  Basis Set: (AUG-CC-PVTZ AUX)
    Blend: AUG-CC-PVTZ-RI
    Molecular point group: c1

    Geometry (in Angstrom), charge = 0, multiplicity = 1:

       Center              X                  Y                   Z               Mass
    ------------   -----------------  -----------------  -----------------  -----------------
         S            0.774025714852    -0.672774814433    -0.273843663916    31.972071174400
         O            0.753127714852    -1.824740814433     0.636225336084    15.994914619570
         O            1.149323714852    -0.800340814433    -1.676697663916    15.994914619570
         N            1.746886714852     0.489578185567     0.401059336084    14.003074004430
         N           -1.838746285148    -0.734374814433     0.497894336084    14.003074004430
         N           -1.341051985148     1.078585585567    -0.718224163916    14.003074004430
         C           -0.870960285148    -0.036712814433    -0.159829663916    12.000000000000
         C            1.470924714852     0.781232185567     1.811197336084    12.000000000000
         C            1.970615714852     1.689776185567    -0.419887663916    12.000000000000
         C           -2.986358285148     0.011762185567     0.436510336084    12.000000000000
         C           -2.637853285148     1.154670185567    -0.260816663916    12.000000000000
         H            1.358650714852    -0.154629814433     2.357612336084     1.007825032230
         H            0.572713714852     1.402339185567     1.934809336084     1.007825032230
         H            2.333651714852     1.319538185567     2.209567336084     1.007825032230
         H            2.181077714852     1.385595185567    -1.443715663916     1.007825032230
         H            2.846286714852     2.199722185567    -0.011800663916     1.007825032230
         H            1.104675714852     2.361470185567    -0.403512663916     1.007825032230
         H           -1.690567285148    -1.640898814433     0.931731336084     1.007825032230
         H           -3.915971285148    -0.320949814433     0.874690336084     1.007825032230
         H           -3.270422285148     1.994552185567    -0.515055663916     1.007825032230

  Basis Set: AUG-CC-PVTZ
    Blend: AUG-CC-PVTZ
  Basis Set: (AUG-CC-PVTZ AUX)
    Blend: AUG-CC-PVTZ-JKFIT
	 Reference Energy          =    -905.3036114051461709 [Eh]
	 Singles Energy            =      -0.0000000000000000 [Eh]
	 Same-Spin Energy          =      -0.5975224647916684 [Eh]
	 Opposite-Spin Energy      =      -1.7757407851636169 [Eh]
	 Correlation Energy        =      -2.3732632499552855 [Eh]
	 Total Energy              =    -907.6768746551014146 [Eh]

	 ================> DF-SCS-MP2 Energies <==================
	-----------------------------------------------------------
	 SCS Same-Spin Scale       =       0.3333333333333333 [-]
	 SCS Opposite-Spin Scale   =       1.2000000000000000 [-]
	 SCS Same-Spin Energy      =      -0.1991741549305561 [Eh]
	 SCS Opposite-Spin Energy  =      -2.1308889421963402 [Eh]
	 SCS Correlation Energy    =      -2.3300630971268963 [Eh]
	 SCS Total Energy          =    -907.6336745022730383 [Eh]
	-----------------------------------------------------------

  Dipole Moment: [D]
     X:    -2.6452      Y:     1.9370      Z:     3.6669     Total:     4.9189

*** Psi4 exiting successfully. Buy a developer a beer!
