                               Psi4 1.3.2 release

  ==> Input File <==

--------------------------------------------------------------------------
#psi4
#
memory 32 gb

molecule  {
0 1
  S        0.7637890    -0.7221230    -0.3122950
  O        0.7428910    -1.8740890     0.5977740
  O        1.1390870    -0.8496890    -1.7151490
  N        1.7366500     0.4402300     0.3626080
  N       -1.8489830    -0.7837230     0.4594430
  N       -1.3270270     1.0745880    -0.6709160
  C       -0.8811970    -0.0860610    -0.1982810
  C        1.4606880     0.7318840     1.7727460
  C        1.9603790     1.6404280    -0.4583390
  C       -2.9965950    -0.0375860     0.3980590
  C       -2.6480900     1.1053220    -0.2992680
  H        1.3484140    -0.2039780     2.3191610
  H        0.5624770     1.3529910     1.8963580
  H        2.3234150     1.2701900     2.1711160
  H        2.1708410     1.3362470    -1.4821670
  H        2.8360500     2.1503740    -0.0502520
  H        1.0944390     2.3121220    -0.4419640
  H       -1.7008040    -1.6902470     0.8932800
  H       -3.9262080    -0.3702980     0.8362390
  H       -3.3434424     1.8332517    -0.7680412
units angstrom
no_reorient  #important for SAPT in psi4, default
symmetry c1  #important for SAPT in psi4, default
}

set PROPERTIES_ORIGIN ["COM"]
properties('MP2/aug-cc-pvtz', properties = ['dipole'])
--------------------------------------------------------------------------

    Molecular point group: c1
  Charge       = 0
  Multiplicity = 1
  Basis Set: AUG-CC-PVTZ
    Blend: AUG-CC-PVTZ
  Basis Set: (AUG-CC-PVTZ AUX)
    Blend: AUG-CC-PVTZ-JKFIT

    Orbital Energies [Eh]
    ---------------------

    Doubly Occupied:

       1A    -92.216028     2A    -20.558688     3A    -20.556207
       4A    -15.655555     5A    -15.611355     6A    -15.586912
       7A    -11.337878     8A    -11.293906     9A    -11.275604
      10A    -11.275250    11A    -11.266129    12A     -9.180554
      13A     -6.865781    14A     -6.865362    15A     -6.864943
      16A     -1.464578    17A     -1.370446    18A     -1.345651
      19A     -1.258090    20A     -1.198923    21A     -1.049861
      22A     -0.981728    23A     -0.959975    24A     -0.877318
      25A     -0.837201    26A     -0.818776    27A     -0.752882
      28A     -0.710622    29A     -0.677115    30A     -0.668432
      31A     -0.643388    32A     -0.632511    33A     -0.627482
      34A     -0.612681    35A     -0.603657    36A     -0.576753
      37A     -0.571188    38A     -0.541977    39A     -0.514309
      40A     -0.508267    41A     -0.485241    42A     -0.480241
      43A     -0.471773    44A     -0.428903    45A     -0.418044
      46A     -0.346081

  @DF-RHF Final Energy:  -905.30183715589055

   => Energetics <=

    Nuclear Repulsion Energy =            797.3297590214746151
    One-Electron Energy =               -2825.5747004255554202
    Two-Electron Energy =                1122.9431042481901386
    Total Energy =                       -905.3018371558905528
  Basis Set: (AUG-CC-PVTZ AUX)
    Blend: AUG-CC-PVTZ-RI
    Molecular point group: c1

    Geometry (in Angstrom), charge = 0, multiplicity = 1:

       Center              X                  Y                   Z               Mass
    ------------   -----------------  -----------------  -----------------  -----------------
         S            0.772446297268    -0.675758217427    -0.279469092283    31.972071174400
         O            0.751548297268    -1.827724217427     0.630599907717    15.994914619570
         O            1.147744297268    -0.803324217427    -1.682323092283    15.994914619570
         N            1.745307297268     0.486594782573     0.395433907717    14.003074004430
         N           -1.840325702732    -0.737358217427     0.492268907717    14.003074004430
         N           -1.318369702732     1.120952782573    -0.638090092283    14.003074004430
         C           -0.872539702732    -0.039696217427    -0.165455092283    12.000000000000
         C            1.469345297268     0.778248782573     1.805571907717    12.000000000000
         C            1.969036297268     1.686792782573    -0.425513092283    12.000000000000
         C           -2.987937702732     0.008778782573     0.430884907717    12.000000000000
         C           -2.639432702732     1.151686782573    -0.266442092283    12.000000000000
         H            1.357071297268    -0.157613217427     2.351986907717     1.007825032230
         H            0.571134297268     1.399355782573     1.929183907717     1.007825032230
         H            2.332072297268     1.316554782573     2.203941907717     1.007825032230
         H            2.179498297268     1.382611782573    -1.449341092283     1.007825032230
         H            2.844707297268     2.196738782573    -0.017426092283     1.007825032230
         H            1.103096297268     2.358486782573    -0.409138092283     1.007825032230
         H           -1.692146702732    -1.643882217427     0.926105907717     1.007825032230
         H           -3.917550702732    -0.323933217427     0.869064907717     1.007825032230
         H           -3.334785102732     1.879616482573    -0.735215292283     1.007825032230

  Basis Set: AUG-CC-PVTZ
    Blend: AUG-CC-PVTZ
  Basis Set: (AUG-CC-PVTZ AUX)
    Blend: AUG-CC-PVTZ-JKFIT
	 Reference Energy          =    -905.3018371558905528 [Eh]
	 Singles Energy            =      -0.0000000000000000 [Eh]
	 Same-Spin Energy          =      -0.5976621657697564 [Eh]
	 Opposite-Spin Energy      =      -1.7759205027804501 [Eh]
	 Correlation Energy        =      -2.3735826685502066 [Eh]
	 Total Energy              =    -907.6754198244407235 [Eh]

	 ================> DF-SCS-MP2 Energies <==================
	-----------------------------------------------------------
	 SCS Same-Spin Scale       =       0.3333333333333333 [-]
	 SCS Opposite-Spin Scale   =       1.2000000000000000 [-]
	 SCS Same-Spin Energy      =      -0.1992207219232521 [Eh]
	 SCS Opposite-Spin Energy  =      -2.1311046033365399 [Eh]
	 SCS Correlation Energy    =      -2.3303253252597922 [Eh]
	 SCS Total Energy          =    -907.6321624811503170 [Eh]
	-----------------------------------------------------------

  Dipole Moment: [D]
     X:    -2.6851      Y:     1.7725      Z:     3.4269     Total:     4.7006

*** Psi4 exiting successfully. Buy a developer a beer!
