                               Psi4 1.3.2 release

  ==> Input File <==

--------------------------------------------------------------------------
#psi4
#
memory 32 gb

molecule  {
0 1
  N        0.0000070     1.4263630    -0.0000270
  C        1.1454080     0.7211130    -0.0000270
  H        2.0620700     1.3085300     0.0002900
  C        1.1977090    -0.6737460    -0.0000200
  H        2.1568670    -1.1842320     0.0001540
  C        0.0000025    -1.3877885    -0.1000410
  H       -0.0000130    -2.4750110     0.0001390
  C       -1.1977160    -0.6737350    -0.0000180
  H       -2.1568770    -1.1842140     0.0001640
  C       -1.1454010     0.7211250    -0.0000380
  H       -2.0620580     1.3085500     0.0003070
units angstrom
no_reorient  #important for SAPT in psi4, default
symmetry c1  #important for SAPT in psi4, default
}

set PROPERTIES_ORIGIN ["COM"]
properties('MP2/aug-cc-pvtz', properties = ['dipole'])
--------------------------------------------------------------------------

    Molecular point group: c1
  Charge       = 0
  Multiplicity = 1
  Basis Set: AUG-CC-PVTZ
    Blend: AUG-CC-PVTZ
  Basis Set: (AUG-CC-PVTZ AUX)
    Blend: AUG-CC-PVTZ-JKFIT

    Orbital Energies [Eh]
    ---------------------

    Doubly Occupied:

       1A    -15.569321     2A    -11.277550     3A    -11.277533
       4A    -11.263784     5A    -11.245582     6A    -11.245533
       7A     -1.254084     8A     -1.087822     9A     -1.032452
      10A     -0.858098    11A     -0.854122    12A     -0.718927
      13A     -0.658545    14A     -0.653614    15A     -0.597496
      16A     -0.575014    17A     -0.539046    18A     -0.518941
      19A     -0.420618    20A     -0.383359    21A     -0.347446

  @DF-RHF Final Energy:  -246.77405657300983

   => Energetics <=

    Nuclear Repulsion Energy =            205.4783555571865747
    One-Electron Energy =                -739.7470494091090814
    Two-Electron Energy =                 287.4946372789127054
    Total Energy =                       -246.7740565730098297
  Basis Set: (AUG-CC-PVTZ AUX)
    Blend: AUG-CC-PVTZ-RI
    Molecular point group: c1

    Geometry (in Angstrom), charge = 0, multiplicity = 1:

       Center              X                  Y                   Z               Mass
    ------------   -----------------  -----------------  -----------------  -----------------
         N            0.000005520595     1.398361626079     0.015167969878    14.003074004430
         C            1.145406520595     0.693111626079     0.015167969878    12.000000000000
         H            2.062068520595     1.280528626079     0.015484969878     1.007825032230
         C            1.197707520595    -0.701747373921     0.015174969878    12.000000000000
         H            2.156865520595    -1.212233373921     0.015348969878     1.007825032230
         C            0.000001020595    -1.415789873921    -0.084846030122    12.000000000000
         H           -0.000014479405    -2.503012373921     0.015333969878     1.007825032230
         C           -1.197717479405    -0.701736373921     0.015176969878    12.000000000000
         H           -2.156878479405    -1.212215373921     0.015358969878     1.007825032230
         C           -1.145402479405     0.693123626079     0.015156969878    12.000000000000
         H           -2.062059479405     1.280548626079     0.015501969878     1.007825032230

  Basis Set: AUG-CC-PVTZ
    Blend: AUG-CC-PVTZ
  Basis Set: (AUG-CC-PVTZ AUX)
    Blend: AUG-CC-PVTZ-JKFIT
	 Reference Energy          =    -246.7740565730098297 [Eh]
	 Singles Energy            =      -0.0000000000000000 [Eh]
	 Same-Spin Energy          =      -0.2691114644725626 [Eh]
	 Opposite-Spin Energy      =      -0.8398500229449283 [Eh]
	 Correlation Energy        =      -1.1089614874174909 [Eh]
	 Total Energy              =    -247.8830180604273323 [Eh]

	 ================> DF-SCS-MP2 Energies <==================
	-----------------------------------------------------------
	 SCS Same-Spin Scale       =       0.3333333333333333 [-]
	 SCS Opposite-Spin Scale   =       1.2000000000000000 [-]
	 SCS Same-Spin Energy      =      -0.0897038214908542 [Eh]
	 SCS Opposite-Spin Energy  =      -1.0078200275339140 [Eh]
	 SCS Correlation Energy    =      -1.0975238490247681 [Eh]
	 SCS Total Energy          =    -247.8715804220346115 [Eh]
	-----------------------------------------------------------

  Dipole Moment: [D]
     X:    -0.0000      Y:    -2.3242      Z:     0.0593     Total:     2.3250

*** Psi4 exiting successfully. Buy a developer a beer!
