                               Psi4 1.3.2 release

  ==> Input File <==

--------------------------------------------------------------------------
#psi4
#
memory 32 gb

molecule  {
0 1
  N        0.0000070     1.4263630    -0.0000270
  C        1.1454080     0.7211130    -0.0000270
  H        2.0620700     1.3085300     0.0002900
  C        1.1977407    -0.6737286    -0.2000200
  H        2.1568670    -1.1842320     0.0001540
  C       -0.0000070    -1.3877840    -0.0000410
  H       -0.0000130    -2.4750110     0.0001390
  C       -1.1977160    -0.6737350    -0.0000180
  H       -2.1568770    -1.1842140     0.0001640
  C       -1.1454010     0.7211250    -0.0000380
  H       -2.0620580     1.3085500     0.0003070
units angstrom
no_reorient  #important for SAPT in psi4, default
symmetry c1  #important for SAPT in psi4, default
}

set PROPERTIES_ORIGIN ["COM"]
properties('MP2/aug-cc-pvtz', properties = ['dipole'])
--------------------------------------------------------------------------

    Molecular point group: c1
  Charge       = 0
  Multiplicity = 1
  Basis Set: AUG-CC-PVTZ
    Blend: AUG-CC-PVTZ
  Basis Set: (AUG-CC-PVTZ AUX)
    Blend: AUG-CC-PVTZ-JKFIT

    Orbital Energies [Eh]
    ---------------------

    Doubly Occupied:

       1A    -15.568627     2A    -11.281337     3A    -11.279807
       4A    -11.266107     5A    -11.248028     6A    -11.244368
       7A     -1.254153     8A     -1.086986     9A     -1.031151
      10A     -0.856623    11A     -0.853811    12A     -0.718687
      13A     -0.656381    14A     -0.650496    15A     -0.594958
      16A     -0.575761    17A     -0.538826    18A     -0.516470
      19A     -0.420396    20A     -0.382463    21A     -0.347314

  @DF-RHF Final Energy:  -246.76540625328460

   => Energetics <=

    Nuclear Repulsion Energy =            205.1656136319523398
    One-Electron Energy =                -739.1165417560289370
    Two-Electron Energy =                 287.1855218707920585
    Total Energy =                       -246.7654062532845956
  Basis Set: (AUG-CC-PVTZ AUX)
    Blend: AUG-CC-PVTZ-RI
    Molecular point group: c1

    Geometry (in Angstrom), charge = 0, multiplicity = 1:

       Center              X                  Y                   Z               Mass
    ------------   -----------------  -----------------  -----------------  -----------------
         N            0.000002150243     1.398358301272     0.030349733704    14.003074004430
         C            1.145403150243     0.693108301272     0.030349733704    12.000000000000
         H            2.062065150243     1.280525301272     0.030666733704     1.007825032230
         C            1.197735850243    -0.701733298728    -0.169643266296    12.000000000000
         H            2.156862150243    -1.212236698728     0.030530733704     1.007825032230
         C           -0.000011849757    -1.415788698728     0.030335733704    12.000000000000
         H           -0.000017849757    -2.503015698728     0.030515733704     1.007825032230
         C           -1.197720849757    -0.701739698728     0.030358733704    12.000000000000
         H           -2.156881849757    -1.212218698728     0.030540733704     1.007825032230
         C           -1.145405849757     0.693120301272     0.030338733704    12.000000000000
         H           -2.062062849757     1.280545301272     0.030683733704     1.007825032230

  Basis Set: AUG-CC-PVTZ
    Blend: AUG-CC-PVTZ
  Basis Set: (AUG-CC-PVTZ AUX)
    Blend: AUG-CC-PVTZ-JKFIT
	 Reference Energy          =    -246.7654062532845956 [Eh]
	 Singles Energy            =      -0.0000000000000000 [Eh]
	 Same-Spin Energy          =      -0.2692998997851578 [Eh]
	 Opposite-Spin Energy      =      -0.8407500312872722 [Eh]
	 Correlation Energy        =      -1.1100499310724299 [Eh]
	 Total Energy              =    -247.8754561843570343 [Eh]

	 ================> DF-SCS-MP2 Energies <==================
	-----------------------------------------------------------
	 SCS Same-Spin Scale       =       0.3333333333333333 [-]
	 SCS Opposite-Spin Scale   =       1.2000000000000000 [-]
	 SCS Same-Spin Energy      =      -0.0897666332617193 [Eh]
	 SCS Opposite-Spin Energy  =      -1.0089000375447266 [Eh]
	 SCS Correlation Energy    =      -1.0986666708064459 [Eh]
	 SCS Total Energy          =    -247.8640729240910332 [Eh]
	-----------------------------------------------------------

  Dipole Moment: [D]
     X:    -0.0663      Y:    -2.2942      Z:     0.0796     Total:     2.2966

*** Psi4 exiting successfully. Buy a developer a beer!
