                               Psi4 1.3.2 release

  ==> Input File <==

--------------------------------------------------------------------------
#psi4
#
memory 32 gb

molecule  {
0 1
  N        0.0000070     1.4263630    -0.0000270
  C        1.1454080     0.7211130    -0.0000270
  H        2.0620700     1.3085300     0.0002900
  C        1.1977169    -0.6737416    -0.0500200
  H        2.1568670    -1.1842320     0.0001540
  C       -0.0000070    -1.3877840    -0.0000410
  H       -0.0000130    -2.4750110     0.0001390
  C       -1.1977160    -0.6737350    -0.0000180
  H       -2.1568770    -1.1842140     0.0001640
  C       -1.1454010     0.7211250    -0.0000380
  H       -2.0620580     1.3085500     0.0003070
units angstrom
no_reorient  #important for SAPT in psi4, default
symmetry c1  #important for SAPT in psi4, default
}

set PROPERTIES_ORIGIN ["COM"]
properties('MP2/aug-cc-pvtz', properties = ['dipole'])
--------------------------------------------------------------------------

    Molecular point group: c1
  Charge       = 0
  Multiplicity = 1
  Basis Set: AUG-CC-PVTZ
    Blend: AUG-CC-PVTZ
  Basis Set: (AUG-CC-PVTZ AUX)
    Blend: AUG-CC-PVTZ-JKFIT

    Orbital Energies [Eh]
    ---------------------

    Doubly Occupied:

       1A    -15.568851     2A    -11.277854     3A    -11.277752
       4A    -11.262999     5A    -11.244899     6A    -11.244656
       7A     -1.254004     8A     -1.088501     9A     -1.032403
      10A     -0.858255    11A     -0.854523    12A     -0.719733
      13A     -0.659076    14A     -0.653261    15A     -0.597316
      16A     -0.576248    17A     -0.539680    18A     -0.519202
      19A     -0.420418    20A     -0.383438    21A     -0.347792

  @DF-RHF Final Energy:  -246.77660586646743

   => Energetics <=

    Nuclear Repulsion Energy =            205.5569336624733126
    One-Electron Energy =                -739.9053613138910350
    Two-Electron Energy =                 287.5718217849503162
    Total Energy =                       -246.7766058664674347
  Basis Set: (AUG-CC-PVTZ AUX)
    Blend: AUG-CC-PVTZ-RI
    Molecular point group: c1

    Geometry (in Angstrom), charge = 0, multiplicity = 1:

       Center              X                  Y                   Z               Mass
    ------------   -----------------  -----------------  -----------------  -----------------
         N            0.000005763503     1.398360274902     0.007577087965    14.003074004430
         C            1.145406763503     0.693110274902     0.007577087965    12.000000000000
         H            2.062068763503     1.280527274902     0.007894087965     1.007825032230
         C            1.197715663503    -0.701744325098    -0.042415912035    12.000000000000
         H            2.156865763503    -1.212234725098     0.007758087965     1.007825032230
         C           -0.000008236497    -1.415786725098     0.007563087965    12.000000000000
         H           -0.000014236497    -2.503013725098     0.007743087965     1.007825032230
         C           -1.197717236497    -0.701737725098     0.007586087965    12.000000000000
         H           -2.156878236497    -1.212216725098     0.007768087965     1.007825032230
         C           -1.145402236497     0.693122274902     0.007566087965    12.000000000000
         H           -2.062059236497     1.280547274902     0.007911087965     1.007825032230

  Basis Set: AUG-CC-PVTZ
    Blend: AUG-CC-PVTZ
  Basis Set: (AUG-CC-PVTZ AUX)
    Blend: AUG-CC-PVTZ-JKFIT
	 Reference Energy          =    -246.7766058664674347 [Eh]
	 Singles Energy            =      -0.0000000000000000 [Eh]
	 Same-Spin Energy          =      -0.2689567767108808 [Eh]
	 Opposite-Spin Energy      =      -0.8395207131487554 [Eh]
	 Correlation Energy        =      -1.1084774898596361 [Eh]
	 Total Energy              =    -247.8850833563270726 [Eh]

	 ================> DF-SCS-MP2 Energies <==================
	-----------------------------------------------------------
	 SCS Same-Spin Scale       =       0.3333333333333333 [-]
	 SCS Opposite-Spin Scale   =       1.2000000000000000 [-]
	 SCS Same-Spin Energy      =      -0.0896522589036269 [Eh]
	 SCS Opposite-Spin Energy  =      -1.0074248557785064 [Eh]
	 SCS Correlation Energy    =      -1.0970771146821332 [Eh]
	 SCS Total Energy          =    -247.8736829811495568 [Eh]
	-----------------------------------------------------------

  Dipole Moment: [D]
     X:    -0.0042      Y:    -2.3402      Z:     0.0195     Total:     2.3403

*** Psi4 exiting successfully. Buy a developer a beer!
