                               Psi4 1.3.2 release

  ==> Input File <==

--------------------------------------------------------------------------
#psi4
#
memory 32 gb

molecule  {
0 1
  N        0.0000070     1.4263630    -0.0000270
  C        1.1454080     0.7211130    -0.0000270
  H        2.0620700     1.3085300     0.0002900
  C        1.1977090    -0.6737460    -0.0000200
  H        2.1568670    -1.1842320     0.0001540
  C       -0.0000070    -1.3877840    -0.0000410
  H       -0.0000130    -2.4750110     0.0001390
  C       -1.1977162    -0.6737525    -0.2000180
  H       -2.1568770    -1.1842140     0.0001640
  C       -1.1454010     0.7211250    -0.0000380
  H       -2.0620580     1.3085500     0.0003070
units angstrom
no_reorient  #important for SAPT in psi4, default
symmetry c1  #important for SAPT in psi4, default
}

set PROPERTIES_ORIGIN ["COM"]
properties('MP2/aug-cc-pvtz', properties = ['dipole'])
--------------------------------------------------------------------------

    Molecular point group: c1
  Charge       = 0
  Multiplicity = 1
  Basis Set: AUG-CC-PVTZ
    Blend: AUG-CC-PVTZ
  Basis Set: (AUG-CC-PVTZ AUX)
    Blend: AUG-CC-PVTZ-JKFIT

    Orbital Energies [Eh]
    ---------------------

    Doubly Occupied:

       1A    -15.568627     2A    -11.281342     3A    -11.279805
       4A    -11.266102     5A    -11.248029     6A    -11.244367
       7A     -1.254153     8A     -1.086992     9A     -1.031147
      10A     -0.856619    11A     -0.853815    12A     -0.718687
      13A     -0.656382    14A     -0.650495    15A     -0.594954
      16A     -0.575762    17A     -0.538825    18A     -0.516475
      19A     -0.420394    20A     -0.382468    21A     -0.347310

  @DF-RHF Final Energy:  -246.76540679296772

   => Energetics <=

    Nuclear Repulsion Energy =            205.1657930884613847
    One-Electron Energy =                -739.1168993576241064
    Two-Electron Energy =                 287.1856994761949409
    Total Energy =                       -246.7654067929677240
  Basis Set: (AUG-CC-PVTZ AUX)
    Blend: AUG-CC-PVTZ-RI
    Molecular point group: c1

    Geometry (in Angstrom), charge = 0, multiplicity = 1:

       Center              X                  Y                   Z               Mass
    ------------   -----------------  -----------------  -----------------  -----------------
         N            0.000006993226     1.398363599708     0.030349733704    14.003074004430
         C            1.145407993226     0.693113599708     0.030349733704    12.000000000000
         H            2.062069993226     1.280530599708     0.030666733704     1.007825032230
         C            1.197708993226    -0.701745400292     0.030356733704    12.000000000000
         H            2.156866993226    -1.212231400292     0.030530733704     1.007825032230
         C           -0.000007006774    -1.415783400292     0.030335733704    12.000000000000
         H           -0.000013006774    -2.503010400292     0.030515733704     1.007825032230
         C           -1.197716206774    -0.701751900292    -0.169641266296    12.000000000000
         H           -2.156877006774    -1.212213400292     0.030540733704     1.007825032230
         C           -1.145401006774     0.693125599708     0.030338733704    12.000000000000
         H           -2.062058006774     1.280550599708     0.030683733704     1.007825032230

  Basis Set: AUG-CC-PVTZ
    Blend: AUG-CC-PVTZ
  Basis Set: (AUG-CC-PVTZ AUX)
    Blend: AUG-CC-PVTZ-JKFIT
	 Reference Energy          =    -246.7654067929677240 [Eh]
	 Singles Energy            =      -0.0000000000000000 [Eh]
	 Same-Spin Energy          =      -0.2692999266408945 [Eh]
	 Opposite-Spin Energy      =      -0.8407499247326827 [Eh]
	 Correlation Energy        =      -1.1100498513735773 [Eh]
	 Total Energy              =    -247.8754566443413125 [Eh]

	 ================> DF-SCS-MP2 Energies <==================
	-----------------------------------------------------------
	 SCS Same-Spin Scale       =       0.3333333333333333 [-]
	 SCS Opposite-Spin Scale   =       1.2000000000000000 [-]
	 SCS Same-Spin Energy      =      -0.0897666422136315 [Eh]
	 SCS Opposite-Spin Energy  =      -1.0088999096792193 [Eh]
	 SCS Correlation Energy    =      -1.0986665518928507 [Eh]
	 SCS Total Energy          =    -247.8640733448605715 [Eh]
	-----------------------------------------------------------

  Dipole Moment: [D]
     X:     0.0663      Y:    -2.2942      Z:     0.0796     Total:     2.2966

*** Psi4 exiting successfully. Buy a developer a beer!
