                               Psi4 1.3.2 release

  ==> Input File <==

--------------------------------------------------------------------------
#psi4
#
memory 32 gb

molecule  {
0 1
  N        0.0000070     1.4263630    -0.0000270
  C        1.1454080     0.7211130    -0.0000270
  H        2.0620700     1.3085300     0.0002900
  C        1.1977090    -0.6737460    -0.0000200
  H        2.1568670    -1.1842320     0.0001540
  C       -0.0000070    -1.3877840    -0.0000410
  H       -0.0000130    -2.4750110     0.0001390
  C       -1.1977163    -0.6737613    -0.3000180
  H       -2.1568770    -1.1842140     0.0001640
  C       -1.1454010     0.7211250    -0.0000380
  H       -2.0620580     1.3085500     0.0003070
units angstrom
no_reorient  #important for SAPT in psi4, default
symmetry c1  #important for SAPT in psi4, default
}

set PROPERTIES_ORIGIN ["COM"]
properties('MP2/aug-cc-pvtz', properties = ['dipole'])
--------------------------------------------------------------------------

    Molecular point group: c1
  Charge       = 0
  Multiplicity = 1
  Basis Set: AUG-CC-PVTZ
    Blend: AUG-CC-PVTZ
  Basis Set: (AUG-CC-PVTZ AUX)
    Blend: AUG-CC-PVTZ-JKFIT

    Orbital Energies [Eh]
    ---------------------

    Doubly Occupied:

       1A    -15.568460     2A    -11.285798     3A    -11.282604
       4A    -11.270063     5A    -11.251966     6A    -11.244098
       7A     -1.254451     8A     -1.085169     9A     -1.029381
      10A     -0.855033    11A     -0.852613    12A     -0.717908
      13A     -0.653157    14A     -0.647466    15A     -0.591624
      16A     -0.574929    17A     -0.537953    18A     -0.512397
      19A     -0.420285    20A     -0.381389    21A     -0.346817

  @DF-RHF Final Energy:  -246.75016071701435

   => Energetics <=

    Nuclear Repulsion Energy =            204.6599072164968334
    One-Electron Energy =                -738.0930121971803146
    Two-Electron Energy =                 286.6829442636691851
    Total Energy =                       -246.7501607170143529
  Basis Set: (AUG-CC-PVTZ AUX)
    Blend: AUG-CC-PVTZ-RI
    Molecular point group: c1

    Geometry (in Angstrom), charge = 0, multiplicity = 1:

       Center              X                  Y                   Z               Mass
    ------------   -----------------  -----------------  -----------------  -----------------
         N            0.000007008408     1.398364935703     0.045531497530    14.003074004430
         C            1.145408008408     0.693114935703     0.045531497530    12.000000000000
         H            2.062070008408     1.280531935703     0.045848497530     1.007825032230
         C            1.197709008408    -0.701744064297     0.045538497530    12.000000000000
         H            2.156867008408    -1.212230064297     0.045712497530     1.007825032230
         C           -0.000006991592    -1.415782064297     0.045517497530    12.000000000000
         H           -0.000012991592    -2.503009064297     0.045697497530     1.007825032230
         C           -1.197716291592    -0.701759364297    -0.254459502470    12.000000000000
         H           -2.156876991592    -1.212212064297     0.045722497530     1.007825032230
         C           -1.145400991592     0.693126935703     0.045520497530    12.000000000000
         H           -2.062057991592     1.280551935703     0.045865497530     1.007825032230

  Basis Set: AUG-CC-PVTZ
    Blend: AUG-CC-PVTZ
  Basis Set: (AUG-CC-PVTZ AUX)
    Blend: AUG-CC-PVTZ-JKFIT
	 Reference Energy          =    -246.7501607170143529 [Eh]
	 Singles Energy            =      -0.0000000000000000 [Eh]
	 Same-Spin Energy          =      -0.2697364511564617 [Eh]
	 Opposite-Spin Energy      =      -0.8425483179042417 [Eh]
	 Correlation Energy        =      -1.1122847690607034 [Eh]
	 Total Energy              =    -247.8624454860750461 [Eh]

	 ================> DF-SCS-MP2 Energies <==================
	-----------------------------------------------------------
	 SCS Same-Spin Scale       =       0.3333333333333333 [-]
	 SCS Opposite-Spin Scale   =       1.2000000000000000 [-]
	 SCS Same-Spin Energy      =      -0.0899121503854872 [Eh]
	 SCS Opposite-Spin Energy  =      -1.0110579814850900 [Eh]
	 SCS Correlation Energy    =      -1.1009701318705771 [Eh]
	 SCS Total Energy          =    -247.8511308488849352 [Eh]
	-----------------------------------------------------------

  Dipole Moment: [D]
     X:     0.1476      Y:    -2.2346      Z:     0.1248     Total:     2.2429

*** Psi4 exiting successfully. Buy a developer a beer!
