                               Psi4 1.3.2 release

  ==> Input File <==

--------------------------------------------------------------------------
#psi4
#
memory 32 gb

molecule  {
0 1
  N        0.0000070     1.4263630    -0.0000270
  C        1.1454080     0.7211130    -0.0000270
  H        2.0620700     1.3085300     0.0002900
  C        1.1977090    -0.6737460    -0.0000200
  H        2.1568670    -1.1842320     0.0001540
  C       -0.0000023    -1.3877862    -0.0500410
  H       -0.0000130    -2.4750110     0.0001390
  C       -1.1977160    -0.6737350    -0.0000180
  H       -2.1568770    -1.1842140     0.0001640
  C       -1.1454010     0.7211250    -0.0000380
  H       -2.0620580     1.3085500     0.0003070
units angstrom
no_reorient  #important for SAPT in psi4, default
symmetry c1  #important for SAPT in psi4, default
}

set PROPERTIES_ORIGIN ["COM"]
properties('MP2/aug-cc-pvtz', properties = ['dipole'])
--------------------------------------------------------------------------

    Molecular point group: c1
  Charge       = 0
  Multiplicity = 1
  Basis Set: AUG-CC-PVTZ
    Blend: AUG-CC-PVTZ
  Basis Set: (AUG-CC-PVTZ AUX)
    Blend: AUG-CC-PVTZ-JKFIT

    Orbital Energies [Eh]
    ---------------------

    Doubly Occupied:

       1A    -15.568983     2A    -11.277605     3A    -11.277589
       4A    -11.263037     5A    -11.244927     6A    -11.244877
       7A     -1.254018     8A     -1.088411     9A     -1.032476
      10A     -0.858306    11A     -0.854454    12A     -0.719593
      13A     -0.659083    14A     -0.653498    15A     -0.597474
      16A     -0.575959    17A     -0.539571    18A     -0.519266
      19A     -0.420467    20A     -0.383471    21A     -0.347731

  @DF-RHF Final Energy:  -246.77652321810376

   => Energetics <=

    Nuclear Repulsion Energy =            205.5570790488932005
    One-Electron Energy =                -739.9056149669208935
    Two-Electron Energy =                 287.5720126999239028
    Total Energy =                       -246.7765232181037618
  Basis Set: (AUG-CC-PVTZ AUX)
    Blend: AUG-CC-PVTZ-RI
    Molecular point group: c1

    Geometry (in Angstrom), charge = 0, multiplicity = 1:

       Center              X                  Y                   Z               Mass
    ------------   -----------------  -----------------  -----------------  -----------------
         N            0.000006249319     1.398361276898     0.007577087965    14.003074004430
         C            1.145407249319     0.693111276898     0.007577087965    12.000000000000
         H            2.062069249319     1.280528276898     0.007894087965     1.007825032230
         C            1.197708249319    -0.701747723102     0.007584087965    12.000000000000
         H            2.156866249319    -1.212233723102     0.007758087965     1.007825032230
         C           -0.000003050681    -1.415787923102    -0.042436912035    12.000000000000
         H           -0.000013750681    -2.503012723102     0.007743087965     1.007825032230
         C           -1.197716750681    -0.701736723102     0.007586087965    12.000000000000
         H           -2.156877750681    -1.212215723102     0.007768087965     1.007825032230
         C           -1.145401750681     0.693123276898     0.007566087965    12.000000000000
         H           -2.062058750681     1.280548276898     0.007911087965     1.007825032230

  Basis Set: AUG-CC-PVTZ
    Blend: AUG-CC-PVTZ
  Basis Set: (AUG-CC-PVTZ AUX)
    Blend: AUG-CC-PVTZ-JKFIT
	 Reference Energy          =    -246.7765232181037618 [Eh]
	 Singles Energy            =      -0.0000000000000000 [Eh]
	 Same-Spin Energy          =      -0.2689780730819034 [Eh]
	 Opposite-Spin Energy      =      -0.8395483345495507 [Eh]
	 Correlation Energy        =      -1.1085264076314540 [Eh]
	 Total Energy              =    -247.8850496257352063 [Eh]

	 ================> DF-SCS-MP2 Energies <==================
	-----------------------------------------------------------
	 SCS Same-Spin Scale       =       0.3333333333333333 [-]
	 SCS Opposite-Spin Scale   =       1.2000000000000000 [-]
	 SCS Same-Spin Energy      =      -0.0896593576939678 [Eh]
	 SCS Opposite-Spin Energy  =      -1.0074580014594607 [Eh]
	 SCS Correlation Energy    =      -1.0971173591534285 [Eh]
	 SCS Total Energy          =    -247.8736405772571914 [Eh]
	-----------------------------------------------------------

  Dipole Moment: [D]
     X:    -0.0000      Y:    -2.3385      Z:     0.0297     Total:     2.3387

*** Psi4 exiting successfully. Buy a developer a beer!
