                               Psi4 1.3.2 release

  ==> Input File <==

--------------------------------------------------------------------------
#psi4
#
memory 32 gb

molecule  {
0 1
  N        0.0000070     1.4263630    -0.0000270
  C        1.1454080     0.7211130    -0.0000270
  H        2.0620700     1.3085300     0.0002900
  C        1.1977566    -0.6737198    -0.3000200
  H        2.1568670    -1.1842320     0.0001540
  C       -0.0000070    -1.3877840    -0.0000410
  H       -0.0000130    -2.4750110     0.0001390
  C       -1.1977160    -0.6737350    -0.0000180
  H       -2.1568770    -1.1842140     0.0001640
  C       -1.1454010     0.7211250    -0.0000380
  H       -2.0620580     1.3085500     0.0003070
units angstrom
no_reorient  #important for SAPT in psi4, default
symmetry c1  #important for SAPT in psi4, default
}

set PROPERTIES_ORIGIN ["COM"]
properties('MP2/aug-cc-pvtz', properties = ['dipole'])
--------------------------------------------------------------------------

    Molecular point group: c1
  Charge       = 0
  Multiplicity = 1
  Basis Set: AUG-CC-PVTZ
    Blend: AUG-CC-PVTZ
  Basis Set: (AUG-CC-PVTZ AUX)
    Blend: AUG-CC-PVTZ-JKFIT

    Orbital Energies [Eh]
    ---------------------

    Doubly Occupied:

       1A    -15.568459     2A    -11.285791     3A    -11.282606
       4A    -11.270070     5A    -11.251965     6A    -11.244099
       7A     -1.254451     8A     -1.085160     9A     -1.029387
      10A     -0.855041    11A     -0.852606    12A     -0.717907
      13A     -0.653156    14A     -0.647468    15A     -0.591629
      16A     -0.574929    17A     -0.537953    18A     -0.512389
      19A     -0.420288    20A     -0.381381    21A     -0.346823

  @DF-RHF Final Energy:  -246.75016000637436

   => Energetics <=

    Nuclear Repulsion Energy =            204.6596439251406991
    One-Electron Energy =                -738.0924881894867440
    Two-Electron Energy =                 286.6826842579716867
    Total Energy =                       -246.7501600063743581
  Basis Set: (AUG-CC-PVTZ AUX)
    Blend: AUG-CC-PVTZ-RI
    Molecular point group: c1

    Geometry (in Angstrom), charge = 0, multiplicity = 1:

       Center              X                  Y                   Z               Mass
    ------------   -----------------  -----------------  -----------------  -----------------
         N           -0.000000263657     1.398356965277     0.045531497530    14.003074004430
         C            1.145400736343     0.693106965277     0.045531497530    12.000000000000
         H            2.062062736343     1.280523965277     0.045848497530     1.007825032230
         C            1.197749336343    -0.701725834723    -0.254461502470    12.000000000000
         H            2.156859736343    -1.212238034723     0.045712497530     1.007825032230
         C           -0.000014263657    -1.415790034723     0.045517497530    12.000000000000
         H           -0.000020263657    -2.503017034723     0.045697497530     1.007825032230
         C           -1.197723263657    -0.701741034723     0.045540497530    12.000000000000
         H           -2.156884263657    -1.212220034723     0.045722497530     1.007825032230
         C           -1.145408263657     0.693118965277     0.045520497530    12.000000000000
         H           -2.062065263657     1.280543965277     0.045865497530     1.007825032230

  Basis Set: AUG-CC-PVTZ
    Blend: AUG-CC-PVTZ
  Basis Set: (AUG-CC-PVTZ AUX)
    Blend: AUG-CC-PVTZ-JKFIT
	 Reference Energy          =    -246.7501600063743581 [Eh]
	 Singles Energy            =      -0.0000000000000000 [Eh]
	 Same-Spin Energy          =      -0.2697364035019567 [Eh]
	 Opposite-Spin Energy      =      -0.8425484502105705 [Eh]
	 Correlation Energy        =      -1.1122848537125272 [Eh]
	 Total Energy              =    -247.8624448600868959 [Eh]

	 ================> DF-SCS-MP2 Energies <==================
	-----------------------------------------------------------
	 SCS Same-Spin Scale       =       0.3333333333333333 [-]
	 SCS Opposite-Spin Scale   =       1.2000000000000000 [-]
	 SCS Same-Spin Energy      =      -0.0899121345006522 [Eh]
	 SCS Opposite-Spin Energy  =      -1.0110581402526846 [Eh]
	 SCS Correlation Energy    =      -1.1009702747533368 [Eh]
	 SCS Total Energy          =    -247.8511302811276948 [Eh]
	-----------------------------------------------------------

  Dipole Moment: [D]
     X:    -0.1476      Y:    -2.2346      Z:     0.1248     Total:     2.2429

*** Psi4 exiting successfully. Buy a developer a beer!
