                               Psi4 1.3.2 release

  ==> Input File <==

--------------------------------------------------------------------------
#psi4
#
memory 32 gb

molecule  {
0 1
  N        0.0000070     1.4263630    -0.0000270
  C        1.1454080     0.7211130    -0.0000270
  H        2.0620700     1.3085300     0.0002900
  C        1.1977328    -0.6737329    -0.1500200
  H        2.1568670    -1.1842320     0.0001540
  C       -0.0000070    -1.3877840    -0.0000410
  H       -0.0000130    -2.4750110     0.0001390
  C       -1.1977160    -0.6737350    -0.0000180
  H       -2.1568770    -1.1842140     0.0001640
  C       -1.1454010     0.7211250    -0.0000380
  H       -2.0620580     1.3085500     0.0003070
units angstrom
no_reorient  #important for SAPT in psi4, default
symmetry c1  #important for SAPT in psi4, default
}

set PROPERTIES_ORIGIN ["COM"]
properties('MP2/aug-cc-pvtz', properties = ['dipole'])
--------------------------------------------------------------------------

    Molecular point group: c1
  Charge       = 0
  Multiplicity = 1
  Basis Set: AUG-CC-PVTZ
    Blend: AUG-CC-PVTZ
  Basis Set: (AUG-CC-PVTZ AUX)
    Blend: AUG-CC-PVTZ-JKFIT

    Orbital Energies [Eh]
    ---------------------

    Doubly Occupied:

       1A    -15.568719     2A    -11.279725     3A    -11.278841
       4A    -11.264669     5A    -11.246585     6A    -11.244491
       7A     -1.254073     8A     -1.087676     9A     -1.031741
      10A     -0.857337    11A     -0.854159    12A     -0.719116
      13A     -0.657607    14A     -0.651735    15A     -0.596079
      16A     -0.575999    17A     -0.539199    18A     -0.517780
      19A     -0.420411    20A     -0.382898    21A     -0.347524

  @DF-RHF Final Energy:  -246.77066256908790

   => Energetics <=

    Nuclear Repulsion Energy =            205.3469042417550270
    One-Electron Energy =                -739.4824080226458136
    Two-Electron Energy =                 287.3648412118028546
    Total Energy =                       -246.7706625690879036
  Basis Set: (AUG-CC-PVTZ AUX)
    Blend: AUG-CC-PVTZ-RI
    Molecular point group: c1

    Geometry (in Angstrom), charge = 0, multiplicity = 1:

       Center              X                  Y                   Z               Mass
    ------------   -----------------  -----------------  -----------------  -----------------
         N            0.000003349603     1.398358954088     0.022758851791    14.003074004430
         C            1.145404349603     0.693108954088     0.022758851791    12.000000000000
         H            2.062066349603     1.280525954088     0.023075851791     1.007825032230
         C            1.197729149603    -0.701736945912    -0.127234148209    12.000000000000
         H            2.156863349603    -1.212236045912     0.022939851791     1.007825032230
         C           -0.000010650397    -1.415788045912     0.022744851791    12.000000000000
         H           -0.000016650397    -2.503015045912     0.022924851791     1.007825032230
         C           -1.197719650397    -0.701739045912     0.022767851791    12.000000000000
         H           -2.156880650397    -1.212218045912     0.022949851791     1.007825032230
         C           -1.145404650397     0.693120954088     0.022747851791    12.000000000000
         H           -2.062061650397     1.280545954088     0.023092851791     1.007825032230

  Basis Set: AUG-CC-PVTZ
    Blend: AUG-CC-PVTZ
  Basis Set: (AUG-CC-PVTZ AUX)
    Blend: AUG-CC-PVTZ-JKFIT
	 Reference Energy          =    -246.7706625690879036 [Eh]
	 Singles Energy            =      -0.0000000000000000 [Eh]
	 Same-Spin Energy          =      -0.2691401253523860 [Eh]
	 Opposite-Spin Energy      =      -0.8401373440814388 [Eh]
	 Correlation Energy        =      -1.1092774694338248 [Eh]
	 Total Energy              =    -247.8799400385217382 [Eh]

	 ================> DF-SCS-MP2 Energies <==================
	-----------------------------------------------------------
	 SCS Same-Spin Scale       =       0.3333333333333333 [-]
	 SCS Opposite-Spin Scale   =       1.2000000000000000 [-]
	 SCS Same-Spin Energy      =      -0.0897133751174620 [Eh]
	 SCS Opposite-Spin Energy  =      -1.0081648128977265 [Eh]
	 SCS Correlation Energy    =      -1.0978781880151884 [Eh]
	 SCS Total Energy          =    -247.8685407571030908 [Eh]
	-----------------------------------------------------------

  Dipole Moment: [D]
     X:    -0.0375      Y:    -2.3155      Z:     0.0587     Total:     2.3166

*** Psi4 exiting successfully. Buy a developer a beer!
