                               Psi4 1.3.2 release

  ==> Input File <==

--------------------------------------------------------------------------
#psi4
#
memory 32 gb

molecule  {
0 1
  N        0.0000070     1.4263630    -0.0000270
  C        1.1454080     0.7211130    -0.0000270
  H        2.0620700     1.3085300     0.0002900
  C        1.1977090    -0.6737460    -0.0000200
  H        2.1568670    -1.1842320     0.0001540
  C        0.0000214    -1.3877974    -0.3000410
  H       -0.0000130    -2.4750110     0.0001390
  C       -1.1977160    -0.6737350    -0.0000180
  H       -2.1568770    -1.1842140     0.0001640
  C       -1.1454010     0.7211250    -0.0000380
  H       -2.0620580     1.3085500     0.0003070
units angstrom
no_reorient  #important for SAPT in psi4, default
symmetry c1  #important for SAPT in psi4, default
}

set PROPERTIES_ORIGIN ["COM"]
properties('MP2/aug-cc-pvtz', properties = ['dipole'])
--------------------------------------------------------------------------

    Molecular point group: c1
  Charge       = 0
  Multiplicity = 1
  Basis Set: AUG-CC-PVTZ
    Blend: AUG-CC-PVTZ
  Basis Set: (AUG-CC-PVTZ AUX)
    Blend: AUG-CC-PVTZ-JKFIT

    Orbital Energies [Eh]
    ---------------------

    Doubly Occupied:

       1A    -15.573086     2A    -11.277161     3A    -11.277143
       4A    -11.271308     5A    -11.252376     6A    -11.252338
       7A     -1.254992     8A     -1.081590     9A     -1.032423
      10A     -0.855980    11A     -0.851085    12A     -0.713027
      13A     -0.654914    14A     -0.653333    15A     -0.597747
      16A     -0.565684    17A     -0.532979    18A     -0.515230
      19A     -0.422260    20A     -0.382509    21A     -0.344696

  @DF-RHF Final Energy:  -246.74723327799242

   => Energetics <=

    Nuclear Repulsion Energy =            204.6644689466606621
    One-Electron Energy =                -738.0996832022295848
    Two-Electron Energy =                 286.6879809775764443
    Total Energy =                       -246.7472332779924500
  Basis Set: (AUG-CC-PVTZ AUX)
    Blend: AUG-CC-PVTZ-RI
    Molecular point group: c1

    Geometry (in Angstrom), charge = 0, multiplicity = 1:

       Center              X                  Y                   Z               Mass
    ------------   -----------------  -----------------  -----------------  -----------------
         N            0.000002651241     1.398362977256     0.045531497530    14.003074004430
         C            1.145403651241     0.693112977256     0.045531497530    12.000000000000
         H            2.062065651241     1.280529977256     0.045848497530     1.007825032230
         C            1.197704651241    -0.701746022744     0.045538497530    12.000000000000
         H            2.156862651241    -1.212232022744     0.045712497530     1.007825032230
         C            0.000017051241    -1.415797422744    -0.254482502470    12.000000000000
         H           -0.000017348759    -2.503011022744     0.045697497530     1.007825032230
         C           -1.197720348759    -0.701735022744     0.045540497530    12.000000000000
         H           -2.156881348759    -1.212214022744     0.045722497530     1.007825032230
         C           -1.145405348759     0.693124977256     0.045520497530    12.000000000000
         H           -2.062062348759     1.280549977256     0.045865497530     1.007825032230

  Basis Set: AUG-CC-PVTZ
    Blend: AUG-CC-PVTZ
  Basis Set: (AUG-CC-PVTZ AUX)
    Blend: AUG-CC-PVTZ-JKFIT
	 Reference Energy          =    -246.7472332779924216 [Eh]
	 Singles Energy            =      -0.0000000000000000 [Eh]
	 Same-Spin Energy          =      -0.2705359461634749 [Eh]
	 Opposite-Spin Energy      =      -0.8437003724001173 [Eh]
	 Correlation Energy        =      -1.1142363185635922 [Eh]
	 Total Energy              =    -247.8614695965560202 [Eh]

	 ================> DF-SCS-MP2 Energies <==================
	-----------------------------------------------------------
	 SCS Same-Spin Scale       =       0.3333333333333333 [-]
	 SCS Opposite-Spin Scale   =       1.2000000000000000 [-]
	 SCS Same-Spin Energy      =      -0.0901786487211583 [Eh]
	 SCS Opposite-Spin Energy  =      -1.0124404468801407 [Eh]
	 SCS Correlation Energy    =      -1.1026190956012989 [Eh]
	 SCS Total Energy          =    -247.8498523735937340 [Eh]
	-----------------------------------------------------------

  Dipole Moment: [D]
     X:    -0.0000      Y:    -2.1747      Z:     0.1917     Total:     2.1831

*** Psi4 exiting successfully. Buy a developer a beer!
