                               Psi4 1.3.2 release

  ==> Input File <==

--------------------------------------------------------------------------
#psi4
#
memory 32 gb

molecule  {
0 1
  N        0.0000070     1.4263630    -0.0000270
  C        1.1454080     0.7211130    -0.0000270
  H        2.0620700     1.3085300     0.0002900
  C        1.1977090    -0.6737460    -0.0000200
  H        2.1568670    -1.1842320     0.0001540
  C        0.0000167    -1.3877952    -0.2500410
  H       -0.0000130    -2.4750110     0.0001390
  C       -1.1977160    -0.6737350    -0.0000180
  H       -2.1568770    -1.1842140     0.0001640
  C       -1.1454010     0.7211250    -0.0000380
  H       -2.0620580     1.3085500     0.0003070
units angstrom
no_reorient  #important for SAPT in psi4, default
symmetry c1  #important for SAPT in psi4, default
}

set PROPERTIES_ORIGIN ["COM"]
properties('MP2/aug-cc-pvtz', properties = ['dipole'])
--------------------------------------------------------------------------

    Molecular point group: c1
  Charge       = 0
  Multiplicity = 1
  Basis Set: AUG-CC-PVTZ
    Blend: AUG-CC-PVTZ
  Basis Set: (AUG-CC-PVTZ AUX)
    Blend: AUG-CC-PVTZ-JKFIT

    Orbital Energies [Eh]
    ---------------------

    Doubly Occupied:

       1A    -15.571768     2A    -11.277264     3A    -11.277247
       4A    -11.268825     5A    -11.250092     6A    -11.250050
       7A     -1.254648     8A     -1.083729     9A     -1.032399
      10A     -0.856699    11A     -0.852037    12A     -0.714832
      13A     -0.655024    14A     -0.654463    15A     -0.597667
      16A     -0.568724    17A     -0.535180    18A     -0.516565
      19A     -0.421698    20A     -0.382741    21A     -0.345589

  @DF-RHF Final Energy:  -246.75654032635435

   => Energetics <=

    Nuclear Repulsion Energy =            204.9391432633614727
    One-Electron Energy =                -738.6568860254941455
    Two-Electron Energy =                 286.9612024357783753
    Total Energy =                       -246.7565403263543544
  Basis Set: (AUG-CC-PVTZ AUX)
    Blend: AUG-CC-PVTZ-RI
    Molecular point group: c1

    Geometry (in Angstrom), charge = 0, multiplicity = 1:

       Center              X                  Y                   Z               Mass
    ------------   -----------------  -----------------  -----------------  -----------------
         N            0.000003364784     1.398362643257     0.037940615617    14.003074004430
         C            1.145404364784     0.693112643257     0.037940615617    12.000000000000
         H            2.062066364784     1.280529643257     0.038257615617     1.007825032230
         C            1.197705364784    -0.701746356743     0.037947615617    12.000000000000
         H            2.156863364784    -1.212232356743     0.038121615617     1.007825032230
         C            0.000013064784    -1.415795556743    -0.212073384383    12.000000000000
         H           -0.000016635216    -2.503011356743     0.038106615617     1.007825032230
         C           -1.197719635216    -0.701735356743     0.037949615617    12.000000000000
         H           -2.156880635216    -1.212214356743     0.038131615617     1.007825032230
         C           -1.145404635216     0.693124643257     0.037929615617    12.000000000000
         H           -2.062061635216     1.280549643257     0.038274615617     1.007825032230

  Basis Set: AUG-CC-PVTZ
    Blend: AUG-CC-PVTZ
  Basis Set: (AUG-CC-PVTZ AUX)
    Blend: AUG-CC-PVTZ-JKFIT
	 Reference Energy          =    -246.7565403263543544 [Eh]
	 Singles Energy            =      -0.0000000000000000 [Eh]
	 Same-Spin Energy          =      -0.2700525398489754 [Eh]
	 Opposite-Spin Energy      =      -0.8423518481359915 [Eh]
	 Correlation Energy        =      -1.1124043879849670 [Eh]
	 Total Energy              =    -247.8689447143393352 [Eh]

	 ================> DF-SCS-MP2 Energies <==================
	-----------------------------------------------------------
	 SCS Same-Spin Scale       =       0.3333333333333333 [-]
	 SCS Opposite-Spin Scale   =       1.2000000000000000 [-]
	 SCS Same-Spin Energy      =      -0.0900175132829918 [Eh]
	 SCS Opposite-Spin Energy  =      -1.0108222177631898 [Eh]
	 SCS Correlation Energy    =      -1.1008397310461815 [Eh]
	 SCS Total Energy          =    -247.8573800574005475 [Eh]
	-----------------------------------------------------------

  Dipole Moment: [D]
     X:    -0.0000      Y:    -2.2256      Z:     0.1561     Total:     2.2311

*** Psi4 exiting successfully. Buy a developer a beer!
