                               Psi4 1.3.2 release

  ==> Input File <==

--------------------------------------------------------------------------
#psi4
#
memory 32 gb

molecule  {
0 1
  N        0.0000070     1.4263630    -0.0000270
  C        1.1454080     0.7211130    -0.0000270
  H        2.0620700     1.3085300     0.0002900
  C        1.1977090    -0.6737460    -0.0000200
  H        2.1568670    -1.1842320     0.0001540
  C       -0.0000070    -1.3877840    -0.0000410
  H       -0.0000130    -2.4750110     0.0001390
  C       -1.1977161    -0.6737438    -0.1000180
  H       -2.1568770    -1.1842140     0.0001640
  C       -1.1454010     0.7211250    -0.0000380
  H       -2.0620580     1.3085500     0.0003070
units angstrom
no_reorient  #important for SAPT in psi4, default
symmetry c1  #important for SAPT in psi4, default
}

set PROPERTIES_ORIGIN ["COM"]
properties('MP2/aug-cc-pvtz', properties = ['dipole'])
--------------------------------------------------------------------------

    Molecular point group: c1
  Charge       = 0
  Multiplicity = 1
  Basis Set: AUG-CC-PVTZ
    Blend: AUG-CC-PVTZ
  Basis Set: (AUG-CC-PVTZ AUX)
    Blend: AUG-CC-PVTZ-JKFIT

    Orbital Energies [Eh]
    ---------------------

    Doubly Occupied:

       1A    -15.568797     2A    -11.278562     3A    -11.278157
       4A    -11.263625     5A    -11.245533     6A    -11.244590
       7A     -1.254026     8A     -1.088189     9A     -1.032154
      10A     -0.857896    11A     -0.854390    12A     -0.719484
      13A     -0.658516    14A     -0.652673    15A     -0.596856
      16A     -0.576156    17A     -0.539492    18A     -0.518681
      19A     -0.420415    20A     -0.383232    21A     -0.347685

  @DF-RHF Final Energy:  -246.77438614117608

   => Energetics <=

    Nuclear Repulsion Energy =            205.4778888018861096
    One-Electron Energy =                -739.7463306869271946
    Two-Electron Energy =                 287.4940557438649762
    Total Energy =                       -246.7743861411760804
  Basis Set: (AUG-CC-PVTZ AUX)
    Blend: AUG-CC-PVTZ-RI
    Molecular point group: c1

    Geometry (in Angstrom), charge = 0, multiplicity = 1:

       Center              X                  Y                   Z               Mass
    ------------   -----------------  -----------------  -----------------  -----------------
         N            0.000006978044     1.398362278895     0.015167969878    14.003074004430
         C            1.145407978044     0.693112278895     0.015167969878    12.000000000000
         H            2.062069978044     1.280529278895     0.015484969878     1.007825032230
         C            1.197708978044    -0.701746721105     0.015174969878    12.000000000000
         H            2.156866978044    -1.212232721105     0.015348969878     1.007825032230
         C           -0.000007021956    -1.415784721105     0.015153969878    12.000000000000
         H           -0.000013021956    -2.503011721105     0.015333969878     1.007825032230
         C           -1.197716121956    -0.701744521105    -0.084823030122    12.000000000000
         H           -2.156877021956    -1.212214721105     0.015358969878     1.007825032230
         C           -1.145401021956     0.693124278895     0.015156969878    12.000000000000
         H           -2.062058021956     1.280549278895     0.015501969878     1.007825032230

  Basis Set: AUG-CC-PVTZ
    Blend: AUG-CC-PVTZ
  Basis Set: (AUG-CC-PVTZ AUX)
    Blend: AUG-CC-PVTZ-JKFIT
	 Reference Energy          =    -246.7743861411760804 [Eh]
	 Singles Energy            =      -0.0000000000000000 [Eh]
	 Same-Spin Energy          =      -0.2690249323174763 [Eh]
	 Opposite-Spin Energy      =      -0.8397292413036930 [Eh]
	 Correlation Energy        =      -1.1087541736211692 [Eh]
	 Total Energy              =    -247.8831403147972594 [Eh]

	 ================> DF-SCS-MP2 Energies <==================
	-----------------------------------------------------------
	 SCS Same-Spin Scale       =       0.3333333333333333 [-]
	 SCS Opposite-Spin Scale   =       1.2000000000000000 [-]
	 SCS Same-Spin Energy      =      -0.0896749774391588 [Eh]
	 SCS Opposite-Spin Energy  =      -1.0076750895644315 [Eh]
	 SCS Correlation Energy    =      -1.0973500670035903 [Eh]
	 SCS Total Energy          =    -247.8717362081796693 [Eh]
	-----------------------------------------------------------

  Dipole Moment: [D]
     X:     0.0167      Y:    -2.3309      Z:     0.0387     Total:     2.3313

*** Psi4 exiting successfully. Buy a developer a beer!
