                               Psi4 1.3.2 release

  ==> Input File <==

--------------------------------------------------------------------------
#psi4
#
memory 32 gb

molecule  {
0 1
  N        0.0000070     1.4263630    -0.0000270
  C        1.1454080     0.7211130    -0.0000270
  H        2.0620700     1.3085300     0.0002900
  C        1.1977090    -0.6737460    -0.0000200
  H        2.1568670    -1.1842320     0.0001540
  C       -0.0000070    -1.3877840    -0.0000410
  H       -0.0000130    -2.4750110     0.0001390
  C       -1.1977160    -0.6737394    -0.0500180
  H       -2.1568770    -1.1842140     0.0001640
  C       -1.1454010     0.7211250    -0.0000380
  H       -2.0620580     1.3085500     0.0003070
units angstrom
no_reorient  #important for SAPT in psi4, default
symmetry c1  #important for SAPT in psi4, default
}

set PROPERTIES_ORIGIN ["COM"]
properties('MP2/aug-cc-pvtz', properties = ['dipole'])
--------------------------------------------------------------------------

    Molecular point group: c1
  Charge       = 0
  Multiplicity = 1
  Basis Set: AUG-CC-PVTZ
    Blend: AUG-CC-PVTZ
  Basis Set: (AUG-CC-PVTZ AUX)
    Blend: AUG-CC-PVTZ-JKFIT

    Orbital Energies [Eh]
    ---------------------

    Doubly Occupied:

       1A    -15.568851     2A    -11.277856     3A    -11.277751
       4A    -11.262997     5A    -11.244899     6A    -11.244656
       7A     -1.254004     8A     -1.088502     9A     -1.032402
      10A     -0.858254    11A     -0.854524    12A     -0.719734
      13A     -0.659076    14A     -0.653260    15A     -0.597315
      16A     -0.576248    17A     -0.539680    18A     -0.519203
      19A     -0.420417    20A     -0.383439    21A     -0.347791

  @DF-RHF Final Energy:  -246.77660601687927

   => Energetics <=

    Nuclear Repulsion Energy =            205.5569789343846310
    One-Electron Energy =                -739.9054515969465911
    Two-Electron Energy =                 287.5718666456827464
    Total Energy =                       -246.7766060168792706
  Basis Set: (AUG-CC-PVTZ AUX)
    Blend: AUG-CC-PVTZ-RI
    Molecular point group: c1

    Geometry (in Angstrom), charge = 0, multiplicity = 1:

       Center              X                  Y                   Z               Mass
    ------------   -----------------  -----------------  -----------------  -----------------
         N            0.000006962862     1.398361610897     0.007577087965    14.003074004430
         C            1.145407962862     0.693111610897     0.007577087965    12.000000000000
         H            2.062069962862     1.280528610897     0.007894087965     1.007825032230
         C            1.197708962862    -0.701747389103     0.007584087965    12.000000000000
         H            2.156866962862    -1.212233389103     0.007758087965     1.007825032230
         C           -0.000007037138    -1.415785389103     0.007563087965    12.000000000000
         H           -0.000013037138    -2.503012389103     0.007743087965     1.007825032230
         C           -1.197716037138    -0.701740789103    -0.042413912035    12.000000000000
         H           -2.156877037138    -1.212215389103     0.007768087965     1.007825032230
         C           -1.145401037138     0.693123610897     0.007566087965    12.000000000000
         H           -2.062058037138     1.280548610897     0.007911087965     1.007825032230

  Basis Set: AUG-CC-PVTZ
    Blend: AUG-CC-PVTZ
  Basis Set: (AUG-CC-PVTZ AUX)
    Blend: AUG-CC-PVTZ-JKFIT
	 Reference Energy          =    -246.7766060168792706 [Eh]
	 Singles Energy            =      -0.0000000000000000 [Eh]
	 Same-Spin Energy          =      -0.2689567827819008 [Eh]
	 Opposite-Spin Energy      =      -0.8395206866384333 [Eh]
	 Correlation Energy        =      -1.1084774694203341 [Eh]
	 Total Energy              =    -247.8850834862996066 [Eh]

	 ================> DF-SCS-MP2 Energies <==================
	-----------------------------------------------------------
	 SCS Same-Spin Scale       =       0.3333333333333333 [-]
	 SCS Opposite-Spin Scale   =       1.2000000000000000 [-]
	 SCS Same-Spin Energy      =      -0.0896522609273003 [Eh]
	 SCS Opposite-Spin Energy  =      -1.0074248239661199 [Eh]
	 SCS Correlation Energy    =      -1.0970770848934202 [Eh]
	 SCS Total Energy          =    -247.8736831017726843 [Eh]
	-----------------------------------------------------------

  Dipole Moment: [D]
     X:     0.0042      Y:    -2.3402      Z:     0.0195     Total:     2.3403

*** Psi4 exiting successfully. Buy a developer a beer!
