                               Psi4 1.3.2 release

  ==> Input File <==

--------------------------------------------------------------------------
#psi4
#
memory 32 gb

molecule  {
0 1
  N        0.0000070     1.4263630    -0.0000270
  C        1.1454080     0.7211130    -0.0000270
  H        2.0620700     1.3085300     0.0002900
  C        1.1977487    -0.6737242    -0.2500200
  H        2.1568670    -1.1842320     0.0001540
  C       -0.0000070    -1.3877840    -0.0000410
  H       -0.0000130    -2.4750110     0.0001390
  C       -1.1977160    -0.6737350    -0.0000180
  H       -2.1568770    -1.1842140     0.0001640
  C       -1.1454010     0.7211250    -0.0000380
  H       -2.0620580     1.3085500     0.0003070
units angstrom
no_reorient  #important for SAPT in psi4, default
symmetry c1  #important for SAPT in psi4, default
}

set PROPERTIES_ORIGIN ["COM"]
properties('MP2/aug-cc-pvtz', properties = ['dipole'])
--------------------------------------------------------------------------

    Molecular point group: c1
  Charge       = 0
  Multiplicity = 1
  Basis Set: AUG-CC-PVTZ
    Blend: AUG-CC-PVTZ
  Basis Set: (AUG-CC-PVTZ AUX)
    Blend: AUG-CC-PVTZ-JKFIT

    Orbital Energies [Eh]
    ---------------------

    Doubly Occupied:

       1A    -15.568535     2A    -11.283369     3A    -11.281060
       4A    -11.267918     5A    -11.249834     6A    -11.244232
       7A     -1.254275     8A     -1.086138     9A     -1.030371
      10A     -0.855830    11A     -0.853308    12A     -0.718262
      13A     -0.654879    14A     -0.649039    15A     -0.593475
      16A     -0.575418    17A     -0.538402    18A     -0.514692
      19A     -0.420360    20A     -0.381948    21A     -0.347075

  @DF-RHF Final Energy:  -246.75858270268228

   => Energetics <=

    Nuclear Repulsion Energy =            204.9357705346606053
    One-Electron Energy =                -738.6518646631805041
    Two-Electron Energy =                 286.9575114258375947
    Total Energy =                       -246.7585827026823040
  Basis Set: (AUG-CC-PVTZ AUX)
    Blend: AUG-CC-PVTZ-RI
    Molecular point group: c1

    Geometry (in Angstrom), charge = 0, multiplicity = 1:

       Center              X                  Y                   Z               Mass
    ------------   -----------------  -----------------  -----------------  -----------------
         N            0.000000935702     1.398357633275     0.037940615617    14.003074004430
         C            1.145401935702     0.693107633275     0.037940615617    12.000000000000
         H            2.062063935702     1.280524633275     0.038257615617     1.007825032230
         C            1.197742635702    -0.701729566725    -0.212052384383    12.000000000000
         H            2.156860935702    -1.212237366725     0.038121615617     1.007825032230
         C           -0.000013064298    -1.415789366725     0.037926615617    12.000000000000
         H           -0.000019064298    -2.503016366725     0.038106615617     1.007825032230
         C           -1.197722064298    -0.701740366725     0.037949615617    12.000000000000
         H           -2.156883064298    -1.212219366725     0.038131615617     1.007825032230
         C           -1.145407064298     0.693119633275     0.037929615617    12.000000000000
         H           -2.062064064298     1.280544633275     0.038274615617     1.007825032230

  Basis Set: AUG-CC-PVTZ
    Blend: AUG-CC-PVTZ
  Basis Set: (AUG-CC-PVTZ AUX)
    Blend: AUG-CC-PVTZ-JKFIT
	 Reference Energy          =    -246.7585827026822756 [Eh]
	 Singles Energy            =      -0.0000000000000000 [Eh]
	 Same-Spin Energy          =      -0.2695003451592227 [Eh]
	 Opposite-Spin Energy      =      -0.8415580279330733 [Eh]
	 Correlation Energy        =      -1.1110583730922960 [Eh]
	 Total Energy              =    -247.8696410757745809 [Eh]

	 ================> DF-SCS-MP2 Energies <==================
	-----------------------------------------------------------
	 SCS Same-Spin Scale       =       0.3333333333333333 [-]
	 SCS Opposite-Spin Scale   =       1.2000000000000000 [-]
	 SCS Same-Spin Energy      =      -0.0898334483864076 [Eh]
	 SCS Opposite-Spin Energy  =      -1.0098696335196879 [Eh]
	 SCS Correlation Energy    =      -1.0997030819060956 [Eh]
	 SCS Total Energy          =    -247.8582857845883609 [Eh]
	-----------------------------------------------------------

  Dipole Moment: [D]
     X:    -0.1031      Y:    -2.2672      Z:     0.1016     Total:     2.2718

*** Psi4 exiting successfully. Buy a developer a beer!
