                               Psi4 1.3.2 release

  ==> Input File <==

--------------------------------------------------------------------------
#psi4
#
memory 32 gb

molecule  {
0 1
  N        0.0000070     1.4263630    -0.0000270
  C        1.1454080     0.7211130    -0.0000270
  H        2.0620700     1.3085300     0.0002900
  C        1.1977090    -0.6737460    -0.0000200
  H        2.1568670    -1.1842320     0.0001540
  C        0.0000119    -1.3877930    -0.2000410
  H       -0.0000130    -2.4750110     0.0001390
  C       -1.1977160    -0.6737350    -0.0000180
  H       -2.1568770    -1.1842140     0.0001640
  C       -1.1454010     0.7211250    -0.0000380
  H       -2.0620580     1.3085500     0.0003070
units angstrom
no_reorient  #important for SAPT in psi4, default
symmetry c1  #important for SAPT in psi4, default
}

set PROPERTIES_ORIGIN ["COM"]
properties('MP2/aug-cc-pvtz', properties = ['dipole'])
--------------------------------------------------------------------------

    Molecular point group: c1
  Charge       = 0
  Multiplicity = 1
  Basis Set: AUG-CC-PVTZ
    Blend: AUG-CC-PVTZ
  Basis Set: (AUG-CC-PVTZ AUX)
    Blend: AUG-CC-PVTZ-JKFIT

    Orbital Energies [Eh]
    ---------------------

    Doubly Occupied:

       1A    -15.570706     2A    -11.277371     3A    -11.277354
       4A    -11.266713     5A    -11.248182     6A    -11.248137
       7A     -1.254390     8A     -1.085482     9A     -1.032404
      10A     -0.857292    11A     -0.852885    12A     -0.716475
      13A     -0.656485    14A     -0.654096    15A     -0.597596
      16A     -0.571350    17A     -0.536885    18A     -0.517610
      19A     -0.421234    20A     -0.382976    21A     -0.346359

  @DF-RHF Final Energy:  -246.76409435925103

   => Energetics <=

    Nuclear Repulsion Energy =            205.1677868304391836
    One-Electron Energy =                -739.1198020431255600
    Two-Electron Energy =                 287.1879208534352870
    Total Energy =                       -246.7640943592510325
  Basis Set: (AUG-CC-PVTZ AUX)
    Blend: AUG-CC-PVTZ-RI
    Molecular point group: c1

    Geometry (in Angstrom), charge = 0, multiplicity = 1:

       Center              X                  Y                   Z               Mass
    ------------   -----------------  -----------------  -----------------  -----------------
         N            0.000004093509     1.398362309258     0.030349733704    14.003074004430
         C            1.145405093509     0.693112309258     0.030349733704    12.000000000000
         H            2.062067093509     1.280529309258     0.030666733704     1.007825032230
         C            1.197706093509    -0.701746690742     0.030356733704    12.000000000000
         H            2.156864093509    -1.212232690742     0.030530733704     1.007825032230
         C            0.000008993509    -1.415793690742    -0.169664266296    12.000000000000
         H           -0.000015906491    -2.503011690742     0.030515733704     1.007825032230
         C           -1.197718906491    -0.701735690742     0.030358733704    12.000000000000
         H           -2.156879906491    -1.212214690742     0.030540733704     1.007825032230
         C           -1.145403906491     0.693124309258     0.030338733704    12.000000000000
         H           -2.062060906491     1.280549309258     0.030683733704     1.007825032230

  Basis Set: AUG-CC-PVTZ
    Blend: AUG-CC-PVTZ
  Basis Set: (AUG-CC-PVTZ AUX)
    Blend: AUG-CC-PVTZ-JKFIT
	 Reference Energy          =    -246.7640943592510325 [Eh]
	 Singles Energy            =      -0.0000000000000000 [Eh]
	 Same-Spin Energy          =      -0.2696514360995410 [Eh]
	 Opposite-Spin Energy      =      -0.8412546660958091 [Eh]
	 Correlation Energy        =      -1.1109061021953501 [Eh]
	 Total Energy              =    -247.8750004614463762 [Eh]

	 ================> DF-SCS-MP2 Energies <==================
	-----------------------------------------------------------
	 SCS Same-Spin Scale       =       0.3333333333333333 [-]
	 SCS Opposite-Spin Scale   =       1.2000000000000000 [-]
	 SCS Same-Spin Energy      =      -0.0898838120331803 [Eh]
	 SCS Opposite-Spin Energy  =      -1.0095055993149709 [Eh]
	 SCS Correlation Energy    =      -1.0993894113481513 [Eh]
	 SCS Total Energy          =    -247.8634837705991742 [Eh]
	-----------------------------------------------------------

  Dipole Moment: [D]
     X:    -0.0000      Y:    -2.2677      Z:     0.1221     Total:     2.2710

*** Psi4 exiting successfully. Buy a developer a beer!
