                               Psi4 1.3.2 release

  ==> Input File <==

--------------------------------------------------------------------------
#psi4
#
memory 32 gb

molecule  {
0 1
  N        0.0000070     1.4263630    -0.0000270
  C        1.1454080     0.7211130    -0.0000270
  H        2.0620700     1.3085300     0.0002900
  C        1.1977090    -0.6737460    -0.0000200
  H        2.1568670    -1.1842320     0.0001540
  C        0.0000072    -1.3877907    -0.1500410
  H       -0.0000130    -2.4750110     0.0001390
  C       -1.1977160    -0.6737350    -0.0000180
  H       -2.1568770    -1.1842140     0.0001640
  C       -1.1454010     0.7211250    -0.0000380
  H       -2.0620580     1.3085500     0.0003070
units angstrom
no_reorient  #important for SAPT in psi4, default
symmetry c1  #important for SAPT in psi4, default
}

set PROPERTIES_ORIGIN ["COM"]
properties('MP2/aug-cc-pvtz', properties = ['dipole'])
--------------------------------------------------------------------------

    Molecular point group: c1
  Charge       = 0
  Multiplicity = 1
  Basis Set: AUG-CC-PVTZ
    Blend: AUG-CC-PVTZ
  Basis Set: (AUG-CC-PVTZ AUX)
    Blend: AUG-CC-PVTZ-JKFIT

    Orbital Energies [Eh]
    ---------------------

    Doubly Occupied:

       1A    -15.569893     2A    -11.277469     3A    -11.277452
       4A    -11.265019     5A    -11.246672     6A    -11.246625
       7A     -1.254205     8A     -1.086846     9A     -1.032425
      10A     -0.857759    11A     -0.853591    12A     -0.717867
      13A     -0.657671    14A     -0.653813    15A     -0.597537
      16A     -0.573466    17A     -0.538159    18A     -0.518394
      19A     -0.420873    20A     -0.383189    21A     -0.346984

  @DF-RHF Final Energy:  -246.76992284666133

   => Energetics <=

    Nuclear Repulsion Energy =            205.3481389665203949
    One-Electron Energy =                -739.4843053067992287
    Two-Electron Energy =                 287.3662434936175032
    Total Energy =                       -246.7699228466613022
  Basis Set: (AUG-CC-PVTZ AUX)
    Blend: AUG-CC-PVTZ-RI
    Molecular point group: c1

    Geometry (in Angstrom), charge = 0, multiplicity = 1:

       Center              X                  Y                   Z               Mass
    ------------   -----------------  -----------------  -----------------  -----------------
         N            0.000004807052     1.398361960077     0.022758851791    14.003074004430
         C            1.145405807052     0.693111960077     0.022758851791    12.000000000000
         H            2.062067807052     1.280528960077     0.023075851791     1.007825032230
         C            1.197706807052    -0.701747039923     0.022765851791    12.000000000000
         H            2.156864807052    -1.212233039923     0.022939851791     1.007825032230
         C            0.000005007052    -1.415791739923    -0.127255148209    12.000000000000
         H           -0.000015192948    -2.503012039923     0.022924851791     1.007825032230
         C           -1.197718192948    -0.701736039923     0.022767851791    12.000000000000
         H           -2.156879192948    -1.212215039923     0.022949851791     1.007825032230
         C           -1.145403192948     0.693123960077     0.022747851791    12.000000000000
         H           -2.062060192948     1.280548960077     0.023092851791     1.007825032230

  Basis Set: AUG-CC-PVTZ
    Blend: AUG-CC-PVTZ
  Basis Set: (AUG-CC-PVTZ AUX)
    Blend: AUG-CC-PVTZ-JKFIT
	 Reference Energy          =    -246.7699228466613306 [Eh]
	 Singles Energy            =      -0.0000000000000000 [Eh]
	 Same-Spin Energy          =      -0.2693366780545230 [Eh]
	 Opposite-Spin Energy      =      -0.8404179232627910 [Eh]
	 Correlation Energy        =      -1.1097546013173141 [Eh]
	 Total Energy              =    -247.8796774479786507 [Eh]

	 ================> DF-SCS-MP2 Energies <==================
	-----------------------------------------------------------
	 SCS Same-Spin Scale       =       0.3333333333333333 [-]
	 SCS Opposite-Spin Scale   =       1.2000000000000000 [-]
	 SCS Same-Spin Energy      =      -0.0897788926848410 [Eh]
	 SCS Opposite-Spin Energy  =      -1.0085015079153492 [Eh]
	 SCS Correlation Energy    =      -1.0982804006001903 [Eh]
	 SCS Total Energy          =    -247.8682032472615333 [Eh]
	-----------------------------------------------------------

  Dipole Moment: [D]
     X:    -0.0000      Y:    -2.3006      Z:     0.0900     Total:     2.3024

*** Psi4 exiting successfully. Buy a developer a beer!
