                               Psi4 1.3.2 release

  ==> Input File <==

--------------------------------------------------------------------------
#psi4
#
memory 32 gb

molecule  {
0 1
  N        0.0000070     1.4263630    -0.0000270
  C        1.1454080     0.7211130    -0.0000270
  H        2.0620700     1.3085300     0.0002900
  C        1.1977090    -0.6737460    -0.0000200
  H        2.1568670    -1.1842320     0.0001540
  C       -0.0000070    -1.3877840    -0.0000410
  H       -0.0000130    -2.4750110     0.0001390
  C       -1.1977161    -0.6737482    -0.1500180
  H       -2.1568770    -1.1842140     0.0001640
  C       -1.1454010     0.7211250    -0.0000380
  H       -2.0620580     1.3085500     0.0003070
units angstrom
no_reorient  #important for SAPT in psi4, default
symmetry c1  #important for SAPT in psi4, default
}

set PROPERTIES_ORIGIN ["COM"]
properties('MP2/aug-cc-pvtz', properties = ['dipole'])
--------------------------------------------------------------------------

    Molecular point group: c1
  Charge       = 0
  Multiplicity = 1
  Basis Set: AUG-CC-PVTZ
    Blend: AUG-CC-PVTZ
  Basis Set: (AUG-CC-PVTZ AUX)
    Blend: AUG-CC-PVTZ-JKFIT

    Orbital Energies [Eh]
    ---------------------

    Doubly Occupied:

       1A    -15.568719     2A    -11.279729     3A    -11.278840
       4A    -11.264665     5A    -11.246585     6A    -11.244490
       7A     -1.254073     8A     -1.087681     9A     -1.031738
      10A     -0.857334    11A     -0.854161    12A     -0.719117
      13A     -0.657608    14A     -0.651734    15A     -0.596076
      16A     -0.575999    17A     -0.539198    18A     -0.517785
      19A     -0.420410    20A     -0.382902    21A     -0.347521

  @DF-RHF Final Energy:  -246.77066299362053

   => Energetics <=

    Nuclear Repulsion Energy =            205.3470398305911999
    One-Electron Energy =                -739.4826783252595988
    Two-Electron Energy =                 287.3649755010479225
    Total Energy =                       -246.7706629936205331
  Basis Set: (AUG-CC-PVTZ AUX)
    Blend: AUG-CC-PVTZ-RI
    Molecular point group: c1

    Geometry (in Angstrom), charge = 0, multiplicity = 1:

       Center              X                  Y                   Z               Mass
    ------------   -----------------  -----------------  -----------------  -----------------
         N            0.000006978044     1.398362946892     0.022758851791    14.003074004430
         C            1.145407978044     0.693112946892     0.022758851791    12.000000000000
         H            2.062069978044     1.280529946892     0.023075851791     1.007825032230
         C            1.197708978044    -0.701746053108     0.022765851791    12.000000000000
         H            2.156866978044    -1.212232053108     0.022939851791     1.007825032230
         C           -0.000007021956    -1.415784053108     0.022744851791    12.000000000000
         H           -0.000013021956    -2.503011053108     0.022924851791     1.007825032230
         C           -1.197716121956    -0.701748253108    -0.127232148209    12.000000000000
         H           -2.156877021956    -1.212214053108     0.022949851791     1.007825032230
         C           -1.145401021956     0.693124946892     0.022747851791    12.000000000000
         H           -2.062058021956     1.280549946892     0.023092851791     1.007825032230

  Basis Set: AUG-CC-PVTZ
    Blend: AUG-CC-PVTZ
  Basis Set: (AUG-CC-PVTZ AUX)
    Blend: AUG-CC-PVTZ-JKFIT
	 Reference Energy          =    -246.7706629936205331 [Eh]
	 Singles Energy            =      -0.0000000000000000 [Eh]
	 Same-Spin Energy          =      -0.2691401445532822 [Eh]
	 Opposite-Spin Energy      =      -0.8401372601194685 [Eh]
	 Correlation Energy        =      -1.1092774046727507 [Eh]
	 Total Energy              =    -247.8799403982932859 [Eh]

	 ================> DF-SCS-MP2 Energies <==================
	-----------------------------------------------------------
	 SCS Same-Spin Scale       =       0.3333333333333333 [-]
	 SCS Opposite-Spin Scale   =       1.2000000000000000 [-]
	 SCS Same-Spin Energy      =      -0.0897133815177607 [Eh]
	 SCS Opposite-Spin Energy  =      -1.0081647121433621 [Eh]
	 SCS Correlation Energy    =      -1.0978780936611228 [Eh]
	 SCS Total Energy          =    -247.8685410872816419 [Eh]
	-----------------------------------------------------------

  Dipole Moment: [D]
     X:     0.0375      Y:    -2.3155      Z:     0.0587     Total:     2.3166

*** Psi4 exiting successfully. Buy a developer a beer!
