                               Psi4 1.3.2 release

  ==> Input File <==

--------------------------------------------------------------------------
#psi4
#
memory 32 gb

molecule  {
0 1
  N        0.0000070     1.4263630    -0.0000270
  C        1.1454080     0.7211130    -0.0000270
  H        2.0620700     1.3085300     0.0002900
  C        1.1977249    -0.6737373    -0.1000200
  H        2.1568670    -1.1842320     0.0001540
  C       -0.0000070    -1.3877840    -0.0000410
  H       -0.0000130    -2.4750110     0.0001390
  C       -1.1977160    -0.6737350    -0.0000180
  H       -2.1568770    -1.1842140     0.0001640
  C       -1.1454010     0.7211250    -0.0000380
  H       -2.0620580     1.3085500     0.0003070
units angstrom
no_reorient  #important for SAPT in psi4, default
symmetry c1  #important for SAPT in psi4, default
}

set PROPERTIES_ORIGIN ["COM"]
properties('MP2/aug-cc-pvtz', properties = ['dipole'])
--------------------------------------------------------------------------

    Molecular point group: c1
  Charge       = 0
  Multiplicity = 1
  Basis Set: AUG-CC-PVTZ
    Blend: AUG-CC-PVTZ
  Basis Set: (AUG-CC-PVTZ AUX)
    Blend: AUG-CC-PVTZ-JKFIT

    Orbital Energies [Eh]
    ---------------------

    Doubly Occupied:

       1A    -15.568797     2A    -11.278559     3A    -11.278158
       4A    -11.263628     5A    -11.245533     6A    -11.244591
       7A     -1.254026     8A     -1.088186     9A     -1.032156
      10A     -0.857897    11A     -0.854389    12A     -0.719484
      13A     -0.658516    14A     -0.652674    15A     -0.596857
      16A     -0.576156    17A     -0.539492    18A     -0.518678
      19A     -0.420416    20A     -0.383229    21A     -0.347687

  @DF-RHF Final Energy:  -246.77438584897016

   => Energetics <=

    Nuclear Repulsion Energy =            205.4777976906287620
    One-Electron Energy =                -739.7461489951632529
    Two-Electron Energy =                 287.4939654555643074
    Total Energy =                       -246.7743858489701552
  Basis Set: (AUG-CC-PVTZ AUX)
    Blend: AUG-CC-PVTZ-RI
    Molecular point group: c1

    Geometry (in Angstrom), charge = 0, multiplicity = 1:

       Center              X                  Y                   Z               Mass
    ------------   -----------------  -----------------  -----------------  -----------------
         N            0.000004548962     1.398359622086     0.015167969878    14.003074004430
         C            1.145405548962     0.693109622086     0.015167969878    12.000000000000
         H            2.062067548962     1.280526622086     0.015484969878     1.007825032230
         C            1.197722448962    -0.701740677914    -0.084825030122    12.000000000000
         H            2.156864548962    -1.212235377914     0.015348969878     1.007825032230
         C           -0.000009451038    -1.415787377914     0.015153969878    12.000000000000
         H           -0.000015451038    -2.503014377914     0.015333969878     1.007825032230
         C           -1.197718451038    -0.701738377914     0.015176969878    12.000000000000
         H           -2.156879451038    -1.212217377914     0.015358969878     1.007825032230
         C           -1.145403451038     0.693121622086     0.015156969878    12.000000000000
         H           -2.062060451038     1.280546622086     0.015501969878     1.007825032230

  Basis Set: AUG-CC-PVTZ
    Blend: AUG-CC-PVTZ
  Basis Set: (AUG-CC-PVTZ AUX)
    Blend: AUG-CC-PVTZ-JKFIT
	 Reference Energy          =    -246.7743858489701552 [Eh]
	 Singles Energy            =      -0.0000000000000000 [Eh]
	 Same-Spin Energy          =      -0.2690249198879280 [Eh]
	 Opposite-Spin Energy      =      -0.8397292975603926 [Eh]
	 Correlation Energy        =      -1.1087542174483205 [Eh]
	 Total Energy              =    -247.8831400664184628 [Eh]

	 ================> DF-SCS-MP2 Energies <==================
	-----------------------------------------------------------
	 SCS Same-Spin Scale       =       0.3333333333333333 [-]
	 SCS Opposite-Spin Scale   =       1.2000000000000000 [-]
	 SCS Same-Spin Energy      =      -0.0896749732959760 [Eh]
	 SCS Opposite-Spin Energy  =      -1.0076751570724711 [Eh]
	 SCS Correlation Energy    =      -1.0973501303684472 [Eh]
	 SCS Total Energy          =    -247.8717359793386095 [Eh]
	-----------------------------------------------------------

  Dipole Moment: [D]
     X:    -0.0168      Y:    -2.3309      Z:     0.0387     Total:     2.3313

*** Psi4 exiting successfully. Buy a developer a beer!
