                               Psi4 1.3.2 release

  ==> Input File <==

--------------------------------------------------------------------------
#psi4
#
memory 32 gb

molecule  {
0 1
  N        0.0000070     1.4263630    -0.0000270
  C        1.1454080     0.7211130    -0.0000270
  H        2.0620700     1.3085300     0.0002900
  C        1.1977090    -0.6737460    -0.0000200
  H        2.1568670    -1.1842320     0.0001540
  C       -0.0000070    -1.3877840    -0.0000410
  H       -0.0000130    -2.4750110     0.0001390
  C       -1.1977162    -0.6737569    -0.2500180
  H       -2.1568770    -1.1842140     0.0001640
  C       -1.1454010     0.7211250    -0.0000380
  H       -2.0620580     1.3085500     0.0003070
units angstrom
no_reorient  #important for SAPT in psi4, default
symmetry c1  #important for SAPT in psi4, default
}

set PROPERTIES_ORIGIN ["COM"]
properties('MP2/aug-cc-pvtz', properties = ['dipole'])
--------------------------------------------------------------------------

    Molecular point group: c1
  Charge       = 0
  Multiplicity = 1
  Basis Set: AUG-CC-PVTZ
    Blend: AUG-CC-PVTZ
  Basis Set: (AUG-CC-PVTZ AUX)
    Blend: AUG-CC-PVTZ-JKFIT

    Orbital Energies [Eh]
    ---------------------

    Doubly Occupied:

       1A    -15.568535     2A    -11.283375     3A    -11.281058
       4A    -11.267911     5A    -11.249834     6A    -11.244232
       7A     -1.254275     8A     -1.086145     9A     -1.030367
      10A     -0.855824    11A     -0.853314    12A     -0.718263
      13A     -0.654880    14A     -0.649038    15A     -0.593471
      16A     -0.575419    17A     -0.538401    18A     -0.514700
      19A     -0.420357    20A     -0.381955    21A     -0.347069

  @DF-RHF Final Energy:  -246.75858333708908

   => Energetics <=

    Nuclear Repulsion Energy =            204.9359939746174746
    One-Electron Energy =                -738.6523096676596651
    Two-Electron Energy =                 286.9577323559530555
    Total Energy =                       -246.7585833370890782
  Basis Set: (AUG-CC-PVTZ AUX)
    Blend: AUG-CC-PVTZ-RI
    Molecular point group: c1

    Geometry (in Angstrom), charge = 0, multiplicity = 1:

       Center              X                  Y                   Z               Mass
    ------------   -----------------  -----------------  -----------------  -----------------
         N            0.000006993226     1.398364267706     0.037940615617    14.003074004430
         C            1.145407993226     0.693114267706     0.037940615617    12.000000000000
         H            2.062069993226     1.280531267706     0.038257615617     1.007825032230
         C            1.197708993226    -0.701744732294     0.037947615617    12.000000000000
         H            2.156866993226    -1.212230732294     0.038121615617     1.007825032230
         C           -0.000007006774    -1.415782732294     0.037926615617    12.000000000000
         H           -0.000013006774    -2.503009732294     0.038106615617     1.007825032230
         C           -1.197716206774    -0.701755632294    -0.212050384383    12.000000000000
         H           -2.156877006774    -1.212212732294     0.038131615617     1.007825032230
         C           -1.145401006774     0.693126267706     0.037929615617    12.000000000000
         H           -2.062058006774     1.280551267706     0.038274615617     1.007825032230

  Basis Set: AUG-CC-PVTZ
    Blend: AUG-CC-PVTZ
  Basis Set: (AUG-CC-PVTZ AUX)
    Blend: AUG-CC-PVTZ-JKFIT
	 Reference Energy          =    -246.7585833370890782 [Eh]
	 Singles Energy            =      -0.0000000000000000 [Eh]
	 Same-Spin Energy          =      -0.2695003816141557 [Eh]
	 Opposite-Spin Energy      =      -0.8415579049756051 [Eh]
	 Correlation Energy        =      -1.1110582865897607 [Eh]
	 Total Energy              =    -247.8696416236788309 [Eh]

	 ================> DF-SCS-MP2 Energies <==================
	-----------------------------------------------------------
	 SCS Same-Spin Scale       =       0.3333333333333333 [-]
	 SCS Opposite-Spin Scale   =       1.2000000000000000 [-]
	 SCS Same-Spin Energy      =      -0.0898334605380519 [Eh]
	 SCS Opposite-Spin Energy  =      -1.0098694859707260 [Eh]
	 SCS Correlation Energy    =      -1.0997029465087780 [Eh]
	 SCS Total Energy          =    -247.8582862835978631 [Eh]
	-----------------------------------------------------------

  Dipole Moment: [D]
     X:     0.1031      Y:    -2.2671      Z:     0.1016     Total:     2.2718

*** Psi4 exiting successfully. Buy a developer a beer!
