                               Psi4 1.3.2 release

  ==> Input File <==

--------------------------------------------------------------------------
#psi4
#
memory 32 gb

molecule  {
0 1
  N       -1.4432402     0.0462741    -0.5132393
  C        1.9178760    -0.2820330     0.3003480
  C        0.7301990    -1.0539890    -0.2910100
  C        1.9133330     1.1918710    -0.0951930
  C       -0.5758300    -0.5622950     0.2505430
  C       -2.6734760     0.4500620     0.1549430
  H        1.9034540    -0.3751150     1.3937850
  H        2.8483830    -0.7529800    -0.0365760
  H        0.7089260    -0.9492610    -1.3805420
  H        0.8357330    -2.1215800    -0.0558240
  H        1.9489790     1.2991200    -1.1835390
  H        1.0073910     1.6938590     0.2549320
  H        2.7765220     1.7153350     0.3260680
  H       -0.7349260    -0.6910300     1.3363860
  H       -2.7870910     1.5245690    -0.0148120
  H       -2.6927620     0.2538980     1.2378030
  H       -3.5272530    -0.0486490    -0.3125820
units angstrom
no_reorient  #important for SAPT in psi4, default
symmetry c1  #important for SAPT in psi4, default
}

set PROPERTIES_ORIGIN ["COM"]
properties('MP2/aug-cc-pvtz', properties = ['dipole'])
--------------------------------------------------------------------------

    Molecular point group: c1
  Charge       = 0
  Multiplicity = 1
  Basis Set: AUG-CC-PVTZ
    Blend: AUG-CC-PVTZ
  Basis Set: (AUG-CC-PVTZ AUX)
    Blend: AUG-CC-PVTZ-JKFIT

    Orbital Energies [Eh]
    ---------------------

    Doubly Occupied:

       1A    -15.559246     2A    -11.277451     3A    -11.241657
       4A    -11.227386     5A    -11.226306     6A    -11.211055
       7A     -1.211921     8A     -1.071283     9A     -0.972930
      10A     -0.907645    11A     -0.816271    12A     -0.759643
      13A     -0.640836    14A     -0.632364    15A     -0.607179
      16A     -0.586313    17A     -0.577525    18A     -0.541899
      19A     -0.515724    20A     -0.490303    21A     -0.480121
      22A     -0.474879    23A     -0.408094    24A     -0.388044

  @DF-RHF Final Energy:  -250.25877100736426

   => Energetics <=

    Nuclear Repulsion Energy =            235.0749095643087117
    One-Electron Energy =                -803.0152101568475018
    Two-Electron Energy =                 317.6815295851744736
    Total Energy =                       -250.2587710073642597
  Basis Set: (AUG-CC-PVTZ AUX)
    Blend: AUG-CC-PVTZ-RI
    Molecular point group: c1

    Geometry (in Angstrom), charge = 0, multiplicity = 1:

       Center              X                  Y                   Z               Mass
    ------------   -----------------  -----------------  -----------------  -----------------
         N           -1.417863043117     0.056479254369    -0.492390461304    14.003074004430
         C            1.943253156883    -0.271827845631     0.321196838696    12.000000000000
         C            0.755576156883    -1.043783845631    -0.270161161304    12.000000000000
         C            1.938710156883     1.202076154369    -0.074344161304    12.000000000000
         C           -0.550452843117    -0.552089845631     0.271391838696    12.000000000000
         C           -2.648098843117     0.460267154369     0.175791838696    12.000000000000
         H            1.928831156883    -0.364909845631     1.414633838696     1.007825032230
         H            2.873760156883    -0.742774845631    -0.015727161304     1.007825032230
         H            0.734303156883    -0.939055845631    -1.359693161304     1.007825032230
         H            0.861110156883    -2.111374845631    -0.034975161304     1.007825032230
         H            1.974356156883     1.309325154369    -1.162690161304     1.007825032230
         H            1.032768156883     1.704064154369     0.275780838696     1.007825032230
         H            2.801899156883     1.725540154369     0.346916838696     1.007825032230
         H           -0.709548843117    -0.680824845631     1.357234838696     1.007825032230
         H           -2.761713843117     1.534774154369     0.006036838696     1.007825032230
         H           -2.667384843117     0.264103154369     1.258651838696     1.007825032230
         H           -3.501875843117    -0.038443845631    -0.291733161304     1.007825032230

  Basis Set: AUG-CC-PVTZ
    Blend: AUG-CC-PVTZ
  Basis Set: (AUG-CC-PVTZ AUX)
    Blend: AUG-CC-PVTZ-JKFIT
	 Reference Energy          =    -250.2587710073642597 [Eh]
	 Singles Energy            =      -0.0000000000000000 [Eh]
	 Same-Spin Energy          =      -0.2624440376863355 [Eh]
	 Opposite-Spin Energy      =      -0.9376827239060587 [Eh]
	 Correlation Energy        =      -1.2001267615923941 [Eh]
	 Total Energy              =    -251.4588977689566605 [Eh]

	 ================> DF-SCS-MP2 Energies <==================
	-----------------------------------------------------------
	 SCS Same-Spin Scale       =       0.3333333333333333 [-]
	 SCS Opposite-Spin Scale   =       1.2000000000000000 [-]
	 SCS Same-Spin Energy      =      -0.0874813458954452 [Eh]
	 SCS Opposite-Spin Energy  =      -1.1252192686872704 [Eh]
	 SCS Correlation Energy    =      -1.2127006145827155 [Eh]
	 SCS Total Energy          =    -251.4714716219469892 [Eh]
	-----------------------------------------------------------

  Dipole Moment: [D]
     X:     0.3957      Y:    -0.4305      Z:     1.4738     Total:     1.5856

*** Psi4 exiting successfully. Buy a developer a beer!
