                               Psi4 1.3.2 release

  ==> Input File <==

--------------------------------------------------------------------------
#psi4
#
memory 32 gb

molecule  {
0 1
  N       -1.4514230    -0.0014080    -0.4975550
  C        1.9178760    -0.2820330     0.3003480
  C        0.7301990    -1.0539890    -0.2910100
  C        1.9133330     1.1918710    -0.0951930
  C       -0.4391232    -0.6498666     0.3673440
  C       -2.6734760     0.4500620     0.1549430
  H        1.9034540    -0.3751150     1.3937850
  H        2.8483830    -0.7529800    -0.0365760
  H        0.7089260    -0.9492610    -1.3805420
  H        0.8357330    -2.1215800    -0.0558240
  H        1.9489790     1.2991200    -1.1835390
  H        1.0073910     1.6938590     0.2549320
  H        2.7765220     1.7153350     0.3260680
  H       -0.7349260    -0.6910300     1.3363860
  H       -2.7870910     1.5245690    -0.0148120
  H       -2.6927620     0.2538980     1.2378030
  H       -3.5272530    -0.0486490    -0.3125820
units angstrom
no_reorient  #important for SAPT in psi4, default
symmetry c1  #important for SAPT in psi4, default
}

set PROPERTIES_ORIGIN ["COM"]
properties('MP2/aug-cc-pvtz', properties = ['dipole'])
--------------------------------------------------------------------------

    Molecular point group: c1
  Charge       = 0
  Multiplicity = 1
  Basis Set: AUG-CC-PVTZ
    Blend: AUG-CC-PVTZ
  Basis Set: (AUG-CC-PVTZ AUX)
    Blend: AUG-CC-PVTZ-JKFIT

    Orbital Energies [Eh]
    ---------------------

    Doubly Occupied:

       1A    -15.567580     2A    -11.288329     3A    -11.237003
       4A    -11.231147     5A    -11.228289     6A    -11.212693
       7A     -1.166862     8A     -1.083152     9A     -0.984892
      10A     -0.891323    11A     -0.817699    12A     -0.786442
      13A     -0.648365    14A     -0.634163    15A     -0.608585
      16A     -0.580935    17A     -0.569658    18A     -0.547517
      19A     -0.527459    20A     -0.496671    21A     -0.484719
      22A     -0.468457    23A     -0.401807    24A     -0.342352

  @DF-RHF Final Energy:  -250.19558804125745

   => Energetics <=

    Nuclear Repulsion Energy =            234.2092938513710578
    One-Electron Energy =                -801.1975685597952861
    Two-Electron Energy =                 316.7926866671667767
    Total Energy =                       -250.1955880412574516
  Basis Set: (AUG-CC-PVTZ AUX)
    Blend: AUG-CC-PVTZ-RI
    Molecular point group: c1

    Geometry (in Angstrom), charge = 0, multiplicity = 1:

       Center              X                  Y                   Z               Mass
    ------------   -----------------  -----------------  -----------------  -----------------
         N           -1.443978767086     0.028994267491    -0.495759594389    14.003074004430
         C            1.925320232914    -0.251630732509     0.302143405611    12.000000000000
         C            0.737643232914    -1.023586732509    -0.289214594389    12.000000000000
         C            1.920777232914     1.222273267491    -0.093397594389    12.000000000000
         C           -0.431678967086    -0.619464332509     0.369139405611    12.000000000000
         C           -2.666031767086     0.480464267491     0.156738405611    12.000000000000
         H            1.910898232914    -0.344712732509     1.395580405611     1.007825032230
         H            2.855827232914    -0.722577732509    -0.034780594389     1.007825032230
         H            0.716370232914    -0.918858732509    -1.378746594389     1.007825032230
         H            0.843177232914    -2.091177732509    -0.054028594389     1.007825032230
         H            1.956423232914     1.329522267491    -1.181743594389     1.007825032230
         H            1.014835232914     1.724261267491     0.256727405611     1.007825032230
         H            2.783966232914     1.745737267491     0.327863405611     1.007825032230
         H           -0.727481767086    -0.660627732509     1.338181405611     1.007825032230
         H           -2.779646767086     1.554971267491    -0.013016594389     1.007825032230
         H           -2.685317767086     0.284300267491     1.239598405611     1.007825032230
         H           -3.519808767086    -0.018246732509    -0.310786594389     1.007825032230

  Basis Set: AUG-CC-PVTZ
    Blend: AUG-CC-PVTZ
  Basis Set: (AUG-CC-PVTZ AUX)
    Blend: AUG-CC-PVTZ-JKFIT
	 Reference Energy          =    -250.1955880412574516 [Eh]
	 Singles Energy            =      -0.0000000000000000 [Eh]
	 Same-Spin Energy          =      -0.2684384961288304 [Eh]
	 Opposite-Spin Energy      =      -0.9499715869262146 [Eh]
	 Correlation Energy        =      -1.2184100830550451 [Eh]
	 Total Energy              =    -251.4139981243124851 [Eh]

	 ================> DF-SCS-MP2 Energies <==================
	-----------------------------------------------------------
	 SCS Same-Spin Scale       =       0.3333333333333333 [-]
	 SCS Opposite-Spin Scale   =       1.2000000000000000 [-]
	 SCS Same-Spin Energy      =      -0.0894794987096101 [Eh]
	 SCS Opposite-Spin Energy  =      -1.1399659043114576 [Eh]
	 SCS Correlation Energy    =      -1.2294454030210678 [Eh]
	 SCS Total Energy          =    -251.4250334442785118 [Eh]
	-----------------------------------------------------------

  Dipole Moment: [D]
     X:     0.6344      Y:    -0.4567      Z:     1.5677     Total:     1.7518

*** Psi4 exiting successfully. Buy a developer a beer!
