                               Psi4 1.3.2 release

  ==> Input File <==

--------------------------------------------------------------------------
#psi4
#
memory 32 gb

molecule  {
0 1
  N       -1.4514230    -0.0014080    -0.4975550
  C        1.9178760    -0.2820330     0.3003480
  C        0.7301990    -1.0539890    -0.2910100
  C        1.9133330     1.1918710    -0.0951930
  C       -0.5758300    -0.5622950     0.2505430
  C       -2.6734760     0.4500620     0.1549430
  H        1.9034540    -0.3751150     1.3937850
  H        2.8483830    -0.7529800    -0.0365760
  H        0.7089260    -0.9492610    -1.3805420
  H        0.8357330    -2.1215800    -0.0558240
  H        1.9489790     1.2991200    -1.1835390
  H        1.0073910     1.6938590     0.2549320
  H        2.7765220     1.7153350     0.3260680
  H       -0.7637227    -0.7143313     1.5329256
  H       -2.7870910     1.5245690    -0.0148120
  H       -2.6927620     0.2538980     1.2378030
  H       -3.5272530    -0.0486490    -0.3125820
units angstrom
no_reorient  #important for SAPT in psi4, default
symmetry c1  #important for SAPT in psi4, default
}

set PROPERTIES_ORIGIN ["COM"]
properties('MP2/aug-cc-pvtz', properties = ['dipole'])
--------------------------------------------------------------------------

    Molecular point group: c1
  Charge       = 0
  Multiplicity = 1
  Basis Set: AUG-CC-PVTZ
    Blend: AUG-CC-PVTZ
  Basis Set: (AUG-CC-PVTZ AUX)
    Blend: AUG-CC-PVTZ-JKFIT

    Orbital Energies [Eh]
    ---------------------

    Doubly Occupied:

       1A    -15.559420     2A    -11.294943     3A    -11.243997
       4A    -11.229730     5A    -11.227512     6A    -11.211727
       7A     -1.221061     8A     -1.071960     9A     -0.973273
      10A     -0.912281    11A     -0.815449    12A     -0.730989
      13A     -0.639514    14A     -0.629964    15A     -0.606531
      16A     -0.582582    17A     -0.579394    18A     -0.543857
      19A     -0.508788    20A     -0.491716    21A     -0.482529
      22A     -0.474932    23A     -0.399232    24A     -0.397683

  @DF-RHF Final Energy:  -250.24238962198197

   => Energetics <=

    Nuclear Repulsion Energy =            234.6146212871020111
    One-Electron Energy =                -802.0558941993567714
    Two-Electron Energy =                 317.1988832902728745
    Total Energy =                       -250.2423896219819426
  Basis Set: (AUG-CC-PVTZ AUX)
    Blend: AUG-CC-PVTZ-RI
    Molecular point group: c1

    Geometry (in Angstrom), charge = 0, multiplicity = 1:

       Center              X                  Y                   Z               Mass
    ------------   -----------------  -----------------  -----------------  -----------------
         N           -1.424358126291     0.016920159636    -0.481615200182    14.003074004430
         C            1.944940873709    -0.263704840364     0.316287799818    12.000000000000
         C            0.757263873709    -1.035660840364    -0.275070200182    12.000000000000
         C            1.940397873709     1.210199159636    -0.079253200182    12.000000000000
         C           -0.548765126291    -0.543966840364     0.266482799818    12.000000000000
         C           -2.646411126291     0.468390159636     0.170882799818    12.000000000000
         H            1.930518873709    -0.356786840364     1.409724799818     1.007825032230
         H            2.875447873709    -0.734651840364    -0.020636200182     1.007825032230
         H            0.735990873709    -0.930932840364    -1.364602200182     1.007825032230
         H            0.862797873709    -2.103251840364    -0.039884200182     1.007825032230
         H            1.976043873709     1.317448159636    -1.167599200182     1.007825032230
         H            1.034455873709     1.712187159636     0.270871799818     1.007825032230
         H            2.803586873709     1.733663159636     0.342007799818     1.007825032230
         H           -0.736657826291    -0.696003140364     1.548865399818     1.007825032230
         H           -2.760026126291     1.542897159636     0.001127799818     1.007825032230
         H           -2.665697126291     0.272226159636     1.253742799818     1.007825032230
         H           -3.500188126291    -0.030320840364    -0.296642200182     1.007825032230

  Basis Set: AUG-CC-PVTZ
    Blend: AUG-CC-PVTZ
  Basis Set: (AUG-CC-PVTZ AUX)
    Blend: AUG-CC-PVTZ-JKFIT
	 Reference Energy          =    -250.2423896219819710 [Eh]
	 Singles Energy            =      -0.0000000000000000 [Eh]
	 Same-Spin Energy          =      -0.2628256306319115 [Eh]
	 Opposite-Spin Energy      =      -0.9384880617019722 [Eh]
	 Correlation Energy        =      -1.2013136923338836 [Eh]
	 Total Energy              =    -251.4437033143158544 [Eh]

	 ================> DF-SCS-MP2 Energies <==================
	-----------------------------------------------------------
	 SCS Same-Spin Scale       =       0.3333333333333333 [-]
	 SCS Opposite-Spin Scale   =       1.2000000000000000 [-]
	 SCS Same-Spin Energy      =      -0.0876085435439705 [Eh]
	 SCS Opposite-Spin Energy  =      -1.1261856740423666 [Eh]
	 SCS Correlation Energy    =      -1.2137942175863370 [Eh]
	 SCS Total Energy          =    -251.4561838395682969 [Eh]
	-----------------------------------------------------------

  Dipole Moment: [D]
     X:     0.3976      Y:    -0.2844      Z:     1.1736     Total:     1.2713

*** Psi4 exiting successfully. Buy a developer a beer!
