                               Psi4 1.3.2 release

  ==> Input File <==

--------------------------------------------------------------------------
#psi4
#
memory 32 gb

molecule  {
0 1
  N       -1.4514230    -0.0014080    -0.4975550
  C        1.9509391    -0.3121944     0.2708898
  C        0.7301990    -1.0539890    -0.2910100
  C        1.9133330     1.1918710    -0.0951930
  C       -0.5758300    -0.5622950     0.2505430
  C       -2.6734760     0.4500620     0.1549430
  H        1.9034540    -0.3751150     1.3937850
  H        2.8483830    -0.7529800    -0.0365760
  H        0.7089260    -0.9492610    -1.3805420
  H        0.8357330    -2.1215800    -0.0558240
  H        1.9489790     1.2991200    -1.1835390
  H        1.0073910     1.6938590     0.2549320
  H        2.7765220     1.7153350     0.3260680
  H       -0.7349260    -0.6910300     1.3363860
  H       -2.7870910     1.5245690    -0.0148120
  H       -2.6927620     0.2538980     1.2378030
  H       -3.5272530    -0.0486490    -0.3125820
units angstrom
no_reorient  #important for SAPT in psi4, default
symmetry c1  #important for SAPT in psi4, default
}

set PROPERTIES_ORIGIN ["COM"]
properties('MP2/aug-cc-pvtz', properties = ['dipole'])
--------------------------------------------------------------------------

    Molecular point group: c1
  Charge       = 0
  Multiplicity = 1
  Basis Set: AUG-CC-PVTZ
    Blend: AUG-CC-PVTZ
  Basis Set: (AUG-CC-PVTZ AUX)
    Blend: AUG-CC-PVTZ-JKFIT

    Orbital Energies [Eh]
    ---------------------

    Doubly Occupied:

       1A    -15.555517     2A    -11.273741     3A    -11.243137
       4A    -11.226469     5A    -11.225302     6A    -11.212029
       7A     -1.220026     8A     -1.068894     9A     -0.971995
      10A     -0.910406    11A     -0.819828    12A     -0.756807
      13A     -0.643155    14A     -0.634008    15A     -0.606480
      16A     -0.587943    17A     -0.579739    18A     -0.541487
      19A     -0.518170    20A     -0.490863    21A     -0.485507
      22A     -0.467460    23A     -0.402730    24A     -0.395148

  @DF-RHF Final Energy:  -250.25985945335842

   => Energetics <=

    Nuclear Repulsion Energy =            235.1081910157138566
    One-Electron Energy =                -803.0624210041931974
    Two-Electron Energy =                 317.6943705351209246
    Total Energy =                       -250.2598594533584446
  Basis Set: (AUG-CC-PVTZ AUX)
    Blend: AUG-CC-PVTZ-RI
    Molecular point group: c1

    Geometry (in Angstrom), charge = 0, multiplicity = 1:

       Center              X                  Y                   Z               Mass
    ------------   -----------------  -----------------  -----------------  -----------------
         N           -1.429362045572     0.020897789794    -0.475132870380    14.003074004430
         C            1.973000054428    -0.289888610206     0.293311929620    12.000000000000
         C            0.752259954428    -1.031683210206    -0.268587870380    12.000000000000
         C            1.935393954428     1.214176789794    -0.072770870380    12.000000000000
         C           -0.553769045572    -0.539989210206     0.272965129620    12.000000000000
         C           -2.651415045572     0.472367789794     0.177365129620    12.000000000000
         H            1.925514954428    -0.352809210206     1.416207129620     1.007825032230
         H            2.870443954428    -0.730674210206    -0.014153870380     1.007825032230
         H            0.730986954428    -0.926955210206    -1.358119870380     1.007825032230
         H            0.857793954428    -2.099274210206    -0.033401870380     1.007825032230
         H            1.971039954428     1.321425789794    -1.161116870380     1.007825032230
         H            1.029451954428     1.716164789794     0.277354129620     1.007825032230
         H            2.798582954428     1.737640789794     0.348490129620     1.007825032230
         H           -0.712865045572    -0.668724210206     1.358808129620     1.007825032230
         H           -2.765030045572     1.546874789794     0.007610129620     1.007825032230
         H           -2.670701045572     0.276203789794     1.260225129620     1.007825032230
         H           -3.505192045572    -0.026343210206    -0.290159870380     1.007825032230

  Basis Set: AUG-CC-PVTZ
    Blend: AUG-CC-PVTZ
  Basis Set: (AUG-CC-PVTZ AUX)
    Blend: AUG-CC-PVTZ-JKFIT
	 Reference Energy          =    -250.2598594533584162 [Eh]
	 Singles Energy            =      -0.0000000000000000 [Eh]
	 Same-Spin Energy          =      -0.2617071121833006 [Eh]
	 Opposite-Spin Energy      =      -0.9360504455538946 [Eh]
	 Correlation Energy        =      -1.1977575577371953 [Eh]
	 Total Energy              =    -251.4576170110956070 [Eh]

	 ================> DF-SCS-MP2 Energies <==================
	-----------------------------------------------------------
	 SCS Same-Spin Scale       =       0.3333333333333333 [-]
	 SCS Opposite-Spin Scale   =       1.2000000000000000 [-]
	 SCS Same-Spin Energy      =      -0.0872357040611002 [Eh]
	 SCS Opposite-Spin Energy  =      -1.1232605346646736 [Eh]
	 SCS Correlation Energy    =      -1.2104962387257738 [Eh]
	 SCS Total Energy          =    -251.4703556920841834 [Eh]
	-----------------------------------------------------------

  Dipole Moment: [D]
     X:     0.3843      Y:    -0.3457      Z:     1.4166     Total:     1.5080

*** Psi4 exiting successfully. Buy a developer a beer!
