                               Psi4 1.4a3.dev225

  ==> Input File <==

--------------------------------------------------------------------------
#psi4
#
memory 32 gb

molecule  {
0 1
  N       -1.4513250    -0.0010140    -0.4975640
  C        1.9178130    -0.2820920     0.3002790
  C        0.7301270    -1.0540560    -0.2910000
  C        1.9134960     1.1918760    -0.0950710
  C       -0.5418205    -0.5842838     0.2796258
  C       -2.6734840     0.4500370     0.1549490
  H        1.9036020    -0.3753030     1.3937060
  H        2.8482930    -0.7529860    -0.0368320
  H        0.7089100    -0.9495730    -1.3805570
  H        0.8355610    -2.1216230    -0.0556080
  H        1.9497200     1.2992090    -1.1833850
  H        1.0073830     1.6938500     0.2545960
  H        2.7764960     1.7152480     0.3266950
  H       -0.7352490    -0.6914900     1.3362220
  H       -2.7876940     1.5244090    -0.0151890
  H       -2.6923780     0.2543160     1.2378980
  H       -3.5271550    -0.0493170    -0.3121090
units angstrom
no_reorient  #important for SAPT in psi4, default
symmetry c1  #important for SAPT in psi4, default
}

set PROPERTIES_ORIGIN ["COM"]
properties('MP2/aug-cc-pvtz', properties = ['dipole'])
--------------------------------------------------------------------------

    Molecular point group: c1
  Charge       = 0
  Multiplicity = 1
  Basis Set: AUG-CC-PVTZ
    Blend: AUG-CC-PVTZ
  Basis Set: (AUG-CC-PVTZ AUX)
    Blend: AUG-CC-PVTZ-JKFIT

    Orbital Energies [Eh]
    ---------------------

    Doubly Occupied:

       1A    -15.558956     2A    -11.276739     3A    -11.241082
       4A    -11.227923     5A    -11.225970     6A    -11.211615
       7A     -1.202503     8A     -1.074040     9A     -0.976017
      10A     -0.905510    11A     -0.816878    12A     -0.765194
      13A     -0.640149    14A     -0.634717    15A     -0.608077
      16A     -0.585209    17A     -0.576321    18A     -0.541211
      19A     -0.522449    20A     -0.491785    21A     -0.479346
      22A     -0.477110    23A     -0.404793    24A     -0.380535

  @DF-RHF Final Energy:  -250.25480533420171

   => Energetics <=

    Nuclear Repulsion Energy =            235.0727648974002193
    One-Electron Energy =                -803.0068827612159339
    Two-Electron Energy =                 317.6793125296139806
    Total Energy =                       -250.2548053342017056
  Basis Set: (AUG-CC-PVTZ AUX)
    Blend: AUG-CC-PVTZ-RI
    Molecular point group: c1

    Geometry (in Angstrom), charge = 0, multiplicity = 1:

       Center              X                  Y                   Z               Mass
    ------------   -----------------  -----------------  -----------------  -----------------
         N           -1.429418038673     0.020111859645    -0.483410076403    14.003074004430
         C            1.939719961327    -0.260966140355     0.314432923597    12.000000000000
         C            0.752033961327    -1.032930140355    -0.276846076403    12.000000000000
         C            1.935402961327     1.213001859645    -0.080917076403    12.000000000000
         C           -0.519913538673    -0.563157940355     0.293779723597    12.000000000000
         C           -2.651577038673     0.471162859645     0.169102923597    12.000000000000
         H            1.925508961327    -0.354177140355     1.407859923597     1.007825032230
         H            2.870199961327    -0.731860140355    -0.022678076403     1.007825032230
         H            0.730816961327    -0.928447140355    -1.366403076403     1.007825032230
         H            0.857467961327    -2.100497140355    -0.041454076403     1.007825032230
         H            1.971626961327     1.320334859645    -1.169231076403     1.007825032230
         H            1.029289961327     1.714975859645     0.268749923597     1.007825032230
         H            2.798402961327     1.736373859645     0.340848923597     1.007825032230
         H           -0.713342038673    -0.670364140355     1.350375923597     1.007825032230
         H           -2.765787038673     1.545534859645    -0.001035076403     1.007825032230
         H           -2.670471038673     0.275441859645     1.252051923597     1.007825032230
         H           -3.505248038673    -0.028191140355    -0.297955076403     1.007825032230

  Basis Set: AUG-CC-PVTZ
    Blend: AUG-CC-PVTZ
  Basis Set: (AUG-CC-PVTZ AUX)
    Blend: AUG-CC-PVTZ-JKFIT
	 Reference Energy          =    -250.2548053342017056 [Eh]
	 Singles Energy            =      -0.0000000000000000 [Eh]
	 Same-Spin Energy          =      -0.2630587297017566 [Eh]
	 Opposite-Spin Energy      =      -0.9387833998405904 [Eh]
	 Correlation Energy        =      -1.2018421295423471 [Eh]
	 Total Energy              =    -251.4566474637440479 [Eh]

	 ================> DF-SCS-MP2 Energies <==================
	-----------------------------------------------------------
	 SCS Same-Spin Scale       =       0.3333333333333333 [-]
	 SCS Opposite-Spin Scale   =       1.2000000000000000 [-]
	 SCS Same-Spin Energy      =      -0.0876862432339189 [Eh]
	 SCS Opposite-Spin Energy  =      -1.1265400798087084 [Eh]
	 SCS Correlation Energy    =      -1.2142263230426273 [Eh]
	 SCS Total Energy          =    -251.4690316572443294 [Eh]
	-----------------------------------------------------------

  Dipole Moment: [D]
     X:     0.4723      Y:    -0.3858      Z:     1.4928     Total:     1.6125

*** Psi4 exiting successfully. Buy a developer a beer!
