                               Psi4 1.3.2 release

  ==> Input File <==

--------------------------------------------------------------------------
#psi4
#
memory 32 gb

molecule  {
0 1
  N       -1.3660119    -0.0197662    -0.5992705
  C        1.9178760    -0.2820330     0.3003480
  C        0.7301990    -1.0539890    -0.2910100
  C        1.9133330     1.1918710    -0.0951930
  C       -0.5758300    -0.5622950     0.2505430
  C       -2.6734760     0.4500620     0.1549430
  H        1.9034540    -0.3751150     1.3937850
  H        2.8483830    -0.7529800    -0.0365760
  H        0.7089260    -0.9492610    -1.3805420
  H        0.8357330    -2.1215800    -0.0558240
  H        1.9489790     1.2991200    -1.1835390
  H        1.0073910     1.6938590     0.2549320
  H        2.7765220     1.7153350     0.3260680
  H       -0.7349260    -0.6910300     1.3363860
  H       -2.7870910     1.5245690    -0.0148120
  H       -2.6927620     0.2538980     1.2378030
  H       -3.5272530    -0.0486490    -0.3125820
units angstrom
no_reorient  #important for SAPT in psi4, default
symmetry c1  #important for SAPT in psi4, default
}

set PROPERTIES_ORIGIN ["COM"]
properties('MP2/aug-cc-pvtz', properties = ['dipole'])
--------------------------------------------------------------------------

    Molecular point group: c1
  Charge       = 0
  Multiplicity = 1
  Basis Set: AUG-CC-PVTZ
    Blend: AUG-CC-PVTZ
  Basis Set: (AUG-CC-PVTZ AUX)
    Blend: AUG-CC-PVTZ-JKFIT

    Orbital Energies [Eh]
    ---------------------

    Doubly Occupied:

       1A    -15.565700     2A    -11.272702     3A    -11.249224
       4A    -11.224782     5A    -11.220491     6A    -11.210070
       7A     -1.207956     8A     -1.064616     9A     -0.963995
      10A     -0.907133    11A     -0.815290    12A     -0.760506
      13A     -0.631586    14A     -0.625981    15A     -0.603701
      16A     -0.581121    17A     -0.570483    18A     -0.536269
      19A     -0.512663    20A     -0.489673    21A     -0.479733
      22A     -0.473868    23A     -0.407817    24A     -0.400816

  @DF-RHF Final Energy:  -250.24809479940285

   => Energetics <=

    Nuclear Repulsion Energy =            234.6038875980401031
    One-Electron Energy =                -802.1516155908045675
    Two-Electron Energy =                 317.2996331933616716
    Total Energy =                       -250.2480947994028497
  Basis Set: (AUG-CC-PVTZ AUX)
    Blend: AUG-CC-PVTZ-RI
    Molecular point group: c1

    Geometry (in Angstrom), charge = 0, multiplicity = 1:

       Center              X                  Y                   Z               Mass
    ------------   -----------------  -----------------  -----------------  -----------------
         N           -1.353344161512     0.001307169825    -0.564263554549    14.003074004430
         C            1.930543738488    -0.260959630175     0.335354945451    12.000000000000
         C            0.742866738488    -1.032915630175    -0.256003054549    12.000000000000
         C            1.926000738488     1.212944369825    -0.060186054549    12.000000000000
         C           -0.563162261512    -0.541221630175     0.285549945451    12.000000000000
         C           -2.660808261512     0.471135369825     0.189949945451    12.000000000000
         H            1.916121738488    -0.354041630175     1.428791945451     1.007825032230
         H            2.861050738488    -0.731906630175    -0.001569054549     1.007825032230
         H            0.721593738488    -0.928187630175    -1.345535054549     1.007825032230
         H            0.848400738488    -2.100506630175    -0.020817054549     1.007825032230
         H            1.961646738488     1.320193369825    -1.148532054549     1.007825032230
         H            1.020058738488     1.714932369825     0.289938945451     1.007825032230
         H            2.789189738488     1.736408369825     0.361074945451     1.007825032230
         H           -0.722258261512    -0.669956630175     1.371392945451     1.007825032230
         H           -2.774423261512     1.545642369825     0.020194945451     1.007825032230
         H           -2.680094261512     0.274971369825     1.272809945451     1.007825032230
         H           -3.514585261512    -0.027575630175    -0.277575054549     1.007825032230

  Basis Set: AUG-CC-PVTZ
    Blend: AUG-CC-PVTZ
  Basis Set: (AUG-CC-PVTZ AUX)
    Blend: AUG-CC-PVTZ-JKFIT
	 Reference Energy          =    -250.2480947994028497 [Eh]
	 Singles Energy            =      -0.0000000000000000 [Eh]
	 Same-Spin Energy          =      -0.2623221489340529 [Eh]
	 Opposite-Spin Energy      =      -0.9392088219151661 [Eh]
	 Correlation Energy        =      -1.2015309708492190 [Eh]
	 Total Energy              =    -251.4496257702520552 [Eh]

	 ================> DF-SCS-MP2 Energies <==================
	-----------------------------------------------------------
	 SCS Same-Spin Scale       =       0.3333333333333333 [-]
	 SCS Opposite-Spin Scale   =       1.2000000000000000 [-]
	 SCS Same-Spin Energy      =      -0.0874407163113509 [Eh]
	 SCS Opposite-Spin Energy  =      -1.1270505862981992 [Eh]
	 SCS Correlation Energy    =      -1.2144913026095501 [Eh]
	 SCS Total Energy          =    -251.4625861020124091 [Eh]
	-----------------------------------------------------------

  Dipole Moment: [D]
     X:     0.2479      Y:    -0.3441      Z:     1.6575     Total:     1.7109

*** Psi4 exiting successfully. Buy a developer a beer!
