                               Psi4 1.3.2 release

  ==> Input File <==

--------------------------------------------------------------------------
#psi4
#
memory 32 gb

molecule  {
0 1
  N       -1.4514230    -0.0014080    -0.4975550
  C        1.8474509    -0.2245674     0.3570680
  C        0.7301990    -1.0539890    -0.2910100
  C        1.9133330     1.1918710    -0.0951930
  C       -0.5758300    -0.5622950     0.2505430
  C       -2.6734760     0.4500620     0.1549430
  H        1.9034540    -0.3751150     1.3937850
  H        2.8483830    -0.7529800    -0.0365760
  H        0.7089260    -0.9492610    -1.3805420
  H        0.8357330    -2.1215800    -0.0558240
  H        1.9489790     1.2991200    -1.1835390
  H        1.0073910     1.6938590     0.2549320
  H        2.7765220     1.7153350     0.3260680
  H       -0.7349260    -0.6910300     1.3363860
  H       -2.7870910     1.5245690    -0.0148120
  H       -2.6927620     0.2538980     1.2378030
  H       -3.5272530    -0.0486490    -0.3125820
units angstrom
no_reorient  #important for SAPT in psi4, default
symmetry c1  #important for SAPT in psi4, default
}

set PROPERTIES_ORIGIN ["COM"]
properties('MP2/aug-cc-pvtz', properties = ['dipole'])
--------------------------------------------------------------------------

    Molecular point group: c1
  Charge       = 0
  Multiplicity = 1
  Basis Set: AUG-CC-PVTZ
    Blend: AUG-CC-PVTZ
  Basis Set: (AUG-CC-PVTZ AUX)
    Blend: AUG-CC-PVTZ-JKFIT

    Orbital Energies [Eh]
    ---------------------

    Doubly Occupied:

       1A    -15.553735     2A    -11.271692     3A    -11.242254
       4A    -11.230654     5A    -11.226911     6A    -11.211247
       7A     -1.219295     8A     -1.075921     9A     -0.977355
      10A     -0.911453    11A     -0.812260    12A     -0.759945
      13A     -0.643134    14A     -0.630872    15A     -0.614938
      16A     -0.584696    17A     -0.576962    18A     -0.548416
      19A     -0.516671    20A     -0.500960    21A     -0.492101
      22A     -0.450194    23A     -0.400156    24A     -0.393219

  @DF-RHF Final Energy:  -250.25067502848313

   => Energetics <=

    Nuclear Repulsion Energy =            236.1083304173505155
    One-Electron Energy =                -805.0279266997564491
    Two-Electron Energy =                 318.6689212539228038
    Total Energy =                       -250.2506750284831014
  Basis Set: (AUG-CC-PVTZ AUX)
    Blend: AUG-CC-PVTZ-RI
    Molecular point group: c1

    Geometry (in Angstrom), charge = 0, multiplicity = 1:

       Center              X                  Y                   Z               Mass
    ------------   -----------------  -----------------  -----------------  -----------------
         N           -1.414767253999     0.008539880379    -0.487286457621    14.003074004430
         C            1.884106646001    -0.214619519621     0.367336542379    12.000000000000
         C            0.766854746001    -1.044041119621    -0.280741457621    12.000000000000
         C            1.949988746001     1.201818880379    -0.084924457621    12.000000000000
         C           -0.539174253999    -0.552347119621     0.260811542379    12.000000000000
         C           -2.636820253999     0.460009880379     0.165211542379    12.000000000000
         H            1.940109746001    -0.365167119621     1.404053542379     1.007825032230
         H            2.885038746001    -0.743032119621    -0.026307457621     1.007825032230
         H            0.745581746001    -0.939313119621    -1.370273457621     1.007825032230
         H            0.872388746001    -2.111632119621    -0.045555457621     1.007825032230
         H            1.985634746001     1.309067880379    -1.173270457621     1.007825032230
         H            1.044046746001     1.703806880379     0.265200542379     1.007825032230
         H            2.813177746001     1.725282880379     0.336336542379     1.007825032230
         H           -0.698270253999    -0.681082119621     1.346654542379     1.007825032230
         H           -2.750435253999     1.534516880379    -0.004543457621     1.007825032230
         H           -2.656106253999     0.263845880379     1.248071542379     1.007825032230
         H           -3.490597253999    -0.038701119621    -0.302313457621     1.007825032230

  Basis Set: AUG-CC-PVTZ
    Blend: AUG-CC-PVTZ
  Basis Set: (AUG-CC-PVTZ AUX)
    Blend: AUG-CC-PVTZ-JKFIT
	 Reference Energy          =    -250.2506750284831298 [Eh]
	 Singles Energy            =      -0.0000000000000000 [Eh]
	 Same-Spin Energy          =      -0.2624131125987091 [Eh]
	 Opposite-Spin Energy      =      -0.9369857595767235 [Eh]
	 Correlation Energy        =      -1.1993988721754327 [Eh]
	 Total Energy              =    -251.4500739006585661 [Eh]

	 ================> DF-SCS-MP2 Energies <==================
	-----------------------------------------------------------
	 SCS Same-Spin Scale       =       0.3333333333333333 [-]
	 SCS Opposite-Spin Scale   =       1.2000000000000000 [-]
	 SCS Same-Spin Energy      =      -0.0874710375329030 [Eh]
	 SCS Opposite-Spin Energy  =      -1.1243829114920680 [Eh]
	 SCS Correlation Energy    =      -1.2118539490249711 [Eh]
	 SCS Total Energy          =    -251.4625289775081001 [Eh]
	-----------------------------------------------------------

  Dipole Moment: [D]
     X:     0.3623      Y:    -0.3158      Z:     1.4601     Total:     1.5372

*** Psi4 exiting successfully. Buy a developer a beer!
