                               Psi4 1.3.2 release

  ==> Input File <==

--------------------------------------------------------------------------
#psi4
#
memory 32 gb

molecule  {
0 1
  N       -1.4773845     0.0042461    -0.4615936
  C        1.9178760    -0.2820330     0.3003480
  C        0.7301990    -1.0539890    -0.2910100
  C        1.9133330     1.1918710    -0.0951930
  C       -0.5758300    -0.5622950     0.2505430
  C       -2.6734760     0.4500620     0.1549430
  H        1.9034540    -0.3751150     1.3937850
  H        2.8483830    -0.7529800    -0.0365760
  H        0.7089260    -0.9492610    -1.3805420
  H        0.8357330    -2.1215800    -0.0558240
  H        1.9489790     1.2991200    -1.1835390
  H        1.0073910     1.6938590     0.2549320
  H        2.7765220     1.7153350     0.3260680
  H       -0.7349260    -0.6910300     1.3363860
  H       -2.7870910     1.5245690    -0.0148120
  H       -2.6927620     0.2538980     1.2378030
  H       -3.5272530    -0.0486490    -0.3125820
units angstrom
no_reorient  #important for SAPT in psi4, default
symmetry c1  #important for SAPT in psi4, default
}

set PROPERTIES_ORIGIN ["COM"]
properties('MP2/aug-cc-pvtz', properties = ['dipole'])
--------------------------------------------------------------------------

    Molecular point group: c1
  Charge       = 0
  Multiplicity = 1
  Basis Set: AUG-CC-PVTZ
    Blend: AUG-CC-PVTZ
  Basis Set: (AUG-CC-PVTZ AUX)
    Blend: AUG-CC-PVTZ-JKFIT

    Orbital Energies [Eh]
    ---------------------

    Doubly Occupied:

       1A    -15.551170     2A    -11.273389     3A    -11.240460
       4A    -11.227842     5A    -11.227075     6A    -11.211800
       7A     -1.225244     8A     -1.073035     9A     -0.977071
      10A     -0.912429    11A     -0.816124    12A     -0.756738
      13A     -0.647470    14A     -0.635392    15A     -0.609929
      16A     -0.588725    17A     -0.582230    18A     -0.545990
      19A     -0.517940    20A     -0.490956    21A     -0.482480
      22A     -0.476020    23A     -0.395883    24A     -0.392602

  @DF-RHF Final Energy:  -250.26269964806585

   => Energetics <=

    Nuclear Repulsion Energy =            235.7735006758323379
    One-Electron Energy =                -804.3564109270211020
    Two-Electron Energy =                 318.3202106031229164
    Total Energy =                       -250.2626996480658477
  Basis Set: (AUG-CC-PVTZ AUX)
    Blend: AUG-CC-PVTZ-RI
    Molecular point group: c1

    Geometry (in Angstrom), charge = 0, multiplicity = 1:

       Center              X                  Y                   Z               Mass
    ------------   -----------------  -----------------  -----------------  -----------------
         N           -1.446388234648     0.021367778964    -0.449244065440    14.003074004430
         C            1.948872265352    -0.264911321036     0.312697534560    12.000000000000
         C            0.761195265352    -1.036867321036    -0.278660465440    12.000000000000
         C            1.944329265352     1.208992678964    -0.082843465440    12.000000000000
         C           -0.544833734648    -0.545173321036     0.262892534560    12.000000000000
         C           -2.642479734648     0.467183678964     0.167292534560    12.000000000000
         H            1.934450265352    -0.357993321036     1.406134534560     1.007825032230
         H            2.879379265352    -0.735858321036    -0.024226465440     1.007825032230
         H            0.739922265352    -0.932139321036    -1.368192465440     1.007825032230
         H            0.866729265352    -2.104458321036    -0.043474465440     1.007825032230
         H            1.979975265352     1.316241678964    -1.171189465440     1.007825032230
         H            1.038387265352     1.710980678964     0.267281534560     1.007825032230
         H            2.807518265352     1.732456678964     0.338417534560     1.007825032230
         H           -0.703929734648    -0.673908321036     1.348735534560     1.007825032230
         H           -2.756094734648     1.541690678964    -0.002462465440     1.007825032230
         H           -2.661765734648     0.271019678964     1.250152534560     1.007825032230
         H           -3.496256734648    -0.031527321036    -0.300232465440     1.007825032230

  Basis Set: AUG-CC-PVTZ
    Blend: AUG-CC-PVTZ
  Basis Set: (AUG-CC-PVTZ AUX)
    Blend: AUG-CC-PVTZ-JKFIT
	 Reference Energy          =    -250.2626996480658477 [Eh]
	 Singles Energy            =      -0.0000000000000000 [Eh]
	 Same-Spin Energy          =      -0.2619346966292964 [Eh]
	 Opposite-Spin Energy      =      -0.9354373193222241 [Eh]
	 Correlation Energy        =      -1.1973720159515204 [Eh]
	 Total Energy              =    -251.4600716640173630 [Eh]

	 ================> DF-SCS-MP2 Energies <==================
	-----------------------------------------------------------
	 SCS Same-Spin Scale       =       0.3333333333333333 [-]
	 SCS Opposite-Spin Scale   =       1.2000000000000000 [-]
	 SCS Same-Spin Energy      =      -0.0873115655430988 [Eh]
	 SCS Opposite-Spin Energy  =      -1.1225247831866689 [Eh]
	 SCS Correlation Energy    =      -1.2098363487297676 [Eh]
	 SCS Total Energy          =    -251.4725359967956138 [Eh]
	-----------------------------------------------------------

  Dipole Moment: [D]
     X:     0.4435      Y:    -0.3396      Z:     1.3344     Total:     1.4466

*** Psi4 exiting successfully. Buy a developer a beer!
