                               Psi4 1.3.2 release

  ==> Input File <==

--------------------------------------------------------------------------
#psi4
#
memory 32 gb

molecule  {
0 1
  N       -1.4514230    -0.0014080    -0.4975550
  C        1.9178760    -0.2820330     0.3003480
  C        0.7301990    -1.0539890    -0.2910100
  C        1.9133330     1.1918710    -0.0951930
  C       -0.7125368    -0.4747234     0.1337420
  C       -2.6734760     0.4500620     0.1549430
  H        1.9034540    -0.3751150     1.3937850
  H        2.8483830    -0.7529800    -0.0365760
  H        0.7089260    -0.9492610    -1.3805420
  H        0.8357330    -2.1215800    -0.0558240
  H        1.9489790     1.2991200    -1.1835390
  H        1.0073910     1.6938590     0.2549320
  H        2.7765220     1.7153350     0.3260680
  H       -0.7349260    -0.6910300     1.3363860
  H       -2.7870910     1.5245690    -0.0148120
  H       -2.6927620     0.2538980     1.2378030
  H       -3.5272530    -0.0486490    -0.3125820
units angstrom
no_reorient  #important for SAPT in psi4, default
symmetry c1  #important for SAPT in psi4, default
}

set PROPERTIES_ORIGIN ["COM"]
properties('MP2/aug-cc-pvtz', properties = ['dipole'])
--------------------------------------------------------------------------

    Molecular point group: c1
  Charge       = 0
  Multiplicity = 1
  Basis Set: AUG-CC-PVTZ
    Blend: AUG-CC-PVTZ
  Basis Set: (AUG-CC-PVTZ AUX)
    Blend: AUG-CC-PVTZ-JKFIT

    Orbital Energies [Eh]
    ---------------------

    Doubly Occupied:

       1A    -15.535392     2A    -11.257215     3A    -11.254190
       4A    -11.222943     5A    -11.221619     6A    -11.209969
       7A     -1.313803     8A     -1.058849     9A     -0.974693
      10A     -0.922779    11A     -0.808835    12A     -0.725908
      13A     -0.660092    14A     -0.636840    15A     -0.618413
      16A     -0.594623    17A     -0.585990    18A     -0.547054
      19A     -0.505305    20A     -0.492805    21A     -0.489694
      22A     -0.469501    23A     -0.454308    24A     -0.361449

  @DF-RHF Final Energy:  -250.19288422498630

   => Energetics <=

    Nuclear Repulsion Energy =            237.5359104114820923
    One-Electron Energy =                -807.6130570533420041
    Two-Electron Energy =                 319.8842624168736393
    Total Energy =                       -250.1928842249863010
  Basis Set: (AUG-CC-PVTZ AUX)
    Blend: AUG-CC-PVTZ-RI
    Molecular point group: c1

    Geometry (in Angstrom), charge = 0, multiplicity = 1:

       Center              X                  Y                   Z               Mass
    ------------   -----------------  -----------------  -----------------  -----------------
         N           -1.405419641454     0.004294074624    -0.462815041281    14.003074004430
         C            1.963879358546    -0.276330925376     0.335087958719    12.000000000000
         C            0.776202358546    -1.048286925376    -0.256270041281    12.000000000000
         C            1.959336358546     1.197573074624    -0.060453041281    12.000000000000
         C           -0.666533441454    -0.469021325376     0.168481958719    12.000000000000
         C           -2.627472641454     0.455764074624     0.189682958719    12.000000000000
         H            1.949457358546    -0.369412925376     1.428524958719     1.007825032230
         H            2.894386358546    -0.747277925376    -0.001836041281     1.007825032230
         H            0.754929358546    -0.943558925376    -1.345802041281     1.007825032230
         H            0.881736358546    -2.115877925376    -0.021084041281     1.007825032230
         H            1.994982358546     1.304822074624    -1.148799041281     1.007825032230
         H            1.053394358546     1.699561074624     0.289671958719     1.007825032230
         H            2.822525358546     1.721037074624     0.360807958719     1.007825032230
         H           -0.688922641454    -0.685327925376     1.371125958719     1.007825032230
         H           -2.741087641454     1.530271074624     0.019927958719     1.007825032230
         H           -2.646758641454     0.259600074624     1.272542958719     1.007825032230
         H           -3.481249641454    -0.042946925376    -0.277842041281     1.007825032230

  Basis Set: AUG-CC-PVTZ
    Blend: AUG-CC-PVTZ
  Basis Set: (AUG-CC-PVTZ AUX)
    Blend: AUG-CC-PVTZ-JKFIT
	 Reference Energy          =    -250.1928842249863010 [Eh]
	 Singles Energy            =      -0.0000000000000000 [Eh]
	 Same-Spin Energy          =      -0.2596670361577349 [Eh]
	 Opposite-Spin Energy      =      -0.9295373509968696 [Eh]
	 Correlation Energy        =      -1.1892043871546045 [Eh]
	 Total Energy              =    -251.3820886121409046 [Eh]

	 ================> DF-SCS-MP2 Energies <==================
	-----------------------------------------------------------
	 SCS Same-Spin Scale       =       0.3333333333333333 [-]
	 SCS Opposite-Spin Scale   =       1.2000000000000000 [-]
	 SCS Same-Spin Energy      =      -0.0865556787192450 [Eh]
	 SCS Opposite-Spin Energy  =      -1.1154448211962436 [Eh]
	 SCS Correlation Energy    =      -1.2020004999154885 [Eh]
	 SCS Total Energy          =    -251.3948847249018002 [Eh]
	-----------------------------------------------------------

  Dipole Moment: [D]
     X:    -0.1623      Y:    -0.0323      Z:     0.9770     Total:     0.9909

*** Psi4 exiting successfully. Buy a developer a beer!
