                               Psi4 1.3.2 release

  ==> Input File <==

--------------------------------------------------------------------------
#psi4
#
memory 32 gb

molecule  {
0 1
  N       -1.4514230    -0.0014080    -0.4975550
  C        1.9178760    -0.2820330     0.3003480
  C        0.7301990    -1.0539890    -0.2910100
  C        1.9133330     1.1918710    -0.0951930
  C       -0.5626424    -0.5650578     0.2327023
  C       -2.6734760     0.4500620     0.1549430
  H        1.9034540    -0.3751150     1.3937850
  H        2.8483830    -0.7529800    -0.0365760
  H        0.7089260    -0.9492610    -1.3805420
  H        0.8357330    -2.1215800    -0.0558240
  H        1.9489790     1.2991200    -1.1835390
  H        1.0073910     1.6938590     0.2549320
  H        2.7765220     1.7153350     0.3260680
  H       -0.7349260    -0.6910300     1.3363860
  H       -2.7870910     1.5245690    -0.0148120
  H       -2.6927620     0.2538980     1.2378030
  H       -3.5272530    -0.0486490    -0.3125820
units angstrom
no_reorient  #important for SAPT in psi4, default
symmetry c1  #important for SAPT in psi4, default
}

set PROPERTIES_ORIGIN ["COM"]
properties('MP2/aug-cc-pvtz', properties = ['dipole'])
--------------------------------------------------------------------------

    Molecular point group: c1
  Charge       = 0
  Multiplicity = 1
  Basis Set: AUG-CC-PVTZ
    Blend: AUG-CC-PVTZ
  Basis Set: (AUG-CC-PVTZ AUX)
    Blend: AUG-CC-PVTZ-JKFIT

    Orbital Energies [Eh]
    ---------------------

    Doubly Occupied:

       1A    -15.554145     2A    -11.273743     3A    -11.243182
       4A    -11.227774     5A    -11.225249     6A    -11.211739
       7A     -1.218969     8A     -1.073043     9A     -0.975646
      10A     -0.911767    11A     -0.817481    12A     -0.753072
      13A     -0.643214    14A     -0.634128    15A     -0.608776
      16A     -0.586560    17A     -0.578876    18A     -0.543786
      19A     -0.517302    20A     -0.491830    21A     -0.482562
      22A     -0.476129    23A     -0.399383    24A     -0.394219

  @DF-RHF Final Energy:  -250.26214980593744

   => Energetics <=

    Nuclear Repulsion Energy =            235.5947866465725440
    One-Electron Energy =                -804.0287214095982335
    Two-Electron Energy =                 318.1717849570882777
    Total Energy =                       -250.2621498059374403
  Basis Set: (AUG-CC-PVTZ AUX)
    Blend: AUG-CC-PVTZ-RI
    Molecular point group: c1

    Geometry (in Angstrom), charge = 0, multiplicity = 1:

       Center              X                  Y                   Z               Mass
    ------------   -----------------  -----------------  -----------------  -----------------
         N           -1.426559032476     0.017033804756    -0.476771269648    14.003074004430
         C            1.942739967524    -0.263591195244     0.321131730352    12.000000000000
         C            0.755062967524    -1.035547195244    -0.270226269648    12.000000000000
         C            1.938196967524     1.210312804756    -0.074409269648    12.000000000000
         C           -0.537778432476    -0.546615995244     0.253486030352    12.000000000000
         C           -2.648612032476     0.468503804756     0.175726730352    12.000000000000
         H            1.928317967524    -0.356673195244     1.414568730352     1.007825032230
         H            2.873246967524    -0.734538195244    -0.015792269648     1.007825032230
         H            0.733789967524    -0.930819195244    -1.359758269648     1.007825032230
         H            0.860596967524    -2.103138195244    -0.035040269648     1.007825032230
         H            1.973842967524     1.317561804756    -1.162755269648     1.007825032230
         H            1.032254967524     1.712300804756     0.275715730352     1.007825032230
         H            2.801385967524     1.733776804756     0.346851730352     1.007825032230
         H           -0.710062032476    -0.672588195244     1.357169730352     1.007825032230
         H           -2.762227032476     1.543010804756     0.005971730352     1.007825032230
         H           -2.667898032476     0.272339804756     1.258586730352     1.007825032230
         H           -3.502389032476    -0.030207195244    -0.291798269648     1.007825032230

  Basis Set: AUG-CC-PVTZ
    Blend: AUG-CC-PVTZ
  Basis Set: (AUG-CC-PVTZ AUX)
    Blend: AUG-CC-PVTZ-JKFIT
	 Reference Energy          =    -250.2621498059374403 [Eh]
	 Singles Energy            =      -0.0000000000000000 [Eh]
	 Same-Spin Energy          =      -0.2620485339396286 [Eh]
	 Opposite-Spin Energy      =      -0.9361485124968977 [Eh]
	 Correlation Energy        =      -1.1981970464365264 [Eh]
	 Total Energy              =    -251.4603468523739593 [Eh]

	 ================> DF-SCS-MP2 Energies <==================
	-----------------------------------------------------------
	 SCS Same-Spin Scale       =       0.3333333333333333 [-]
	 SCS Opposite-Spin Scale   =       1.2000000000000000 [-]
	 SCS Same-Spin Energy      =      -0.0873495113132095 [Eh]
	 SCS Opposite-Spin Energy  =      -1.1233782149962772 [Eh]
	 SCS Correlation Energy    =      -1.2107277263094867 [Eh]
	 SCS Total Energy          =    -251.4728775322469403 [Eh]
	-----------------------------------------------------------

  Dipole Moment: [D]
     X:     0.4313      Y:    -0.3427      Z:     1.3961     Total:     1.5008

*** Psi4 exiting successfully. Buy a developer a beer!
