                               Psi4 1.3.2 release

  ==> Input File <==

--------------------------------------------------------------------------
#psi4
#
memory 32 gb

molecule  {
0 1
  N       -1.4514230    -0.0014080    -0.4975550
  C        1.9178760    -0.2820330     0.3003480
  C        0.7301990    -1.0539890    -0.2910100
  C        1.9133330     1.1918710    -0.0951930
  C       -0.5676203    -0.5678148     0.2747233
  C       -2.6734760     0.4500620     0.1549430
  H        1.9034540    -0.3751150     1.3937850
  H        2.8483830    -0.7529800    -0.0365760
  H        0.7089260    -0.9492610    -1.3805420
  H        0.8357330    -2.1215800    -0.0558240
  H        1.9489790     1.2991200    -1.1835390
  H        1.0073910     1.6938590     0.2549320
  H        2.7765220     1.7153350     0.3260680
  H       -0.7349260    -0.6910300     1.3363860
  H       -2.7870910     1.5245690    -0.0148120
  H       -2.6927620     0.2538980     1.2378030
  H       -3.5272530    -0.0486490    -0.3125820
units angstrom
no_reorient  #important for SAPT in psi4, default
symmetry c1  #important for SAPT in psi4, default
}

set PROPERTIES_ORIGIN ["COM"]
properties('MP2/aug-cc-pvtz', properties = ['dipole'])
--------------------------------------------------------------------------

    Molecular point group: c1
  Charge       = 0
  Multiplicity = 1
  Basis Set: AUG-CC-PVTZ
    Blend: AUG-CC-PVTZ
  Basis Set: (AUG-CC-PVTZ AUX)
    Blend: AUG-CC-PVTZ-JKFIT

    Orbital Energies [Eh]
    ---------------------

    Doubly Occupied:

       1A    -15.557197     2A    -11.274108     3A    -11.241747
       4A    -11.226926     5A    -11.225781     6A    -11.211219
       7A     -1.212080     8A     -1.070988     9A     -0.973279
      10A     -0.907825    11A     -0.815492    12A     -0.763918
      13A     -0.641117    14A     -0.633287    15A     -0.607669
      16A     -0.586226    17A     -0.577784    18A     -0.541954
      19A     -0.518541    20A     -0.490260    21A     -0.479486
      22A     -0.475512    23A     -0.404763    24A     -0.388823

  @DF-RHF Final Energy:  -250.26003908082498

   => Energetics <=

    Nuclear Repulsion Energy =            235.1900125586393244
    One-Electron Energy =                -803.2481401402270649
    Two-Electron Energy =                 317.7980885007627876
    Total Energy =                       -250.2600390808249813
  Basis Set: (AUG-CC-PVTZ AUX)
    Blend: AUG-CC-PVTZ-RI
    Molecular point group: c1

    Geometry (in Angstrom), charge = 0, multiplicity = 1:

       Center              X                  Y                   Z               Mass
    ------------   -----------------  -----------------  -----------------  -----------------
         N           -1.425857006419     0.017422620489    -0.482697430666    14.003074004430
         C            1.943441993581    -0.263202379511     0.315205569334    12.000000000000
         C            0.755764993581    -1.035158379511    -0.276152430666    12.000000000000
         C            1.938898993581     1.210701620489    -0.080335430666    12.000000000000
         C           -0.542054306419    -0.548984179511     0.289580869334    12.000000000000
         C           -2.647910006419     0.468892620489     0.169800569334    12.000000000000
         H            1.929019993581    -0.356284379511     1.408642569334     1.007825032230
         H            2.873948993581    -0.734149379511    -0.021718430666     1.007825032230
         H            0.734491993581    -0.930430379511    -1.365684430666     1.007825032230
         H            0.861298993581    -2.102749379511    -0.040966430666     1.007825032230
         H            1.974544993581     1.317950620489    -1.168681430666     1.007825032230
         H            1.032956993581     1.712689620489     0.269789569334     1.007825032230
         H            2.802087993581     1.734165620489     0.340925569334     1.007825032230
         H           -0.709360006419    -0.672199379511     1.351243569334     1.007825032230
         H           -2.761525006419     1.543399620489     0.000045569334     1.007825032230
         H           -2.667196006419     0.272728620489     1.252660569334     1.007825032230
         H           -3.501687006419    -0.029818379511    -0.297724430666     1.007825032230

  Basis Set: AUG-CC-PVTZ
    Blend: AUG-CC-PVTZ
  Basis Set: (AUG-CC-PVTZ AUX)
    Blend: AUG-CC-PVTZ-JKFIT
	 Reference Energy          =    -250.2600390808249813 [Eh]
	 Singles Energy            =      -0.0000000000000000 [Eh]
	 Same-Spin Energy          =      -0.2622278579692786 [Eh]
	 Opposite-Spin Energy      =      -0.9371688919715044 [Eh]
	 Correlation Energy        =      -1.1993967499407829 [Eh]
	 Total Energy              =    -251.4594358307657558 [Eh]

	 ================> DF-SCS-MP2 Energies <==================
	-----------------------------------------------------------
	 SCS Same-Spin Scale       =       0.3333333333333333 [-]
	 SCS Opposite-Spin Scale   =       1.2000000000000000 [-]
	 SCS Same-Spin Energy      =      -0.0874092859897595 [Eh]
	 SCS Opposite-Spin Energy  =      -1.1246026703658052 [Eh]
	 SCS Correlation Energy    =      -1.2120119563555647 [Eh]
	 SCS Total Energy          =    -251.4720510371805346 [Eh]
	-----------------------------------------------------------

  Dipole Moment: [D]
     X:     0.4004      Y:    -0.3602      Z:     1.4825     Total:     1.5773

*** Psi4 exiting successfully. Buy a developer a beer!
