                               Psi4 1.4a3.dev225

  ==> Input File <==

--------------------------------------------------------------------------
#psi4
#
memory 32 gb

molecule  {
0 1
  N       -1.4513250    -0.0010140    -0.4975640
  C        1.9178130    -0.2820920     0.3002790
  C        0.7301270    -1.0540560    -0.2910000
  C        1.9134960     1.1918760    -0.0950710
  C       -0.5759880    -0.5623720     0.2504290
  C       -2.6315435     0.4345584     0.1325569
  H        1.9036020    -0.3753030     1.3937060
  H        2.8482930    -0.7529860    -0.0368320
  H        0.7089100    -0.9495730    -1.3805570
  H        0.8355610    -2.1216230    -0.0556080
  H        1.9497200     1.2992090    -1.1833850
  H        1.0073830     1.6938500     0.2545960
  H        2.7764960     1.7152480     0.3266950
  H       -0.7352490    -0.6914900     1.3362220
  H       -2.7876940     1.5244090    -0.0151890
  H       -2.6923780     0.2543160     1.2378980
  H       -3.5271550    -0.0493170    -0.3121090
units angstrom
no_reorient  #important for SAPT in psi4, default
symmetry c1  #important for SAPT in psi4, default
}

set PROPERTIES_ORIGIN ["COM"]
properties('MP2/aug-cc-pvtz', properties = ['dipole'])
--------------------------------------------------------------------------

    Molecular point group: c1
  Charge       = 0
  Multiplicity = 1
  Basis Set: AUG-CC-PVTZ
    Blend: AUG-CC-PVTZ
  Basis Set: (AUG-CC-PVTZ AUX)
    Blend: AUG-CC-PVTZ-JKFIT

    Orbital Energies [Eh]
    ---------------------

    Doubly Occupied:

       1A    -15.554329     2A    -11.275056     3A    -11.244404
       4A    -11.227764     5A    -11.226281     6A    -11.211968
       7A     -1.231303     8A     -1.073080     9A     -0.975724
      10A     -0.908465    11A     -0.816008    12A     -0.760134
      13A     -0.651975    14A     -0.634517    15A     -0.610050
      16A     -0.586152    17A     -0.575650    18A     -0.544795
      19A     -0.513256    20A     -0.490643    21A     -0.481119
      22A     -0.474569    23A     -0.404324    24A     -0.392230

  @DF-RHF Final Energy:  -250.26047498301256

   => Energetics <=

    Nuclear Repulsion Energy =            236.1910110418841384
    One-Electron Energy =                -805.1753789527225535
    Two-Electron Energy =                 318.7238929278258297
    Total Energy =                       -250.2604749830125570
  Basis Set: (AUG-CC-PVTZ AUX)
    Blend: AUG-CC-PVTZ-RI
    Molecular point group: c1

    Geometry (in Angstrom), charge = 0, multiplicity = 1:

       Center              X                  Y                   Z               Mass
    ------------   -----------------  -----------------  -----------------  -----------------
         N           -1.430514253651     0.019204594729    -0.476134568249    14.003074004430
         C            1.938623746349    -0.261873405271     0.321708431751    12.000000000000
         C            0.750937746349    -1.033837405271    -0.269570568249    12.000000000000
         C            1.934306746349     1.212094594729    -0.073641568249    12.000000000000
         C           -0.555177253651    -0.542153405271     0.271858431751    12.000000000000
         C           -2.610732753651     0.454776994729     0.153986331751    12.000000000000
         H            1.924412746349    -0.355084405271     1.415135431751     1.007825032230
         H            2.869103746349    -0.732767405271    -0.015402568249     1.007825032230
         H            0.729720746349    -0.929354405271    -1.359127568249     1.007825032230
         H            0.856371746349    -2.101404405271    -0.034178568249     1.007825032230
         H            1.970530746349     1.319427594729    -1.161955568249     1.007825032230
         H            1.028193746349     1.714068594729     0.276025431751     1.007825032230
         H            2.797306746349     1.735466594729     0.348124431751     1.007825032230
         H           -0.714438253651    -0.671271405271     1.357651431751     1.007825032230
         H           -2.766883253651     1.544627594729     0.006240431751     1.007825032230
         H           -2.671567253651     0.274534594729     1.259327431751     1.007825032230
         H           -3.506344253651    -0.029098405271    -0.290679568249     1.007825032230

  Basis Set: AUG-CC-PVTZ
    Blend: AUG-CC-PVTZ
  Basis Set: (AUG-CC-PVTZ AUX)
    Blend: AUG-CC-PVTZ-JKFIT
	 Reference Energy          =    -250.2604749830125570 [Eh]
	 Singles Energy            =      -0.0000000000000000 [Eh]
	 Same-Spin Energy          =      -0.2621719391811652 [Eh]
	 Opposite-Spin Energy      =      -0.9359366418971687 [Eh]
	 Correlation Energy        =      -1.1981085810783338 [Eh]
	 Total Energy              =    -251.4585835640909011 [Eh]

	 ================> DF-SCS-MP2 Energies <==================
	-----------------------------------------------------------
	 SCS Same-Spin Scale       =       0.3333333333333333 [-]
	 SCS Opposite-Spin Scale   =       1.2000000000000000 [-]
	 SCS Same-Spin Energy      =      -0.0873906463937217 [Eh]
	 SCS Opposite-Spin Energy  =      -1.1231239702766025 [Eh]
	 SCS Correlation Energy    =      -1.2105146166703242 [Eh]
	 SCS Total Energy          =    -251.4709895996828948 [Eh]
	-----------------------------------------------------------

  Dipole Moment: [D]
     X:     0.4638      Y:    -0.3637      Z:     1.3874     Total:     1.5074

*** Psi4 exiting successfully. Buy a developer a beer!
