                               Psi4 1.3.2 release

  ==> Input File <==

--------------------------------------------------------------------------
#psi4
#
memory 32 gb

molecule  {
0 1
  N       -1.4514230    -0.0014080    -0.4975550
  C        1.9178760    -0.2820330     0.3003480
  C        0.7301990    -1.0539890    -0.2910100
  C        1.9133330     1.1918710    -0.0951930
  C       -0.5406298    -0.5852560     0.3462011
  C       -2.6734760     0.4500620     0.1549430
  H        1.9034540    -0.3751150     1.3937850
  H        2.8483830    -0.7529800    -0.0365760
  H        0.7089260    -0.9492610    -1.3805420
  H        0.8357330    -2.1215800    -0.0558240
  H        1.9489790     1.2991200    -1.1835390
  H        1.0073910     1.6938590     0.2549320
  H        2.7765220     1.7153350     0.3260680
  H       -0.7349260    -0.6910300     1.3363860
  H       -2.7870910     1.5245690    -0.0148120
  H       -2.6927620     0.2538980     1.2378030
  H       -3.5272530    -0.0486490    -0.3125820
units angstrom
no_reorient  #important for SAPT in psi4, default
symmetry c1  #important for SAPT in psi4, default
}

set PROPERTIES_ORIGIN ["COM"]
properties('MP2/aug-cc-pvtz', properties = ['dipole'])
--------------------------------------------------------------------------

    Molecular point group: c1
  Charge       = 0
  Multiplicity = 1
  Basis Set: AUG-CC-PVTZ
    Blend: AUG-CC-PVTZ
  Basis Set: (AUG-CC-PVTZ AUX)
    Blend: AUG-CC-PVTZ-JKFIT

    Orbital Energies [Eh]
    ---------------------

    Doubly Occupied:

       1A    -15.564386     2A    -11.278150     3A    -11.239291
       4A    -11.227906     5A    -11.226590     6A    -11.210935
       7A     -1.191619     8A     -1.071607     9A     -0.973266
      10A     -0.900048    11A     -0.815234    12A     -0.782825
      13A     -0.638724    14A     -0.633310    15A     -0.606759
      16A     -0.584218    17A     -0.574677    18A     -0.541729
      19A     -0.522053    20A     -0.489846    21A     -0.479596
      22A     -0.469891    23A     -0.411433    24A     -0.371359

  @DF-RHF Final Energy:  -250.23976857830138

   => Energetics <=

    Nuclear Repulsion Energy =            234.4674533058927750
    One-Electron Energy =                -801.8035400603603193
    Two-Electron Energy =                 317.0963181761661076
    Total Energy =                       -250.2397685783013799
  Basis Set: (AUG-CC-PVTZ AUX)
    Blend: AUG-CC-PVTZ-RI
    Molecular point group: c1

    Geometry (in Angstrom), charge = 0, multiplicity = 1:

       Center              X                  Y                   Z               Mass
    ------------   -----------------  -----------------  -----------------  -----------------
         N           -1.429663437703     0.019882327768    -0.492777841699    14.003074004430
         C            1.939635562297    -0.260742672232     0.305125158301    12.000000000000
         C            0.751958562297    -1.032698672232    -0.286232841699    12.000000000000
         C            1.935092562297     1.213161327768    -0.090415841699    12.000000000000
         C           -0.518870237703    -0.563965672232     0.350978258301    12.000000000000
         C           -2.651716437703     0.471352327768     0.159720158301    12.000000000000
         H            1.925213562297    -0.353824672232     1.398562158301     1.007825032230
         H            2.870142562297    -0.731689672232    -0.031798841699     1.007825032230
         H            0.730685562297    -0.927970672232    -1.375764841699     1.007825032230
         H            0.857492562297    -2.100289672232    -0.051046841699     1.007825032230
         H            1.970738562297     1.320410327768    -1.178761841699     1.007825032230
         H            1.029150562297     1.715149327768     0.259709158301     1.007825032230
         H            2.798281562297     1.736625327768     0.330845158301     1.007825032230
         H           -0.713166437703    -0.669739672232     1.341163158301     1.007825032230
         H           -2.765331437703     1.545859327768    -0.010034841699     1.007825032230
         H           -2.671002437703     0.275188327768     1.242580158301     1.007825032230
         H           -3.505493437703    -0.027358672232    -0.307804841699     1.007825032230

  Basis Set: AUG-CC-PVTZ
    Blend: AUG-CC-PVTZ
  Basis Set: (AUG-CC-PVTZ AUX)
    Blend: AUG-CC-PVTZ-JKFIT
	 Reference Energy          =    -250.2397685783013799 [Eh]
	 Singles Energy            =      -0.0000000000000000 [Eh]
	 Same-Spin Energy          =      -0.2638078006184205 [Eh]
	 Opposite-Spin Energy      =      -0.9414663520922935 [Eh]
	 Correlation Energy        =      -1.2052741527107140 [Eh]
	 Total Energy              =    -251.4450427310120801 [Eh]

	 ================> DF-SCS-MP2 Energies <==================
	-----------------------------------------------------------
	 SCS Same-Spin Scale       =       0.3333333333333333 [-]
	 SCS Opposite-Spin Scale   =       1.2000000000000000 [-]
	 SCS Same-Spin Energy      =      -0.0879359335394735 [Eh]
	 SCS Opposite-Spin Energy  =      -1.1297596225107520 [Eh]
	 SCS Correlation Energy    =      -1.2176955560502254 [Eh]
	 SCS Total Energy          =    -251.4574641343515964 [Eh]
	-----------------------------------------------------------

  Dipole Moment: [D]
     X:     0.4191      Y:    -0.4016      Z:     1.5774     Total:     1.6808

*** Psi4 exiting successfully. Buy a developer a beer!
