                               Psi4 1.3.2 release

  ==> Input File <==

--------------------------------------------------------------------------
#psi4
#
memory 32 gb

molecule  {
0 1
  N       -1.5030878     0.0074264    -0.4251185
  C        1.9178760    -0.2820330     0.3003480
  C        0.7301990    -1.0539890    -0.2910100
  C        1.9133330     1.1918710    -0.0951930
  C       -0.5758300    -0.5622950     0.2505430
  C       -2.6734760     0.4500620     0.1549430
  H        1.9034540    -0.3751150     1.3937850
  H        2.8483830    -0.7529800    -0.0365760
  H        0.7089260    -0.9492610    -1.3805420
  H        0.8357330    -2.1215800    -0.0558240
  H        1.9489790     1.2991200    -1.1835390
  H        1.0073910     1.6938590     0.2549320
  H        2.7765220     1.7153350     0.3260680
  H       -0.7349260    -0.6910300     1.3363860
  H       -2.7870910     1.5245690    -0.0148120
  H       -2.6927620     0.2538980     1.2378030
  H       -3.5272530    -0.0486490    -0.3125820
units angstrom
no_reorient  #important for SAPT in psi4, default
symmetry c1  #important for SAPT in psi4, default
}

set PROPERTIES_ORIGIN ["COM"]
properties('MP2/aug-cc-pvtz', properties = ['dipole'])
--------------------------------------------------------------------------

    Molecular point group: c1
  Charge       = 0
  Multiplicity = 1
  Basis Set: AUG-CC-PVTZ
    Blend: AUG-CC-PVTZ
  Basis Set: (AUG-CC-PVTZ AUX)
    Blend: AUG-CC-PVTZ-JKFIT

    Orbital Energies [Eh]
    ---------------------

    Doubly Occupied:

       1A    -15.547577     2A    -11.274162     3A    -11.238189
       4A    -11.229159     5A    -11.228345     6A    -11.212312
       7A     -1.231743     8A     -1.075258     9A     -0.980763
      10A     -0.914457    11A     -0.816400    12A     -0.755955
      13A     -0.652435    14A     -0.637850    15A     -0.611965
      16A     -0.590791    17A     -0.585612    18A     -0.549253
      19A     -0.519080    20A     -0.491439    21A     -0.484050
      22A     -0.476697    23A     -0.390482    24A     -0.388385

  @DF-RHF Final Energy:  -250.25947325346698

   => Energetics <=

    Nuclear Repulsion Energy =            236.1211608115096396
    One-Electron Energy =                -804.9965538951149711
    Two-Electron Energy =                 318.6159198301383526
    Total Energy =                       -250.2594732534669788
  Basis Set: (AUG-CC-PVTZ AUX)
    Blend: AUG-CC-PVTZ-RI
    Molecular point group: c1

    Geometry (in Angstrom), charge = 0, multiplicity = 1:

       Center              X                  Y                   Z               Mass
    ------------   -----------------  -----------------  -----------------  -----------------
         N           -1.467861556857     0.024024698761    -0.418771652369    14.003074004430
         C            1.953102243143    -0.265434701239     0.306694847631    12.000000000000
         C            0.765425243143    -1.037390701239    -0.284663152369    12.000000000000
         C            1.948559243143     1.208469298761    -0.088846152369    12.000000000000
         C           -0.540603756857    -0.545696701239     0.256889847631    12.000000000000
         C           -2.638249756857     0.466660298761     0.161289847631    12.000000000000
         H            1.938680243143    -0.358516701239     1.400131847631     1.007825032230
         H            2.883609243143    -0.736381701239    -0.030229152369     1.007825032230
         H            0.744152243143    -0.932662701239    -1.374195152369     1.007825032230
         H            0.870959243143    -2.104981701239    -0.049477152369     1.007825032230
         H            1.984205243143     1.315718298761    -1.177192152369     1.007825032230
         H            1.042617243143     1.710457298761     0.261278847631     1.007825032230
         H            2.811748243143     1.731933298761     0.332414847631     1.007825032230
         H           -0.699699756857    -0.674431701239     1.342732847631     1.007825032230
         H           -2.751864756857     1.541167298761    -0.008465152369     1.007825032230
         H           -2.657535756857     0.270496298761     1.244149847631     1.007825032230
         H           -3.492026756857    -0.032050701239    -0.306235152369     1.007825032230

  Basis Set: AUG-CC-PVTZ
    Blend: AUG-CC-PVTZ
  Basis Set: (AUG-CC-PVTZ AUX)
    Blend: AUG-CC-PVTZ-JKFIT
	 Reference Energy          =    -250.2594732534669788 [Eh]
	 Singles Energy            =      -0.0000000000000000 [Eh]
	 Same-Spin Energy          =      -0.2621718450222786 [Eh]
	 Opposite-Spin Energy      =      -0.9350811884131456 [Eh]
	 Correlation Energy        =      -1.1972530334354241 [Eh]
	 Total Energy              =    -251.4567262869024091 [Eh]

	 ================> DF-SCS-MP2 Energies <==================
	-----------------------------------------------------------
	 SCS Same-Spin Scale       =       0.3333333333333333 [-]
	 SCS Opposite-Spin Scale   =       1.2000000000000000 [-]
	 SCS Same-Spin Energy      =      -0.0873906150074262 [Eh]
	 SCS Opposite-Spin Energy  =      -1.1220974260957746 [Eh]
	 SCS Correlation Energy    =      -1.2094880411032007 [Eh]
	 SCS Total Energy          =    -251.4689612945701924 [Eh]
	-----------------------------------------------------------

  Dipole Moment: [D]
     X:     0.5053      Y:    -0.3348      Z:     1.2202     Total:     1.3624

*** Psi4 exiting successfully. Buy a developer a beer!
