                               Psi4 1.3.2 release

  ==> Input File <==

--------------------------------------------------------------------------
#psi4
#
memory 32 gb

molecule  {
0 1
  N       -1.4722434    -0.0950647    -0.4638215
  C        1.9178760    -0.2820330     0.3003480
  C        0.7301990    -1.0539890    -0.2910100
  C        1.9133330     1.1918710    -0.0951930
  C       -0.5758300    -0.5622950     0.2505430
  C       -2.6734760     0.4500620     0.1549430
  H        1.9034540    -0.3751150     1.3937850
  H        2.8483830    -0.7529800    -0.0365760
  H        0.7089260    -0.9492610    -1.3805420
  H        0.8357330    -2.1215800    -0.0558240
  H        1.9489790     1.2991200    -1.1835390
  H        1.0073910     1.6938590     0.2549320
  H        2.7765220     1.7153350     0.3260680
  H       -0.7349260    -0.6910300     1.3363860
  H       -2.7870910     1.5245690    -0.0148120
  H       -2.6927620     0.2538980     1.2378030
  H       -3.5272530    -0.0486490    -0.3125820
units angstrom
no_reorient  #important for SAPT in psi4, default
symmetry c1  #important for SAPT in psi4, default
}

set PROPERTIES_ORIGIN ["COM"]
properties('MP2/aug-cc-pvtz', properties = ['dipole'])
--------------------------------------------------------------------------

    Molecular point group: c1
  Charge       = 0
  Multiplicity = 1
  Basis Set: AUG-CC-PVTZ
    Blend: AUG-CC-PVTZ
  Basis Set: (AUG-CC-PVTZ AUX)
    Blend: AUG-CC-PVTZ-JKFIT

    Orbital Energies [Eh]
    ---------------------

    Doubly Occupied:

       1A    -15.546522     2A    -11.265090     3A    -11.244970
       4A    -11.226526     5A    -11.223893     6A    -11.212006
       7A     -1.233882     8A     -1.070310     9A     -0.975077
      10A     -0.915815    11A     -0.815426    12A     -0.753755
      13A     -0.646874    14A     -0.634717    15A     -0.610090
      16A     -0.587965    17A     -0.580245    18A     -0.545252
      19A     -0.518460    20A     -0.491305    21A     -0.483113
      22A     -0.475695    23A     -0.407723    24A     -0.388294

  @DF-RHF Final Energy:  -250.26349860896457

   => Energetics <=

    Nuclear Repulsion Energy =            236.0611043533658631
    One-Electron Energy =                -804.9431961219926279
    Two-Electron Energy =                 318.6185931596621685
    Total Energy =                       -250.2634986089645963
  Basis Set: (AUG-CC-PVTZ AUX)
    Blend: AUG-CC-PVTZ-RI
    Molecular point group: c1

    Geometry (in Angstrom), charge = 0, multiplicity = 1:

       Center              X                  Y                   Z               Mass
    ------------   -----------------  -----------------  -----------------  -----------------
         N           -1.442093202617    -0.061599497892    -0.451105321176    14.003074004430
         C            1.948026197383    -0.248567797892     0.313064178824    12.000000000000
         C            0.760349197383    -1.020523797892    -0.278293821176    12.000000000000
         C            1.943483197383     1.225336202108    -0.082476821176    12.000000000000
         C           -0.545679802617    -0.528829797892     0.263259178824    12.000000000000
         C           -2.643325802617     0.483527202108     0.167659178824    12.000000000000
         H            1.933604197383    -0.341649797892     1.406501178824     1.007825032230
         H            2.878533197383    -0.719514797892    -0.023859821176     1.007825032230
         H            0.739076197383    -0.915795797892    -1.367825821176     1.007825032230
         H            0.865883197383    -2.088114797892    -0.043107821176     1.007825032230
         H            1.979129197383     1.332585202108    -1.170822821176     1.007825032230
         H            1.037541197383     1.727324202108     0.267648178824     1.007825032230
         H            2.806672197383     1.748800202108     0.338784178824     1.007825032230
         H           -0.704775802617    -0.657564797892     1.349102178824     1.007825032230
         H           -2.756940802617     1.558034202108    -0.002095821176     1.007825032230
         H           -2.662611802617     0.287363202108     1.250519178824     1.007825032230
         H           -3.497102802617    -0.015183797892    -0.299865821176     1.007825032230

  Basis Set: AUG-CC-PVTZ
    Blend: AUG-CC-PVTZ
  Basis Set: (AUG-CC-PVTZ AUX)
    Blend: AUG-CC-PVTZ-JKFIT
	 Reference Energy          =    -250.2634986089645679 [Eh]
	 Singles Energy            =      -0.0000000000000000 [Eh]
	 Same-Spin Energy          =      -0.2610123837335844 [Eh]
	 Opposite-Spin Energy      =      -0.9336296979999392 [Eh]
	 Correlation Energy        =      -1.1946420817335237 [Eh]
	 Total Energy              =    -251.4581406906980874 [Eh]

	 ================> DF-SCS-MP2 Energies <==================
	-----------------------------------------------------------
	 SCS Same-Spin Scale       =       0.3333333333333333 [-]
	 SCS Opposite-Spin Scale   =       1.2000000000000000 [-]
	 SCS Same-Spin Energy      =      -0.0870041279111948 [Eh]
	 SCS Opposite-Spin Energy  =      -1.1203556375999271 [Eh]
	 SCS Correlation Energy    =      -1.2073597655111219 [Eh]
	 SCS Total Energy          =    -251.4708583744756822 [Eh]
	-----------------------------------------------------------

  Dipole Moment: [D]
     X:     0.3834      Y:    -0.1599      Z:     1.3405     Total:     1.4034

*** Psi4 exiting successfully. Buy a developer a beer!
