                               Psi4 1.4a3.dev225

  ==> Input File <==

--------------------------------------------------------------------------
#psi4
#
memory 32 gb

molecule  {
0 1
  N       -1.4513250    -0.0010140    -0.4975640
  C        1.9178130    -0.2820920     0.3002790
  C        0.7301270    -1.0540560    -0.2910000
  C        1.9134960     1.1918760    -0.0950710
  C       -0.5759880    -0.5623720     0.2504290
  C       -2.6902602     0.4562284     0.1639058
  H        1.9036020    -0.3753030     1.3937060
  H        2.8482930    -0.7529860    -0.0368320
  H        0.7089100    -0.9495730    -1.3805570
  H        0.8355610    -2.1216230    -0.0556080
  H        1.9497200     1.2992090    -1.1833850
  H        1.0073830     1.6938500     0.2545960
  H        2.7764960     1.7152480     0.3266950
  H       -0.7352490    -0.6914900     1.3362220
  H       -2.7876940     1.5244090    -0.0151890
  H       -2.6923780     0.2543160     1.2378980
  H       -3.5271550    -0.0493170    -0.3121090
units angstrom
no_reorient  #important for SAPT in psi4, default
symmetry c1  #important for SAPT in psi4, default
}

set PROPERTIES_ORIGIN ["COM"]
properties('MP2/aug-cc-pvtz', properties = ['dipole'])
--------------------------------------------------------------------------

    Molecular point group: c1
  Charge       = 0
  Multiplicity = 1
  Basis Set: AUG-CC-PVTZ
    Blend: AUG-CC-PVTZ
  Basis Set: (AUG-CC-PVTZ AUX)
    Blend: AUG-CC-PVTZ-JKFIT

    Orbital Energies [Eh]
    ---------------------

    Doubly Occupied:

       1A    -15.554930     2A    -11.272066     3A    -11.242301
       4A    -11.226728     5A    -11.225074     6A    -11.211096
       7A     -1.215522     8A     -1.070009     9A     -0.972815
      10A     -0.911623    11A     -0.815806    12A     -0.756606
      13A     -0.639183    14A     -0.632773    15A     -0.607332
      16A     -0.587344    17A     -0.580517    18A     -0.542219
      19A     -0.518056    20A     -0.490509    21A     -0.481108
      22A     -0.475475    23A     -0.400255    24A     -0.395627

  @DF-RHF Final Energy:  -250.26246972334337

   => Energetics <=

    Nuclear Repulsion Energy =            235.1504394339688986
    One-Electron Energy =                -803.1758746277226919
    Two-Electron Energy =                 317.7629654704103928
    Total Energy =                       -250.2624697233433722
  Basis Set: (AUG-CC-PVTZ AUX)
    Blend: AUG-CC-PVTZ-RI
    Molecular point group: c1

    Geometry (in Angstrom), charge = 0, multiplicity = 1:

       Center              X                  Y                   Z               Mass
    ------------   -----------------  -----------------  -----------------  -----------------
         N           -1.422233522144     0.016148505886    -0.480555658398    14.003074004430
         C            1.946904477856    -0.264929494114     0.317287341602    12.000000000000
         C            0.759218477856    -1.036893494114    -0.273991658398    12.000000000000
         C            1.942587477856     1.209038505886    -0.078062658398    12.000000000000
         C           -0.546896522144    -0.545209494114     0.267437341602    12.000000000000
         C           -2.661168722144     0.473390905886     0.180914141602    12.000000000000
         H            1.932693477856    -0.358140494114     1.410714341602     1.007825032230
         H            2.877384477856    -0.735823494114    -0.019823658398     1.007825032230
         H            0.738001477856    -0.932410494114    -1.363548658398     1.007825032230
         H            0.864652477856    -2.104460494114    -0.038599658398     1.007825032230
         H            1.978811477856     1.316371505886    -1.166376658398     1.007825032230
         H            1.036474477856     1.711012505886     0.271604341602     1.007825032230
         H            2.805587477856     1.732410505886     0.343703341602     1.007825032230
         H           -0.706157522144    -0.674327494114     1.353230341602     1.007825032230
         H           -2.758602522144     1.541571505886     0.001819341602     1.007825032230
         H           -2.663286522144     0.271478505886     1.254906341602     1.007825032230
         H           -3.498063522144    -0.032154494114    -0.295100658398     1.007825032230

  Basis Set: AUG-CC-PVTZ
    Blend: AUG-CC-PVTZ
  Basis Set: (AUG-CC-PVTZ AUX)
    Blend: AUG-CC-PVTZ-JKFIT
	 Reference Energy          =    -250.2624697233433722 [Eh]
	 Singles Energy            =      -0.0000000000000000 [Eh]
	 Same-Spin Energy          =      -0.2617544551027834 [Eh]
	 Opposite-Spin Energy      =      -0.9361525377519236 [Eh]
	 Correlation Energy        =      -1.1979069928547070 [Eh]
	 Total Energy              =    -251.4603767161980841 [Eh]

	 ================> DF-SCS-MP2 Energies <==================
	-----------------------------------------------------------
	 SCS Same-Spin Scale       =       0.3333333333333333 [-]
	 SCS Opposite-Spin Scale   =       1.2000000000000000 [-]
	 SCS Same-Spin Energy      =      -0.0872514850342611 [Eh]
	 SCS Opposite-Spin Energy  =      -1.1233830453023084 [Eh]
	 SCS Correlation Energy    =      -1.2106345303365695 [Eh]
	 SCS Total Energy          =    -251.4731042536799350 [Eh]
	-----------------------------------------------------------

  Dipole Moment: [D]
     X:     0.3614      Y:    -0.3339      Z:     1.4507     Total:     1.5319

*** Psi4 exiting successfully. Buy a developer a beer!
