                               Psi4 1.4a3.dev225

  ==> Input File <==

--------------------------------------------------------------------------
#psi4
#
memory 32 gb

molecule  {
0 1
  N       -1.4513250    -0.0010140    -0.4975640
  C        1.9178130    -0.2820920     0.3002790
  C        0.7301270    -1.0540560    -0.2910000
  C        1.9134960     1.1918760    -0.0950710
  C       -0.6196141    -0.5459491     0.2685135
  C       -2.6734840     0.4500370     0.1549490
  H        1.9036020    -0.3753030     1.3937060
  H        2.8482930    -0.7529860    -0.0368320
  H        0.7089100    -0.9495730    -1.3805570
  H        0.8355610    -2.1216230    -0.0556080
  H        1.9497200     1.2992090    -1.1833850
  H        1.0073830     1.6938500     0.2545960
  H        2.7764960     1.7152480     0.3266950
  H       -0.7352490    -0.6914900     1.3362220
  H       -2.7876940     1.5244090    -0.0151890
  H       -2.6923780     0.2543160     1.2378980
  H       -3.5271550    -0.0493170    -0.3121090
units angstrom
no_reorient  #important for SAPT in psi4, default
symmetry c1  #important for SAPT in psi4, default
}

set PROPERTIES_ORIGIN ["COM"]
properties('MP2/aug-cc-pvtz', properties = ['dipole'])
--------------------------------------------------------------------------

    Molecular point group: c1
  Charge       = 0
  Multiplicity = 1
  Basis Set: AUG-CC-PVTZ
    Blend: AUG-CC-PVTZ
  Basis Set: (AUG-CC-PVTZ AUX)
    Blend: AUG-CC-PVTZ-JKFIT

    Orbital Energies [Eh]
    ---------------------

    Doubly Occupied:

       1A    -15.553875     2A    -11.269566     3A    -11.242994
       4A    -11.225411     5A    -11.224805     6A    -11.210431
       7A     -1.231187     8A     -1.065505     9A     -0.968874
      10A     -0.910970    11A     -0.812736    12A     -0.762358
      13A     -0.643743    14A     -0.630906    15A     -0.607109
      16A     -0.588246    17A     -0.580512    18A     -0.542584
      19A     -0.512079    20A     -0.487667    21A     -0.479953
      22A     -0.472284    23A     -0.403918    24A     -0.401992

  @DF-RHF Final Energy:  -250.26218621114765

   => Energetics <=

    Nuclear Repulsion Energy =            235.3756635299663458
    One-Electron Energy =                -803.6162851626150996
    Two-Electron Energy =                 317.9784354215011035
    Total Energy =                       -250.2621862111476503
  Basis Set: (AUG-CC-PVTZ AUX)
    Blend: AUG-CC-PVTZ-RI
    Molecular point group: c1

    Geometry (in Angstrom), charge = 0, multiplicity = 1:

       Center              X                  Y                   Z               Mass
    ------------   -----------------  -----------------  -----------------  -----------------
         N           -1.418446919476     0.014705572199    -0.481842924763    14.003074004430
         C            1.950691080524    -0.266372427801     0.316000075237    12.000000000000
         C            0.763005080524    -1.038336427801    -0.275278924763    12.000000000000
         C            1.946374080524     1.207595572199    -0.079349924763    12.000000000000
         C           -0.586736019476    -0.530229527801     0.284234575237    12.000000000000
         C           -2.640605919476     0.465756572199     0.170670075237    12.000000000000
         H            1.936480080524    -0.359583427801     1.409427075237     1.007825032230
         H            2.881171080524    -0.737266427801    -0.021110924763     1.007825032230
         H            0.741788080524    -0.933853427801    -1.364835924763     1.007825032230
         H            0.868439080524    -2.105903427801    -0.039886924763     1.007825032230
         H            1.982598080524     1.314928572199    -1.167663924763     1.007825032230
         H            1.040261080524     1.709569572199     0.270317075237     1.007825032230
         H            2.809374080524     1.730967572199     0.342416075237     1.007825032230
         H           -0.702370919476    -0.675770427801     1.351943075237     1.007825032230
         H           -2.754815919476     1.540128572199     0.000532075237     1.007825032230
         H           -2.659499919476     0.270035572199     1.253619075237     1.007825032230
         H           -3.494276919476    -0.033597427801    -0.296387924763     1.007825032230

  Basis Set: AUG-CC-PVTZ
    Blend: AUG-CC-PVTZ
  Basis Set: (AUG-CC-PVTZ AUX)
    Blend: AUG-CC-PVTZ-JKFIT
	 Reference Energy          =    -250.2621862111476503 [Eh]
	 Singles Energy            =      -0.0000000000000000 [Eh]
	 Same-Spin Energy          =      -0.2610326337735025 [Eh]
	 Opposite-Spin Energy      =      -0.9348092343810770 [Eh]
	 Correlation Energy        =      -1.1958418681545795 [Eh]
	 Total Energy              =    -251.4580280793022382 [Eh]

	 ================> DF-SCS-MP2 Energies <==================
	-----------------------------------------------------------
	 SCS Same-Spin Scale       =       0.3333333333333333 [-]
	 SCS Opposite-Spin Scale   =       1.2000000000000000 [-]
	 SCS Same-Spin Energy      =      -0.0870108779245008 [Eh]
	 SCS Opposite-Spin Energy  =      -1.1217710812572923 [Eh]
	 SCS Correlation Energy    =      -1.2087819591817932 [Eh]
	 SCS Total Energy          =    -251.4709681703294564 [Eh]
	-----------------------------------------------------------

  Dipole Moment: [D]
     X:     0.2543      Y:    -0.3090      Z:     1.4683     Total:     1.5219

*** Psi4 exiting successfully. Buy a developer a beer!
