                               Psi4 1.3.2 release

  ==> Input File <==

--------------------------------------------------------------------------
#psi4
#
memory 32 gb

molecule  {
0 1
  N       -1.4514230    -0.0014080    -0.4975550
  C        1.9178760    -0.2820330     0.3003480
  C        0.7301990    -1.0539890    -0.2910100
  C        1.9133330     1.1918710    -0.0951930
  C       -0.5836419    -0.5569249     0.2261977
  C       -2.6734760     0.4500620     0.1549430
  H        1.9034540    -0.3751150     1.3937850
  H        2.8483830    -0.7529800    -0.0365760
  H        0.7089260    -0.9492610    -1.3805420
  H        0.8357330    -2.1215800    -0.0558240
  H        1.9489790     1.2991200    -1.1835390
  H        1.0073910     1.6938590     0.2549320
  H        2.7765220     1.7153350     0.3260680
  H       -0.7349260    -0.6910300     1.3363860
  H       -2.7870910     1.5245690    -0.0148120
  H       -2.6927620     0.2538980     1.2378030
  H       -3.5272530    -0.0486490    -0.3125820
units angstrom
no_reorient  #important for SAPT in psi4, default
symmetry c1  #important for SAPT in psi4, default
}

set PROPERTIES_ORIGIN ["COM"]
properties('MP2/aug-cc-pvtz', properties = ['dipole'])
--------------------------------------------------------------------------

    Molecular point group: c1
  Charge       = 0
  Multiplicity = 1
  Basis Set: AUG-CC-PVTZ
    Blend: AUG-CC-PVTZ
  Basis Set: (AUG-CC-PVTZ AUX)
    Blend: AUG-CC-PVTZ-JKFIT

    Orbital Energies [Eh]
    ---------------------

    Doubly Occupied:

       1A    -15.552467     2A    -11.271702     3A    -11.243857
       4A    -11.227124     5A    -11.225117     6A    -11.211466
       7A     -1.227518     8A     -1.070757     9A     -0.973967
      10A     -0.913579    11A     -0.816403    12A     -0.751379
      13A     -0.644276    14A     -0.633260    15A     -0.608761
      16A     -0.587290    17A     -0.580118    18A     -0.544319
      19A     -0.514689    20A     -0.490914    21A     -0.482987
      22A     -0.474799    23A     -0.401141    24A     -0.398071

  @DF-RHF Final Energy:  -250.26366633775780

   => Energetics <=

    Nuclear Repulsion Energy =            235.6997306093774966
    One-Electron Energy =                -804.2348714788381585
    Two-Electron Energy =                 318.2714745317028360
    Total Energy =                       -250.2636663377577975
  Basis Set: (AUG-CC-PVTZ AUX)
    Blend: AUG-CC-PVTZ-RI
    Molecular point group: c1

    Geometry (in Angstrom), charge = 0, multiplicity = 1:

       Center              X                  Y                   Z               Mass
    ------------   -----------------  -----------------  -----------------  -----------------
         N           -1.423597503281     0.015886833600    -0.475853935292    14.003074004430
         C            1.945701496719    -0.264738166400     0.322049064708    12.000000000000
         C            0.758024496719    -1.036694166400    -0.269308935292    12.000000000000
         C            1.941158496719     1.209165833600    -0.073491935292    12.000000000000
         C           -0.555816403281    -0.539630066400     0.247898764708    12.000000000000
         C           -2.645650503281     0.467356833600     0.176644064708    12.000000000000
         H            1.931279496719    -0.357820166400     1.415486064708     1.007825032230
         H            2.876208496719    -0.735685166400    -0.014874935292     1.007825032230
         H            0.736751496719    -0.931966166400    -1.358840935292     1.007825032230
         H            0.863558496719    -2.104285166400    -0.034122935292     1.007825032230
         H            1.976804496719     1.316414833600    -1.161837935292     1.007825032230
         H            1.035216496719     1.711153833600     0.276633064708     1.007825032230
         H            2.804347496719     1.732629833600     0.347769064708     1.007825032230
         H           -0.707100503281    -0.673735166400     1.358087064708     1.007825032230
         H           -2.759265503281     1.541863833600     0.006889064708     1.007825032230
         H           -2.664936503281     0.271192833600     1.259504064708     1.007825032230
         H           -3.499427503281    -0.031354166400    -0.290880935292     1.007825032230

  Basis Set: AUG-CC-PVTZ
    Blend: AUG-CC-PVTZ
  Basis Set: (AUG-CC-PVTZ AUX)
    Blend: AUG-CC-PVTZ-JKFIT
	 Reference Energy          =    -250.2636663377577975 [Eh]
	 Singles Energy            =      -0.0000000000000000 [Eh]
	 Same-Spin Energy          =      -0.2615056180589438 [Eh]
	 Opposite-Spin Energy      =      -0.9350361469248490 [Eh]
	 Correlation Energy        =      -1.1965417649837928 [Eh]
	 Total Energy              =    -251.4602081027416034 [Eh]

	 ================> DF-SCS-MP2 Energies <==================
	-----------------------------------------------------------
	 SCS Same-Spin Scale       =       0.3333333333333333 [-]
	 SCS Opposite-Spin Scale   =       1.2000000000000000 [-]
	 SCS Same-Spin Energy      =      -0.0871685393529813 [Eh]
	 SCS Opposite-Spin Energy  =      -1.1220433763098188 [Eh]
	 SCS Correlation Energy    =      -1.2092119156628001 [Eh]
	 SCS Total Energy          =    -251.4728782534205891 [Eh]
	-----------------------------------------------------------

  Dipole Moment: [D]
     X:     0.3729      Y:    -0.3178      Z:     1.3775     Total:     1.4620

*** Psi4 exiting successfully. Buy a developer a beer!
