                               Psi4 1.3.2 release

  ==> Input File <==

--------------------------------------------------------------------------
#psi4
#
memory 32 gb

molecule  {
0 1
  N       -1.4514230    -0.0014080    -0.4975550
  C        1.9178760    -0.2820330     0.3003480
  C        0.7301990    -1.0539890    -0.2910100
  C        1.9133330     1.1918710    -0.0951930
  C       -0.5758300    -0.5622950     0.2505430
  C       -2.5896042     0.4190768     0.1101608
  H        1.9034540    -0.3751150     1.3937850
  H        2.8483830    -0.7529800    -0.0365760
  H        0.7089260    -0.9492610    -1.3805420
  H        0.8357330    -2.1215800    -0.0558240
  H        1.9489790     1.2991200    -1.1835390
  H        1.0073910     1.6938590     0.2549320
  H        2.7765220     1.7153350     0.3260680
  H       -0.7349260    -0.6910300     1.3363860
  H       -2.7870910     1.5245690    -0.0148120
  H       -2.6927620     0.2538980     1.2378030
  H       -3.5272530    -0.0486490    -0.3125820
units angstrom
no_reorient  #important for SAPT in psi4, default
symmetry c1  #important for SAPT in psi4, default
}

set PROPERTIES_ORIGIN ["COM"]
properties('MP2/aug-cc-pvtz', properties = ['dipole'])
--------------------------------------------------------------------------

    Molecular point group: c1
  Charge       = 0
  Multiplicity = 1
  Basis Set: AUG-CC-PVTZ
    Blend: AUG-CC-PVTZ
  Basis Set: (AUG-CC-PVTZ AUX)
    Blend: AUG-CC-PVTZ-JKFIT

    Orbital Energies [Eh]
    ---------------------

    Doubly Occupied:

       1A    -15.553658     2A    -11.277559     3A    -11.246777
       4A    -11.228622     5A    -11.227282     6A    -11.212693
       7A     -1.245069     8A     -1.075551     9A     -0.978378
      10A     -0.906644    11A     -0.815871    12A     -0.762922
      13A     -0.661716    14A     -0.636376    15A     -0.611931
      16A     -0.586579    17A     -0.573717    18A     -0.546442
      19A     -0.510603    20A     -0.490707    21A     -0.481450
      22A     -0.473071    23A     -0.404853    24A     -0.388426

  @DF-RHF Final Energy:  -250.25249560063241

   => Energetics <=

    Nuclear Repulsion Energy =            236.9809255452884997
    One-Electron Energy =                -806.6730461906793153
    Two-Electron Energy =                 319.4396250447583725
    Total Energy =                       -250.2524956006324146
  Basis Set: (AUG-CC-PVTZ AUX)
    Blend: AUG-CC-PVTZ-RI
    Molecular point group: c1

    Geometry (in Angstrom), charge = 0, multiplicity = 1:

       Center              X                  Y                   Z               Mass
    ------------   -----------------  -----------------  -----------------  -----------------
         N           -1.436527523246     0.021013969120    -0.472971748764    14.003074004430
         C            1.932771476754    -0.259611030880     0.324931251236    12.000000000000
         C            0.745094476754    -1.031567030880    -0.266426748764    12.000000000000
         C            1.928228476754     1.214292969120    -0.070609748764    12.000000000000
         C           -0.560934523246    -0.539873030880     0.275126251236    12.000000000000
         C           -2.574708723246     0.441498769120     0.134744051236    12.000000000000
         H            1.918349476754    -0.352693030880     1.418368251236     1.007825032230
         H            2.863278476754    -0.730558030880    -0.011992748764     1.007825032230
         H            0.723821476754    -0.926839030880    -1.355958748764     1.007825032230
         H            0.850628476754    -2.099158030880    -0.031240748764     1.007825032230
         H            1.963874476754     1.321541969120    -1.158955748764     1.007825032230
         H            1.022286476754     1.716280969120     0.279515251236     1.007825032230
         H            2.791417476754     1.737756969120     0.350651251236     1.007825032230
         H           -0.720030523246    -0.668608030880     1.360969251236     1.007825032230
         H           -2.772195523246     1.546990969120     0.009771251236     1.007825032230
         H           -2.677866523246     0.276319969120     1.262386251236     1.007825032230
         H           -3.512357523246    -0.026227030880    -0.287998748764     1.007825032230

  Basis Set: AUG-CC-PVTZ
    Blend: AUG-CC-PVTZ
  Basis Set: (AUG-CC-PVTZ AUX)
    Blend: AUG-CC-PVTZ-JKFIT
	 Reference Energy          =    -250.2524956006324146 [Eh]
	 Singles Energy            =      -0.0000000000000000 [Eh]
	 Same-Spin Energy          =      -0.2627261911413272 [Eh]
	 Opposite-Spin Energy      =      -0.9361665013025171 [Eh]
	 Correlation Energy        =      -1.1988926924438443 [Eh]
	 Total Energy              =    -251.4513882930762634 [Eh]

	 ================> DF-SCS-MP2 Energies <==================
	-----------------------------------------------------------
	 SCS Same-Spin Scale       =       0.3333333333333333 [-]
	 SCS Opposite-Spin Scale   =       1.2000000000000000 [-]
	 SCS Same-Spin Energy      =      -0.0875753970471091 [Eh]
	 SCS Opposite-Spin Energy  =      -1.1233998015630204 [Eh]
	 SCS Correlation Energy    =      -1.2109751986101296 [Eh]
	 SCS Total Energy          =    -251.4634707992425433 [Eh]
	-----------------------------------------------------------

  Dipole Moment: [D]
     X:     0.5551      Y:    -0.3887      Z:     1.3301     Total:     1.4927

*** Psi4 exiting successfully. Buy a developer a beer!
