                               Psi4 1.3.2 release

  ==> Input File <==

--------------------------------------------------------------------------
#psi4
#
memory 32 gb

molecule  {
0 1
  N       -1.4514230    -0.0014080    -0.4975550
  C        1.9178760    -0.2820330     0.3003480
  C        0.7301990    -1.0539890    -0.2910100
  C        1.9133330     1.1918710    -0.0951930
  C       -0.6441834    -0.5185092     0.1921425
  C       -2.6734760     0.4500620     0.1549430
  H        1.9034540    -0.3751150     1.3937850
  H        2.8483830    -0.7529800    -0.0365760
  H        0.7089260    -0.9492610    -1.3805420
  H        0.8357330    -2.1215800    -0.0558240
  H        1.9489790     1.2991200    -1.1835390
  H        1.0073910     1.6938590     0.2549320
  H        2.7765220     1.7153350     0.3260680
  H       -0.7349260    -0.6910300     1.3363860
  H       -2.7870910     1.5245690    -0.0148120
  H       -2.6927620     0.2538980     1.2378030
  H       -3.5272530    -0.0486490    -0.3125820
units angstrom
no_reorient  #important for SAPT in psi4, default
symmetry c1  #important for SAPT in psi4, default
}

set PROPERTIES_ORIGIN ["COM"]
properties('MP2/aug-cc-pvtz', properties = ['dipole'])
--------------------------------------------------------------------------

    Molecular point group: c1
  Charge       = 0
  Multiplicity = 1
  Basis Set: AUG-CC-PVTZ
    Blend: AUG-CC-PVTZ
  Basis Set: (AUG-CC-PVTZ AUX)
    Blend: AUG-CC-PVTZ-JKFIT

    Orbital Energies [Eh]
    ---------------------

    Doubly Occupied:

       1A    -15.545244     2A    -11.264993     3A    -11.247210
       4A    -11.225165     5A    -11.223993     6A    -11.210751
       7A     -1.262012     8A     -1.064696     9A     -0.971108
      10A     -0.919296    11A     -0.812962    12A     -0.741754
      13A     -0.649761    14A     -0.632869    15A     -0.610008
      16A     -0.590384    17A     -0.584037    18A     -0.545907
      19A     -0.507918    20A     -0.489192    21A     -0.485576
      22A     -0.471285    23A     -0.425527    24A     -0.387095

  @DF-RHF Final Energy:  -250.25290229777858

   => Energetics <=

    Nuclear Repulsion Energy =            236.3459004555813010
    One-Electron Energy =                -805.4601187289691779
    Two-Electron Energy =                 318.8613159756093296
    Total Energy =                       -250.2529022977785758
  Basis Set: (AUG-CC-PVTZ AUX)
    Blend: AUG-CC-PVTZ-RI
    Molecular point group: c1

    Geometry (in Angstrom), charge = 0, multiplicity = 1:

       Center              X                  Y                   Z               Mass
    ------------   -----------------  -----------------  -----------------  -----------------
         N           -1.415059422862     0.010469122841    -0.471051179558    14.003074004430
         C            1.954239577138    -0.270155877159     0.326851820442    12.000000000000
         C            0.766562577138    -1.042111877159    -0.264506179558    12.000000000000
         C            1.949696577138     1.203748122841    -0.068689179558    12.000000000000
         C           -0.607819822862    -0.506632077159     0.218646320442    12.000000000000
         C           -2.637112422862     0.461939122841     0.181446820442    12.000000000000
         H            1.939817577138    -0.363237877159     1.420288820442     1.007825032230
         H            2.884746577138    -0.741102877159    -0.010072179558     1.007825032230
         H            0.745289577138    -0.937383877159    -1.354038179558     1.007825032230
         H            0.872096577138    -2.109702877159    -0.029320179558     1.007825032230
         H            1.985342577138     1.310997122841    -1.157035179558     1.007825032230
         H            1.043754577138     1.705736122841     0.281435820442     1.007825032230
         H            2.812885577138     1.727212122841     0.352571820442     1.007825032230
         H           -0.698562422862    -0.679152877159     1.362889820442     1.007825032230
         H           -2.750727422862     1.536446122841     0.011691820442     1.007825032230
         H           -2.656398422862     0.265775122841     1.264306820442     1.007825032230
         H           -3.490889422862    -0.036771877159    -0.286078179558     1.007825032230

  Basis Set: AUG-CC-PVTZ
    Blend: AUG-CC-PVTZ
  Basis Set: (AUG-CC-PVTZ AUX)
    Blend: AUG-CC-PVTZ-JKFIT
	 Reference Energy          =    -250.2529022977785758 [Eh]
	 Singles Energy            =      -0.0000000000000000 [Eh]
	 Same-Spin Energy          =      -0.2602303435738772 [Eh]
	 Opposite-Spin Energy      =      -0.9319519074662108 [Eh]
	 Correlation Energy        =      -1.1921822510400881 [Eh]
	 Total Energy              =    -251.4450845488186701 [Eh]

	 ================> DF-SCS-MP2 Energies <==================
	-----------------------------------------------------------
	 SCS Same-Spin Scale       =       0.3333333333333333 [-]
	 SCS Opposite-Spin Scale   =       1.2000000000000000 [-]
	 SCS Same-Spin Energy      =      -0.0867434478579591 [Eh]
	 SCS Opposite-Spin Energy  =      -1.1183422889594530 [Eh]
	 SCS Correlation Energy    =      -1.2050857368174119 [Eh]
	 SCS Total Energy          =    -251.4579880345959850 [Eh]
	-----------------------------------------------------------

  Dipole Moment: [D]
     X:     0.1622      Y:    -0.2161      Z:     1.2555     Total:     1.2843

*** Psi4 exiting successfully. Buy a developer a beer!
