                               Psi4 1.3.2 release

  ==> Input File <==

--------------------------------------------------------------------------
#psi4
#
memory 32 gb

molecule  {
0 1
  N       -1.4514230    -0.0014080    -0.4975550
  C        1.9178760    -0.2820330     0.3003480
  C        0.7301990    -1.0539890    -0.2910100
  C        1.9133330     1.1918710    -0.0951930
  C       -0.6046674    -0.5417295     0.1522465
  C       -2.6734760     0.4500620     0.1549430
  H        1.9034540    -0.3751150     1.3937850
  H        2.8483830    -0.7529800    -0.0365760
  H        0.7089260    -0.9492610    -1.3805420
  H        0.8357330    -2.1215800    -0.0558240
  H        1.9489790     1.2991200    -1.1835390
  H        1.0073910     1.6938590     0.2549320
  H        2.7765220     1.7153350     0.3260680
  H       -0.7349260    -0.6910300     1.3363860
  H       -2.7870910     1.5245690    -0.0148120
  H       -2.6927620     0.2538980     1.2378030
  H       -3.5272530    -0.0486490    -0.3125820
units angstrom
no_reorient  #important for SAPT in psi4, default
symmetry c1  #important for SAPT in psi4, default
}

set PROPERTIES_ORIGIN ["COM"]
properties('MP2/aug-cc-pvtz', properties = ['dipole'])
--------------------------------------------------------------------------

    Molecular point group: c1
  Charge       = 0
  Multiplicity = 1
  Basis Set: AUG-CC-PVTZ
    Blend: AUG-CC-PVTZ
  Basis Set: (AUG-CC-PVTZ AUX)
    Blend: AUG-CC-PVTZ-JKFIT

    Orbital Energies [Eh]
    ---------------------

    Doubly Occupied:

       1A    -15.546126     2A    -11.268819     3A    -11.247890
       4A    -11.227634     5A    -11.225122     6A    -11.211929
       7A     -1.252929     8A     -1.070737     9A     -0.976188
      10A     -0.922408    11A     -0.818343    12A     -0.734268
      13A     -0.649678    14A     -0.634924    15A     -0.611592
      16A     -0.589038    17A     -0.583617    18A     -0.549046
      19A     -0.509445    20A     -0.492731    21A     -0.488226
      22A     -0.472777    23A     -0.419803    24A     -0.384542

  @DF-RHF Final Energy:  -250.25390860824683

   => Energetics <=

    Nuclear Repulsion Energy =            236.4964394050249439
    One-Electron Energy =                -805.7250764497209730
    Two-Electron Energy =                 318.9747284364491975
    Total Energy =                       -250.2539086082468316
  Basis Set: (AUG-CC-PVTZ AUX)
    Blend: AUG-CC-PVTZ-RI
    Molecular point group: c1

    Geometry (in Angstrom), charge = 0, multiplicity = 1:

       Center              X                  Y                   Z               Mass
    ------------   -----------------  -----------------  -----------------  -----------------
         N           -1.420632307344     0.013743848256    -0.465424704225    14.003074004430
         C            1.948666692656    -0.266881151744     0.332478295775    12.000000000000
         C            0.760989692656    -1.038837151744    -0.258879704225    12.000000000000
         C            1.944123692656     1.207022848256    -0.063062704225    12.000000000000
         C           -0.573876707344    -0.526577651744     0.184376795775    12.000000000000
         C           -2.642685307344     0.465213848256     0.187073295775    12.000000000000
         H            1.934244692656    -0.359963151744     1.425915295775     1.007825032230
         H            2.879173692656    -0.737828151744    -0.004445704225     1.007825032230
         H            0.739716692656    -0.934109151744    -1.348411704225     1.007825032230
         H            0.866523692656    -2.106428151744    -0.023693704225     1.007825032230
         H            1.979769692656     1.314271848256    -1.151408704225     1.007825032230
         H            1.038181692656     1.709010848256     0.287062295775     1.007825032230
         H            2.807312692656     1.730486848256     0.358198295775     1.007825032230
         H           -0.704135307344    -0.675878151744     1.368516295775     1.007825032230
         H           -2.756300307344     1.539720848256     0.017318295775     1.007825032230
         H           -2.661971307344     0.269049848256     1.269933295775     1.007825032230
         H           -3.496462307344    -0.033497151744    -0.280451704225     1.007825032230

  Basis Set: AUG-CC-PVTZ
    Blend: AUG-CC-PVTZ
  Basis Set: (AUG-CC-PVTZ AUX)
    Blend: AUG-CC-PVTZ-JKFIT
	 Reference Energy          =    -250.2539086082468316 [Eh]
	 Singles Energy            =      -0.0000000000000000 [Eh]
	 Same-Spin Energy          =      -0.2608821870150110 [Eh]
	 Opposite-Spin Energy      =      -0.9328332840919206 [Eh]
	 Correlation Energy        =      -1.1937154711069315 [Eh]
	 Total Energy              =    -251.4476240793537727 [Eh]

	 ================> DF-SCS-MP2 Energies <==================
	-----------------------------------------------------------
	 SCS Same-Spin Scale       =       0.3333333333333333 [-]
	 SCS Opposite-Spin Scale   =       1.2000000000000000 [-]
	 SCS Same-Spin Energy      =      -0.0869607290050037 [Eh]
	 SCS Opposite-Spin Energy  =      -1.1193999409103046 [Eh]
	 SCS Correlation Energy    =      -1.2063606699153082 [Eh]
	 SCS Total Energy          =    -251.4602692781621442 [Eh]
	-----------------------------------------------------------

  Dipole Moment: [D]
     X:     0.3086      Y:    -0.2287      Z:     1.1432     Total:     1.2060

*** Psi4 exiting successfully. Buy a developer a beer!
