                               Psi4 1.3.2 release

  ==> Input File <==

--------------------------------------------------------------------------
#psi4
#
memory 32 gb

molecule  {
0 1
  N       -1.4514230    -0.0014080    -0.4975550
  C        1.8833659    -0.2528122     0.3290858
  C        0.7301990    -1.0539890    -0.2910100
  C        1.9133330     1.1918710    -0.0951930
  C       -0.5758300    -0.5622950     0.2505430
  C       -2.6734760     0.4500620     0.1549430
  H        1.9034540    -0.3751150     1.3937850
  H        2.8483830    -0.7529800    -0.0365760
  H        0.7089260    -0.9492610    -1.3805420
  H        0.8357330    -2.1215800    -0.0558240
  H        1.9489790     1.2991200    -1.1835390
  H        1.0073910     1.6938590     0.2549320
  H        2.7765220     1.7153350     0.3260680
  H       -0.7349260    -0.6910300     1.3363860
  H       -2.7870910     1.5245690    -0.0148120
  H       -2.6927620     0.2538980     1.2378030
  H       -3.5272530    -0.0486490    -0.3125820
units angstrom
no_reorient  #important for SAPT in psi4, default
symmetry c1  #important for SAPT in psi4, default
}

set PROPERTIES_ORIGIN ["COM"]
properties('MP2/aug-cc-pvtz', properties = ['dipole'])
--------------------------------------------------------------------------

    Molecular point group: c1
  Charge       = 0
  Multiplicity = 1
  Basis Set: AUG-CC-PVTZ
    Blend: AUG-CC-PVTZ
  Basis Set: (AUG-CC-PVTZ AUX)
    Blend: AUG-CC-PVTZ-JKFIT

    Orbital Energies [Eh]
    ---------------------

    Doubly Occupied:

       1A    -15.554211     2A    -11.272183     3A    -11.242454
       4A    -11.228391     5A    -11.225936     6A    -11.211065
       7A     -1.219385     8A     -1.073212     9A     -0.975356
      10A     -0.911016    11A     -0.813415    12A     -0.758681
      13A     -0.642660    14A     -0.632081    15A     -0.611145
      16A     -0.585609    17A     -0.577966    18A     -0.545267
      19A     -0.516088    20A     -0.495487    21A     -0.486795
      22A     -0.464461    23A     -0.400861    24A     -0.394293

  @DF-RHF Final Energy:  -250.25949211930822

   => Energetics <=

    Nuclear Repulsion Energy =            235.7770976890346333
    One-Electron Energy =                -804.3971435817937845
    Two-Electron Energy =                 318.3605537734509880
    Total Energy =                       -250.2594921193082200
  Basis Set: (AUG-CC-PVTZ AUX)
    Blend: AUG-CC-PVTZ-RI
    Molecular point group: c1

    Geometry (in Angstrom), charge = 0, multiplicity = 1:

       Center              X                  Y                   Z               Mass
    ------------   -----------------  -----------------  -----------------  -----------------
         N           -1.419832294645     0.012523203782    -0.483340168317    14.003074004430
         C            1.914956605355    -0.238880996218     0.343300631683    12.000000000000
         C            0.761789705355    -1.040057796218    -0.276795168317    12.000000000000
         C            1.944923705355     1.205802203782    -0.080978168317    12.000000000000
         C           -0.544239294645    -0.548363796218     0.264757831683    12.000000000000
         C           -2.641885294645     0.463993203782     0.169157831683    12.000000000000
         H            1.935044705355    -0.361183796218     1.407999831683     1.007825032230
         H            2.879973705355    -0.739048796218    -0.022361168317     1.007825032230
         H            0.740516705355    -0.935329796218    -1.366327168317     1.007825032230
         H            0.867323705355    -2.107648796218    -0.041609168317     1.007825032230
         H            1.980569705355     1.313051203782    -1.169324168317     1.007825032230
         H            1.038981705355     1.707790203782     0.269146831683     1.007825032230
         H            2.808112705355     1.729266203782     0.340282831683     1.007825032230
         H           -0.703335294645    -0.677098796218     1.350600831683     1.007825032230
         H           -2.755500294645     1.538500203782    -0.000597168317     1.007825032230
         H           -2.661171294645     0.267829203782     1.252017831683     1.007825032230
         H           -3.495662294645    -0.034717796218    -0.298367168317     1.007825032230

  Basis Set: AUG-CC-PVTZ
    Blend: AUG-CC-PVTZ
  Basis Set: (AUG-CC-PVTZ AUX)
    Blend: AUG-CC-PVTZ-JKFIT
	 Reference Energy          =    -250.2594921193082200 [Eh]
	 Singles Energy            =      -0.0000000000000000 [Eh]
	 Same-Spin Energy          =      -0.2620716912113687 [Eh]
	 Opposite-Spin Energy      =      -0.9363510099251312 [Eh]
	 Correlation Energy        =      -1.1984227011364998 [Eh]
	 Total Energy              =    -251.4579148204447279 [Eh]

	 ================> DF-SCS-MP2 Energies <==================
	-----------------------------------------------------------
	 SCS Same-Spin Scale       =       0.3333333333333333 [-]
	 SCS Opposite-Spin Scale   =       1.2000000000000000 [-]
	 SCS Same-Spin Energy      =      -0.0873572304037896 [Eh]
	 SCS Opposite-Spin Energy  =      -1.1236212119101574 [Eh]
	 SCS Correlation Energy    =      -1.2109784423139469 [Eh]
	 SCS Total Energy          =    -251.4704705616221645 [Eh]
	-----------------------------------------------------------

  Dipole Moment: [D]
     X:     0.3806      Y:    -0.3306      Z:     1.4490     Total:     1.5342

*** Psi4 exiting successfully. Buy a developer a beer!
