                               Psi4 1.3.2 release

  ==> Input File <==

--------------------------------------------------------------------------
#psi4
#
memory 32 gb

molecule  {
0 1
  N       -1.4514230    -0.0014080    -0.4975550
  C        1.8101746    -0.1973332     0.3842607
  C        0.7301990    -1.0539890    -0.2910100
  C        1.9133330     1.1918710    -0.0951930
  C       -0.5758300    -0.5622950     0.2505430
  C       -2.6734760     0.4500620     0.1549430
  H        1.9034540    -0.3751150     1.3937850
  H        2.8483830    -0.7529800    -0.0365760
  H        0.7089260    -0.9492610    -1.3805420
  H        0.8357330    -2.1215800    -0.0558240
  H        1.9489790     1.2991200    -1.1835390
  H        1.0073910     1.6938590     0.2549320
  H        2.7765220     1.7153350     0.3260680
  H       -0.7349260    -0.6910300     1.3363860
  H       -2.7870910     1.5245690    -0.0148120
  H       -2.6927620     0.2538980     1.2378030
  H       -3.5272530    -0.0486490    -0.3125820
units angstrom
no_reorient  #important for SAPT in psi4, default
symmetry c1  #important for SAPT in psi4, default
}

set PROPERTIES_ORIGIN ["COM"]
properties('MP2/aug-cc-pvtz', properties = ['dipole'])
--------------------------------------------------------------------------

    Molecular point group: c1
  Charge       = 0
  Multiplicity = 1
  Basis Set: AUG-CC-PVTZ
    Blend: AUG-CC-PVTZ
  Basis Set: (AUG-CC-PVTZ AUX)
    Blend: AUG-CC-PVTZ-JKFIT

    Orbital Energies [Eh]
    ---------------------

    Doubly Occupied:

       1A    -15.553378     2A    -11.271402     3A    -11.242151
       4A    -11.233814     5A    -11.228290     6A    -11.211895
       7A     -1.219367     8A     -1.078922     9A     -0.979500
      10A     -0.911986    11A     -0.812259    12A     -0.761229
      13A     -0.644052    14A     -0.629646    15A     -0.619143
      16A     -0.584065    17A     -0.576078    18A     -0.552437
      19A     -0.518548    20A     -0.506079    21A     -0.495075
      22A     -0.436050    23A     -0.399665    24A     -0.391104

  @DF-RHF Final Energy:  -250.23732031159849

   => Energetics <=

    Nuclear Repulsion Energy =            236.4318659796514055
    One-Electron Energy =                -805.6261019116791431
    Two-Electron Energy =                 318.9569156204292426
    Total Energy =                       -250.2373203115984666
  Basis Set: (AUG-CC-PVTZ AUX)
    Blend: AUG-CC-PVTZ-RI
    Molecular point group: c1

    Geometry (in Angstrom), charge = 0, multiplicity = 1:

       Center              X                  Y                   Z               Mass
    ------------   -----------------  -----------------  -----------------  -----------------
         N           -1.409510231178     0.004699080436    -0.491121404879    14.003074004430
         C            1.852087368822    -0.191226119564     0.390694295121    12.000000000000
         C            0.772111768822    -1.047881919564    -0.284576404879    12.000000000000
         C            1.955245768822     1.197978080436    -0.088759404879    12.000000000000
         C           -0.533917231178    -0.556187919564     0.256976595121    12.000000000000
         C           -2.631563231178     0.456169080436     0.161376595121    12.000000000000
         H            1.945366768822    -0.369007919564     1.400218595121     1.007825032230
         H            2.890295768822    -0.746872919564    -0.030142404879     1.007825032230
         H            0.750838768822    -0.943153919564    -1.374108404879     1.007825032230
         H            0.877645768822    -2.115472919564    -0.049390404879     1.007825032230
         H            1.990891768822     1.305227080436    -1.177105404879     1.007825032230
         H            1.049303768822     1.699966080436     0.261365595121     1.007825032230
         H            2.818434768822     1.721442080436     0.332501595121     1.007825032230
         H           -0.693013231178    -0.684922919564     1.342819595121     1.007825032230
         H           -2.745178231178     1.530676080436    -0.008378404879     1.007825032230
         H           -2.650849231178     0.260005080436     1.244236595121     1.007825032230
         H           -3.485340231178    -0.042541919564    -0.306148404879     1.007825032230

  Basis Set: AUG-CC-PVTZ
    Blend: AUG-CC-PVTZ
  Basis Set: (AUG-CC-PVTZ AUX)
    Blend: AUG-CC-PVTZ-JKFIT
	 Reference Energy          =    -250.2373203115984950 [Eh]
	 Singles Energy            =      -0.0000000000000000 [Eh]
	 Same-Spin Energy          =      -0.2628547242555659 [Eh]
	 Opposite-Spin Energy      =      -0.9379158211117259 [Eh]
	 Correlation Energy        =      -1.2007705453672917 [Eh]
	 Total Energy              =    -251.4380908569658004 [Eh]

	 ================> DF-SCS-MP2 Energies <==================
	-----------------------------------------------------------
	 SCS Same-Spin Scale       =       0.3333333333333333 [-]
	 SCS Opposite-Spin Scale   =       1.2000000000000000 [-]
	 SCS Same-Spin Energy      =      -0.0876182414185220 [Eh]
	 SCS Opposite-Spin Energy  =      -1.1254989853340711 [Eh]
	 SCS Correlation Energy    =      -1.2131172267525931 [Eh]
	 SCS Total Energy          =    -251.4504375383510819 [Eh]
	-----------------------------------------------------------

  Dipole Moment: [D]
     X:     0.3350      Y:    -0.2964      Z:     1.4681     Total:     1.5348

*** Psi4 exiting successfully. Buy a developer a beer!
