                               Psi4 1.3.2 release

  ==> Input File <==

--------------------------------------------------------------------------
#psi4
#
memory 32 gb

molecule  {
0 1
  N       -1.4514230    -0.0014080    -0.4975550
  C        1.9178760    -0.2820330     0.3003480
  C        0.7301990    -1.0539890    -0.2910100
  C        1.9133330     1.1918710    -0.0951930
  C       -0.5590152    -0.5734828     0.2987313
  C       -2.6734760     0.4500620     0.1549430
  H        1.9034540    -0.3751150     1.3937850
  H        2.8483830    -0.7529800    -0.0365760
  H        0.7089260    -0.9492610    -1.3805420
  H        0.8357330    -2.1215800    -0.0558240
  H        1.9489790     1.2991200    -1.1835390
  H        1.0073910     1.6938590     0.2549320
  H        2.7765220     1.7153350     0.3260680
  H       -0.7349260    -0.6910300     1.3363860
  H       -2.7870910     1.5245690    -0.0148120
  H       -2.6927620     0.2538980     1.2378030
  H       -3.5272530    -0.0486490    -0.3125820
units angstrom
no_reorient  #important for SAPT in psi4, default
symmetry c1  #important for SAPT in psi4, default
}

set PROPERTIES_ORIGIN ["COM"]
properties('MP2/aug-cc-pvtz', properties = ['dipole'])
--------------------------------------------------------------------------

    Molecular point group: c1
  Charge       = 0
  Multiplicity = 1
  Basis Set: AUG-CC-PVTZ
    Blend: AUG-CC-PVTZ
  Basis Set: (AUG-CC-PVTZ AUX)
    Blend: AUG-CC-PVTZ-JKFIT

    Orbital Energies [Eh]
    ---------------------

    Doubly Occupied:

       1A    -15.559609     2A    -11.275408     3A    -11.240843
       4A    -11.226927     5A    -11.226235     6A    -11.211112
       7A     -1.204885     8A     -1.071160     9A     -0.973145
      10A     -0.905077    11A     -0.815210    12A     -0.770319
      13A     -0.639801    14A     -0.633504    15A     -0.607296
      16A     -0.585617    17A     -0.576691    18A     -0.541313
      19A     -0.520175    20A     -0.490055    21A     -0.478834
      22A     -0.474511    23A     -0.407378    24A     -0.382883

  @DF-RHF Final Energy:  -250.25523393138104

   => Energetics <=

    Nuclear Repulsion Energy =            234.9431940960309362
    One-Electron Energy =                -802.7608797001339553
    Two-Electron Energy =                 317.5624516727219202
    Total Energy =                       -250.2552339313810421
  Basis Set: (AUG-CC-PVTZ AUX)
    Blend: AUG-CC-PVTZ-RI
    Molecular point group: c1

    Geometry (in Angstrom), charge = 0, multiplicity = 1:

       Center              X                  Y                   Z               Mass
    ------------   -----------------  -----------------  -----------------  -----------------
         N           -1.427070571260     0.018221970354    -0.486083244277    14.003074004430
         C            1.942228428740    -0.262403029646     0.311819755723    12.000000000000
         C            0.754551428740    -1.034359029646    -0.279538244277    12.000000000000
         C            1.937685428740     1.211500970354    -0.083721244277    12.000000000000
         C           -0.534662771260    -0.553852829646     0.310203055723    12.000000000000
         C           -2.649123571260     0.469691970354     0.166414755723    12.000000000000
         H            1.927806428740    -0.355485029646     1.405256755723     1.007825032230
         H            2.872735428740    -0.733350029646    -0.025104244277     1.007825032230
         H            0.733278428740    -0.929631029646    -1.369070244277     1.007825032230
         H            0.860085428740    -2.101950029646    -0.044352244277     1.007825032230
         H            1.973331428740     1.318749970354    -1.172067244277     1.007825032230
         H            1.031743428740     1.713488970354     0.266403755723     1.007825032230
         H            2.800874428740     1.734964970354     0.337539755723     1.007825032230
         H           -0.710573571260    -0.671400029646     1.347857755723     1.007825032230
         H           -2.762738571260     1.544198970354    -0.003340244277     1.007825032230
         H           -2.668409571260     0.273527970354     1.249274755723     1.007825032230
         H           -3.502900571260    -0.029019029646    -0.301110244277     1.007825032230

  Basis Set: AUG-CC-PVTZ
    Blend: AUG-CC-PVTZ
  Basis Set: (AUG-CC-PVTZ AUX)
    Blend: AUG-CC-PVTZ-JKFIT
	 Reference Energy          =    -250.2552339313810421 [Eh]
	 Singles Energy            =      -0.0000000000000000 [Eh]
	 Same-Spin Energy          =      -0.2626870500053021 [Eh]
	 Opposite-Spin Energy      =      -0.9384514585707013 [Eh]
	 Correlation Energy        =      -1.2011385085760033 [Eh]
	 Total Energy              =    -251.4563724399570503 [Eh]

	 ================> DF-SCS-MP2 Energies <==================
	-----------------------------------------------------------
	 SCS Same-Spin Scale       =       0.3333333333333333 [-]
	 SCS Opposite-Spin Scale   =       1.2000000000000000 [-]
	 SCS Same-Spin Energy      =      -0.0875623500017673 [Eh]
	 SCS Opposite-Spin Energy  =      -1.1261417502848416 [Eh]
	 SCS Correlation Energy    =      -1.2137041002866089 [Eh]
	 SCS Total Energy          =    -251.4689380316676477 [Eh]
	-----------------------------------------------------------

  Dipole Moment: [D]
     X:     0.4096      Y:    -0.3768      Z:     1.5218     Total:     1.6204

*** Psi4 exiting successfully. Buy a developer a beer!
