                               Psi4 1.3.2 release

  ==> Input File <==

--------------------------------------------------------------------------
#psi4
#
memory 32 gb

molecule  {
0 1
  N       -1.4514230    -0.0014080    -0.4975550
  C        1.9178760    -0.2820330     0.3003480
  C        0.7301990    -1.0539890    -0.2910100
  C        1.9133330     1.1918710    -0.0951930
  C       -0.5074766    -0.6060808     0.3089435
  C       -2.6734760     0.4500620     0.1549430
  H        1.9034540    -0.3751150     1.3937850
  H        2.8483830    -0.7529800    -0.0365760
  H        0.7089260    -0.9492610    -1.3805420
  H        0.8357330    -2.1215800    -0.0558240
  H        1.9489790     1.2991200    -1.1835390
  H        1.0073910     1.6938590     0.2549320
  H        2.7765220     1.7153350     0.3260680
  H       -0.7349260    -0.6910300     1.3363860
  H       -2.7870910     1.5245690    -0.0148120
  H       -2.6927620     0.2538980     1.2378030
  H       -3.5272530    -0.0486490    -0.3125820
units angstrom
no_reorient  #important for SAPT in psi4, default
symmetry c1  #important for SAPT in psi4, default
}

set PROPERTIES_ORIGIN ["COM"]
properties('MP2/aug-cc-pvtz', properties = ['dipole'])
--------------------------------------------------------------------------

    Molecular point group: c1
  Charge       = 0
  Multiplicity = 1
  Basis Set: AUG-CC-PVTZ
    Blend: AUG-CC-PVTZ
  Basis Set: (AUG-CC-PVTZ AUX)
    Blend: AUG-CC-PVTZ-JKFIT

    Orbital Energies [Eh]
    ---------------------

    Doubly Occupied:

       1A    -15.562515     2A    -11.280584     3A    -11.239631
       4A    -11.228896     5A    -11.226580     6A    -11.211929
       7A     -1.188027     8A     -1.077250     9A     -0.978853
      10A     -0.900345    11A     -0.817502    12A     -0.772590
      13A     -0.639920    14A     -0.635664    15A     -0.608262
      16A     -0.583672    17A     -0.573914    18A     -0.540274
      19A     -0.527598    20A     -0.493220    21A     -0.480785
      22A     -0.475263    23A     -0.405588    24A     -0.366982

  @DF-RHF Final Energy:  -250.24012832673964

   => Energetics <=

    Nuclear Repulsion Energy =            234.7508535661965823
    One-Electron Energy =                -802.3502733556202884
    Two-Electron Energy =                 317.3592914626840411
    Total Energy =                       -250.2401283267396366
  Basis Set: (AUG-CC-PVTZ AUX)
    Blend: AUG-CC-PVTZ-RI
    Molecular point group: c1

    Geometry (in Angstrom), charge = 0, multiplicity = 1:

       Center              X                  Y                   Z               Mass
    ------------   -----------------  -----------------  -----------------  -----------------
         N           -1.434338985678     0.022819219274    -0.487523456112    14.003074004430
         C            1.934960014322    -0.257805780726     0.310379543888    12.000000000000
         C            0.747283014322    -1.029761780726    -0.280978456112    12.000000000000
         C            1.930417014322     1.216098219274    -0.085161456112    12.000000000000
         C           -0.490392585678    -0.581853580726     0.318975043888    12.000000000000
         C           -2.656391985678     0.474289219274     0.164974543888    12.000000000000
         H            1.920538014322    -0.350887780726     1.403816543888     1.007825032230
         H            2.865467014322    -0.728752780726    -0.026544456112     1.007825032230
         H            0.726010014322    -0.925033780726    -1.370510456112     1.007825032230
         H            0.852817014322    -2.097352780726    -0.045792456112     1.007825032230
         H            1.966063014322     1.323347219274    -1.173507456112     1.007825032230
         H            1.024475014322     1.718086219274     0.264963543888     1.007825032230
         H            2.793606014322     1.739562219274     0.336099543888     1.007825032230
         H           -0.717841985678    -0.666802780726     1.346417543888     1.007825032230
         H           -2.770006985678     1.548796219274    -0.004780456112     1.007825032230
         H           -2.675677985678     0.278125219274     1.247834543888     1.007825032230
         H           -3.510168985678    -0.024421780726    -0.302550456112     1.007825032230

  Basis Set: AUG-CC-PVTZ
    Blend: AUG-CC-PVTZ
  Basis Set: (AUG-CC-PVTZ AUX)
    Blend: AUG-CC-PVTZ-JKFIT
	 Reference Energy          =    -250.2401283267396366 [Eh]
	 Singles Energy            =      -0.0000000000000000 [Eh]
	 Same-Spin Energy          =      -0.2645708474629430 [Eh]
	 Opposite-Spin Energy      =      -0.9420323570525448 [Eh]
	 Correlation Energy        =      -1.2066032045154880 [Eh]
	 Total Energy              =    -251.4467315312551250 [Eh]

	 ================> DF-SCS-MP2 Energies <==================
	-----------------------------------------------------------
	 SCS Same-Spin Scale       =       0.3333333333333333 [-]
	 SCS Opposite-Spin Scale   =       1.2000000000000000 [-]
	 SCS Same-Spin Energy      =      -0.0881902824876477 [Eh]
	 SCS Opposite-Spin Energy  =      -1.1304388284630538 [Eh]
	 SCS Correlation Energy    =      -1.2186291109507015 [Eh]
	 SCS Total Energy          =    -251.4587574376903376 [Eh]
	-----------------------------------------------------------

  Dipole Moment: [D]
     X:     0.5417      Y:    -0.4185      Z:     1.5335     Total:     1.6794

*** Psi4 exiting successfully. Buy a developer a beer!
