                               Psi4 1.4a3.dev225

  ==> Input File <==

--------------------------------------------------------------------------
#psi4
#
memory 32 gb

molecule  {
0 1
  N       -1.4513250    -0.0010140    -0.4975640
  C        1.9178130    -0.2820920     0.3002790
  C        0.7301270    -1.0540560    -0.2910000
  C        1.9134960     1.1918760    -0.0950710
  C       -0.5759880    -0.5623720     0.2504290
  C       -2.6734840     0.4500370     0.1549490
  H        1.9036020    -0.3753030     1.3937060
  H        2.8482930    -0.7529860    -0.0368320
  H        0.7089100    -0.9495730    -1.3805570
  H        0.8355610    -2.1216230    -0.0556080
  H        1.9497200     1.2992090    -1.1833850
  H        1.0073830     1.6938500     0.2545960
  H        2.7764960     1.7152480     0.3266950
  H       -0.7381316    -0.6938270     1.3558747
  H       -2.7876940     1.5244090    -0.0151890
  H       -2.6923780     0.2543160     1.2378980
  H       -3.5271550    -0.0493170    -0.3121090
units angstrom
no_reorient  #important for SAPT in psi4, default
symmetry c1  #important for SAPT in psi4, default
}

set PROPERTIES_ORIGIN ["COM"]
properties('MP2/aug-cc-pvtz', properties = ['dipole'])
--------------------------------------------------------------------------

    Molecular point group: c1
  Charge       = 0
  Multiplicity = 1
  Basis Set: AUG-CC-PVTZ
    Blend: AUG-CC-PVTZ
  Basis Set: (AUG-CC-PVTZ AUX)
    Blend: AUG-CC-PVTZ-JKFIT

    Orbital Energies [Eh]
    ---------------------

    Doubly Occupied:

       1A    -15.555163     2A    -11.275235     3A    -11.242841
       4A    -11.227069     5A    -11.225751     6A    -11.211359
       7A     -1.219658     8A     -1.070915     9A     -0.973409
      10A     -0.910797    11A     -0.815708    12A     -0.754115
      13A     -0.642065    14A     -0.632979    15A     -0.607986
      16A     -0.586397    17A     -0.579001    18A     -0.543066
      19A     -0.515999    20A     -0.490652    21A     -0.481209
      22A     -0.475334    23A     -0.401579    24A     -0.395097

  @DF-RHF Final Energy:  -250.26219247356431

   => Energetics <=

    Nuclear Repulsion Energy =            235.3502296783562997
    One-Electron Energy =                -803.5580769283108111
    Two-Electron Energy =                 317.9456547763901995
    Total Energy =                       -250.2621924735643120
  Basis Set: (AUG-CC-PVTZ AUX)
    Blend: AUG-CC-PVTZ-RI
    Molecular point group: c1

    Geometry (in Angstrom), charge = 0, multiplicity = 1:

       Center              X                  Y                   Z               Mass
    ------------   -----------------  -----------------  -----------------  -----------------
         N           -1.424565302930     0.017049350326    -0.479525267124    14.003074004430
         C            1.944572697070    -0.264028649674     0.318317732876    12.000000000000
         C            0.756886697070    -1.035992649674    -0.272961267124    12.000000000000
         C            1.940255697070     1.209939350326    -0.077032267124    12.000000000000
         C           -0.549228302930    -0.544308649674     0.268467732876    12.000000000000
         C           -2.646724302930     0.468100350326     0.172987732876    12.000000000000
         H            1.930361697070    -0.357239649674     1.411744732876     1.007825032230
         H            2.875052697070    -0.734922649674    -0.018793267124     1.007825032230
         H            0.735669697070    -0.931509649674    -1.362518267124     1.007825032230
         H            0.862320697070    -2.103559649674    -0.037569267124     1.007825032230
         H            1.976479697070     1.317272350326    -1.165346267124     1.007825032230
         H            1.034142697070     1.711913350326     0.272634732876     1.007825032230
         H            2.803255697070     1.733311350326     0.344733732876     1.007825032230
         H           -0.711371902930    -0.675763649674     1.373913432876     1.007825032230
         H           -2.760934302930     1.542472350326     0.002849732876     1.007825032230
         H           -2.665618302930     0.272379350326     1.255936732876     1.007825032230
         H           -3.500395302930    -0.031253649674    -0.294070267124     1.007825032230

  Basis Set: AUG-CC-PVTZ
    Blend: AUG-CC-PVTZ
  Basis Set: (AUG-CC-PVTZ AUX)
    Blend: AUG-CC-PVTZ-JKFIT
	 Reference Energy          =    -250.2621924735643120 [Eh]
	 Singles Energy            =      -0.0000000000000000 [Eh]
	 Same-Spin Energy          =      -0.2619168536160827 [Eh]
	 Opposite-Spin Energy      =      -0.9362087673665517 [Eh]
	 Correlation Energy        =      -1.1981256209826343 [Eh]
	 Total Energy              =    -251.4603180945469489 [Eh]

	 ================> DF-SCS-MP2 Energies <==================
	-----------------------------------------------------------
	 SCS Same-Spin Scale       =       0.3333333333333333 [-]
	 SCS Opposite-Spin Scale   =       1.2000000000000000 [-]
	 SCS Same-Spin Energy      =      -0.0873056178720276 [Eh]
	 SCS Opposite-Spin Energy  =      -1.1234505208398620 [Eh]
	 SCS Correlation Energy    =      -1.2107561387118895 [Eh]
	 SCS Total Energy          =    -251.4729486122762125 [Eh]
	-----------------------------------------------------------

  Dipole Moment: [D]
     X:     0.3888      Y:    -0.3372      Z:     1.4135     Total:     1.5042

*** Psi4 exiting successfully. Buy a developer a beer!
