                               Psi4 1.3.2 release

  ==> Input File <==

--------------------------------------------------------------------------
#psi4
#
memory 32 gb

molecule  {
0 1
  N       -1.4380402    -0.0044918    -0.5151966
  C        1.9178760    -0.2820330     0.3003480
  C        0.7301990    -1.0539890    -0.2910100
  C        1.9133330     1.1918710    -0.0951930
  C       -0.5758300    -0.5622950     0.2505430
  C       -2.6734760     0.4500620     0.1549430
  H        1.9034540    -0.3751150     1.3937850
  H        2.8483830    -0.7529800    -0.0365760
  H        0.7089260    -0.9492610    -1.3805420
  H        0.8357330    -2.1215800    -0.0558240
  H        1.9489790     1.2991200    -1.1835390
  H        1.0073910     1.6938590     0.2549320
  H        2.7765220     1.7153350     0.3260680
  H       -0.7349260    -0.6910300     1.3363860
  H       -2.7870910     1.5245690    -0.0148120
  H       -2.6927620     0.2538980     1.2378030
  H       -3.5272530    -0.0486490    -0.3125820
units angstrom
no_reorient  #important for SAPT in psi4, default
symmetry c1  #important for SAPT in psi4, default
}

set PROPERTIES_ORIGIN ["COM"]
properties('MP2/aug-cc-pvtz', properties = ['dipole'])
--------------------------------------------------------------------------

    Molecular point group: c1
  Charge       = 0
  Multiplicity = 1
  Basis Set: AUG-CC-PVTZ
    Blend: AUG-CC-PVTZ
  Basis Set: (AUG-CC-PVTZ AUX)
    Blend: AUG-CC-PVTZ-JKFIT

    Orbital Energies [Eh]
    ---------------------

    Doubly Occupied:

       1A    -15.556629     2A    -11.272698     3A    -11.243884
       4A    -11.226621     5A    -11.224542     6A    -11.211114
       7A     -1.217155     8A     -1.069778     9A     -0.971853
      10A     -0.909899    11A     -0.815797    12A     -0.758019
      13A     -0.640334    14A     -0.632117    15A     -0.607333
      16A     -0.585816    17A     -0.577358    18A     -0.541631
      19A     -0.515977    20A     -0.490359    21A     -0.480530
      22A     -0.475065    23A     -0.404037    24A     -0.395925

  @DF-RHF Final Energy:  -250.26188477461790

   => Energetics <=

    Nuclear Repulsion Energy =            235.2854900662005093
    One-Electron Energy =                -803.4458064876106391
    Two-Electron Energy =                 317.8984316467922326
    Total Energy =                       -250.2618847746178972
  Basis Set: (AUG-CC-PVTZ AUX)
    Blend: AUG-CC-PVTZ-RI
    Molecular point group: c1

    Geometry (in Angstrom), charge = 0, multiplicity = 1:

       Center              X                  Y                   Z               Mass
    ------------   -----------------  -----------------  -----------------  -----------------
         N           -1.413518804226     0.014067870309    -0.494025649531    14.003074004430
         C            1.942397395774    -0.263473329691     0.321518950469    12.000000000000
         C            0.754720395774    -1.035429329691    -0.269839049531    12.000000000000
         C            1.937854395774     1.210430670309    -0.074022049531    12.000000000000
         C           -0.551308604226    -0.543735329691     0.271713950469    12.000000000000
         C           -2.648954604226     0.468621670309     0.176113950469    12.000000000000
         H            1.927975395774    -0.356555329691     1.414955950469     1.007825032230
         H            2.872904395774    -0.734420329691    -0.015405049531     1.007825032230
         H            0.733447395774    -0.930701329691    -1.359371049531     1.007825032230
         H            0.860254395774    -2.103020329691    -0.034653049531     1.007825032230
         H            1.973500395774     1.317679670309    -1.162368049531     1.007825032230
         H            1.031912395774     1.712418670309     0.276102950469     1.007825032230
         H            2.801043395774     1.733894670309     0.347238950469     1.007825032230
         H           -0.710404604226    -0.672470329691     1.357556950469     1.007825032230
         H           -2.762569604226     1.543128670309     0.006358950469     1.007825032230
         H           -2.668240604226     0.272457670309     1.258973950469     1.007825032230
         H           -3.502731604226    -0.030089329691    -0.291411049531     1.007825032230

  Basis Set: AUG-CC-PVTZ
    Blend: AUG-CC-PVTZ
  Basis Set: (AUG-CC-PVTZ AUX)
    Blend: AUG-CC-PVTZ-JKFIT
	 Reference Energy          =    -250.2618847746178972 [Eh]
	 Singles Energy            =      -0.0000000000000000 [Eh]
	 Same-Spin Energy          =      -0.2618352721840836 [Eh]
	 Opposite-Spin Energy      =      -0.9364180835699967 [Eh]
	 Correlation Energy        =      -1.1982533557540802 [Eh]
	 Total Energy              =    -251.4601381303719734 [Eh]

	 ================> DF-SCS-MP2 Energies <==================
	-----------------------------------------------------------
	 SCS Same-Spin Scale       =       0.3333333333333333 [-]
	 SCS Opposite-Spin Scale   =       1.2000000000000000 [-]
	 SCS Same-Spin Energy      =      -0.0872784240613612 [Eh]
	 SCS Opposite-Spin Energy  =      -1.1237017002839960 [Eh]
	 SCS Correlation Energy    =      -1.2109801243453573 [Eh]
	 SCS Total Energy          =    -251.4728648989632518 [Eh]
	-----------------------------------------------------------

  Dipole Moment: [D]
     X:     0.3622      Y:    -0.3408      Z:     1.4795     Total:     1.5609

*** Psi4 exiting successfully. Buy a developer a beer!
