                               Psi4 1.3.2 release

  ==> Input File <==

--------------------------------------------------------------------------
#psi4
#
memory 32 gb

molecule  {
0 1
  N       -1.4514230    -0.0014080    -0.4975550
  C        1.9178760    -0.2820330     0.3003480
  C        0.7301990    -1.0539890    -0.2910100
  C        1.9133330     1.1918710    -0.0951930
  C       -0.6312063    -0.5495443     0.3195736
  C       -2.6734760     0.4500620     0.1549430
  H        1.9034540    -0.3751150     1.3937850
  H        2.8483830    -0.7529800    -0.0365760
  H        0.7089260    -0.9492610    -1.3805420
  H        0.8357330    -2.1215800    -0.0558240
  H        1.9489790     1.2991200    -1.1835390
  H        1.0073910     1.6938590     0.2549320
  H        2.7765220     1.7153350     0.3260680
  H       -0.7349260    -0.6910300     1.3363860
  H       -2.7870910     1.5245690    -0.0148120
  H       -2.6927620     0.2538980     1.2378030
  H       -3.5272530    -0.0486490    -0.3125820
units angstrom
no_reorient  #important for SAPT in psi4, default
symmetry c1  #important for SAPT in psi4, default
}

set PROPERTIES_ORIGIN ["COM"]
properties('MP2/aug-cc-pvtz', properties = ['dipole'])
--------------------------------------------------------------------------

    Molecular point group: c1
  Charge       = 0
  Multiplicity = 1
  Basis Set: AUG-CC-PVTZ
    Blend: AUG-CC-PVTZ
  Basis Set: (AUG-CC-PVTZ AUX)
    Blend: AUG-CC-PVTZ-JKFIT

    Orbital Energies [Eh]
    ---------------------

    Doubly Occupied:

       1A    -15.558426     2A    -11.270570     3A    -11.241515
       4A    -11.225967     5A    -11.223910     6A    -11.209766
       7A     -1.223210     8A     -1.063171     9A     -0.965928
      10A     -0.906630    11A     -0.812542    12A     -0.776337
      13A     -0.641977    14A     -0.629433    15A     -0.605697
      16A     -0.588028    17A     -0.579476    18A     -0.541513
      19A     -0.511290    20A     -0.485618    21A     -0.477740
      22A     -0.469157    23A     -0.407351    24A     -0.397734

  @DF-RHF Final Energy:  -250.25420126182053

   => Energetics <=

    Nuclear Repulsion Energy =            234.8609364985517516
    One-Electron Energy =                -802.6043051003925939
    Two-Electron Energy =                 317.4891673400203445
    Total Energy =                       -250.2542012618205263
  Basis Set: (AUG-CC-PVTZ AUX)
    Blend: AUG-CC-PVTZ-RI
    Molecular point group: c1

    Geometry (in Angstrom), charge = 0, multiplicity = 1:

       Center              X                  Y                   Z               Mass
    ------------   -----------------  -----------------  -----------------  -----------------
         N           -1.416889564557     0.014845958228    -0.489022603782    14.003074004430
         C            1.952409435443    -0.265779041772     0.308880396218    12.000000000000
         C            0.764732435443    -1.037735041772    -0.282477603782    12.000000000000
         C            1.947866435443     1.208124958228    -0.086660603782    12.000000000000
         C           -0.596672864557    -0.533290341772     0.328105996218    12.000000000000
         C           -2.638942564557     0.466315958228     0.163475396218    12.000000000000
         H            1.937987435443    -0.358861041772     1.402317396218     1.007825032230
         H            2.882916435443    -0.736726041772    -0.028043603782     1.007825032230
         H            0.743459435443    -0.933007041772    -1.372009603782     1.007825032230
         H            0.870266435443    -2.105326041772    -0.047291603782     1.007825032230
         H            1.983512435443     1.315373958228    -1.175006603782     1.007825032230
         H            1.041924435443     1.710112958228     0.263464396218     1.007825032230
         H            2.811055435443     1.731588958228     0.334600396218     1.007825032230
         H           -0.700392564557    -0.674776041772     1.344918396218     1.007825032230
         H           -2.752557564557     1.540822958228    -0.006279603782     1.007825032230
         H           -2.658228564557     0.270151958228     1.246335396218     1.007825032230
         H           -3.492719564557    -0.032395041772    -0.304049603782     1.007825032230

  Basis Set: AUG-CC-PVTZ
    Blend: AUG-CC-PVTZ
  Basis Set: (AUG-CC-PVTZ AUX)
    Blend: AUG-CC-PVTZ-JKFIT
	 Reference Energy          =    -250.2542012618205263 [Eh]
	 Singles Energy            =      -0.0000000000000000 [Eh]
	 Same-Spin Energy          =      -0.2613306359811456 [Eh]
	 Opposite-Spin Energy      =      -0.9363732405835294 [Eh]
	 Correlation Energy        =      -1.1977038765646750 [Eh]
	 Total Energy              =    -251.4519051383852002 [Eh]

	 ================> DF-SCS-MP2 Energies <==================
	-----------------------------------------------------------
	 SCS Same-Spin Scale       =       0.3333333333333333 [-]
	 SCS Opposite-Spin Scale   =       1.2000000000000000 [-]
	 SCS Same-Spin Energy      =      -0.0871102119937152 [Eh]
	 SCS Opposite-Spin Energy  =      -1.1236478887002352 [Eh]
	 SCS Correlation Energy    =      -1.2107581006939505 [Eh]
	 SCS Total Energy          =    -251.4649593625144632 [Eh]
	-----------------------------------------------------------

  Dipole Moment: [D]
     X:     0.2078      Y:    -0.3211      Z:     1.5587     Total:     1.6049

*** Psi4 exiting successfully. Buy a developer a beer!
