                               Psi4 1.3.2 release

  ==> Input File <==

--------------------------------------------------------------------------
#psi4
#
memory 32 gb

molecule  {
0 1
  N       -1.4514230    -0.0014080    -0.4975550
  C        1.9178760    -0.2820330     0.3003480
  C        0.7301990    -1.0539890    -0.2910100
  C        1.9133330     1.1918710    -0.0951930
  C       -0.5758300    -0.5622950     0.2505430
  C       -2.7573478     0.4810472     0.1997252
  H        1.9034540    -0.3751150     1.3937850
  H        2.8483830    -0.7529800    -0.0365760
  H        0.7089260    -0.9492610    -1.3805420
  H        0.8357330    -2.1215800    -0.0558240
  H        1.9489790     1.2991200    -1.1835390
  H        1.0073910     1.6938590     0.2549320
  H        2.7765220     1.7153350     0.3260680
  H       -0.7349260    -0.6910300     1.3363860
  H       -2.7870910     1.5245690    -0.0148120
  H       -2.6927620     0.2538980     1.2378030
  H       -3.5272530    -0.0486490    -0.3125820
units angstrom
no_reorient  #important for SAPT in psi4, default
symmetry c1  #important for SAPT in psi4, default
}

set PROPERTIES_ORIGIN ["COM"]
properties('MP2/aug-cc-pvtz', properties = ['dipole'])
--------------------------------------------------------------------------

    Molecular point group: c1
  Charge       = 0
  Multiplicity = 1
  Basis Set: AUG-CC-PVTZ
    Blend: AUG-CC-PVTZ
  Basis Set: (AUG-CC-PVTZ AUX)
    Blend: AUG-CC-PVTZ-JKFIT

    Orbital Energies [Eh]
    ---------------------

    Doubly Occupied:

       1A    -15.555055     2A    -11.269193     3A    -11.241827
       4A    -11.225715     5A    -11.223894     6A    -11.210249
       7A     -1.201535     8A     -1.066977     9A     -0.970535
      10A     -0.915472    11A     -0.815235    12A     -0.753176
      13A     -0.632001    14A     -0.627893    15A     -0.603734
      16A     -0.591097    17A     -0.587422    18A     -0.538440
      19A     -0.522992    20A     -0.490186    21A     -0.481064
      22A     -0.475298    23A     -0.397621    24A     -0.392029

  @DF-RHF Final Energy:  -250.25462697974478

   => Energetics <=

    Nuclear Repulsion Energy =            234.0340968629338079
    One-Electron Energy =                -801.0001708064773993
    Two-Electron Energy =                 316.7114469637988350
    Total Energy =                       -250.2546269797447849
  Basis Set: (AUG-CC-PVTZ AUX)
    Blend: AUG-CC-PVTZ-RI
    Molecular point group: c1

    Geometry (in Angstrom), charge = 0, multiplicity = 1:

       Center              X                  Y                   Z               Mass
    ------------   -----------------  -----------------  -----------------  -----------------
         N           -1.412870885294     0.012274372995    -0.485602886907    14.003074004430
         C            1.956428114706    -0.268350627005     0.312300113093    12.000000000000
         C            0.768751114706    -1.040306627005    -0.279057886907    12.000000000000
         C            1.951885114706     1.205553372995    -0.083240886907    12.000000000000
         C           -0.537277885294    -0.548612627005     0.262495113093    12.000000000000
         C           -2.718795685294     0.494729572995     0.211677313093    12.000000000000
         H            1.942006114706    -0.361432627005     1.405737113093     1.007825032230
         H            2.886935114706    -0.739297627005    -0.024623886907     1.007825032230
         H            0.747478114706    -0.935578627005    -1.368589886907     1.007825032230
         H            0.874285114706    -2.107897627005    -0.043871886907     1.007825032230
         H            1.987531114706     1.312802372995    -1.171586886907     1.007825032230
         H            1.045943114706     1.707541372995     0.266884113093     1.007825032230
         H            2.815074114706     1.729017372995     0.338020113093     1.007825032230
         H           -0.696373885294    -0.677347627005     1.348338113093     1.007825032230
         H           -2.748538885294     1.538251372995    -0.002859886907     1.007825032230
         H           -2.654209885294     0.267580372995     1.249755113093     1.007825032230
         H           -3.488700885294    -0.034966627005    -0.300629886907     1.007825032230

  Basis Set: AUG-CC-PVTZ
    Blend: AUG-CC-PVTZ
  Basis Set: (AUG-CC-PVTZ AUX)
    Blend: AUG-CC-PVTZ-JKFIT
	 Reference Energy          =    -250.2546269797447849 [Eh]
	 Singles Energy            =      -0.0000000000000000 [Eh]
	 Same-Spin Energy          =      -0.2617379189311833 [Eh]
	 Opposite-Spin Energy      =      -0.9371180356403722 [Eh]
	 Correlation Energy        =      -1.1988559545715556 [Eh]
	 Total Energy              =    -251.4534829343163267 [Eh]

	 ================> DF-SCS-MP2 Energies <==================
	-----------------------------------------------------------
	 SCS Same-Spin Scale       =       0.3333333333333333 [-]
	 SCS Opposite-Spin Scale   =       1.2000000000000000 [-]
	 SCS Same-Spin Energy      =      -0.0872459729770611 [Eh]
	 SCS Opposite-Spin Energy  =      -1.1245416427684467 [Eh]
	 SCS Correlation Energy    =      -1.2117876157455079 [Eh]
	 SCS Total Energy          =    -251.4664145954903063 [Eh]
	-----------------------------------------------------------

  Dipole Moment: [D]
     X:     0.2810      Y:    -0.3091      Z:     1.5024     Total:     1.5594

*** Psi4 exiting successfully. Buy a developer a beer!
