                               Psi4 1.3.2 release

  ==> Input File <==

--------------------------------------------------------------------------
#psi4
#
memory 32 gb

molecule  {
0 1
  N       -1.4514230    -0.0014080    -0.4975550
  C        1.9825149    -0.3432595     0.2407469
  C        0.7301990    -1.0539890    -0.2910100
  C        1.9133330     1.1918710    -0.0951930
  C       -0.5758300    -0.5622950     0.2505430
  C       -2.6734760     0.4500620     0.1549430
  H        1.9034540    -0.3751150     1.3937850
  H        2.8483830    -0.7529800    -0.0365760
  H        0.7089260    -0.9492610    -1.3805420
  H        0.8357330    -2.1215800    -0.0558240
  H        1.9489790     1.2991200    -1.1835390
  H        1.0073910     1.6938590     0.2549320
  H        2.7765220     1.7153350     0.3260680
  H       -0.7349260    -0.6910300     1.3363860
  H       -2.7870910     1.5245690    -0.0148120
  H       -2.6927620     0.2538980     1.2378030
  H       -3.5272530    -0.0486490    -0.3125820
units angstrom
no_reorient  #important for SAPT in psi4, default
symmetry c1  #important for SAPT in psi4, default
}

set PROPERTIES_ORIGIN ["COM"]
properties('MP2/aug-cc-pvtz', properties = ['dipole'])
--------------------------------------------------------------------------

    Molecular point group: c1
  Charge       = 0
  Multiplicity = 1
  Basis Set: AUG-CC-PVTZ
    Blend: AUG-CC-PVTZ
  Basis Set: (AUG-CC-PVTZ AUX)
    Blend: AUG-CC-PVTZ-JKFIT

    Orbital Energies [Eh]
    ---------------------

    Doubly Occupied:

       1A    -15.556342     2A    -11.274792     3A    -11.243613
       4A    -11.226732     5A    -11.225697     6A    -11.213101
       7A     -1.220564     8A     -1.067380     9A     -0.970761
      10A     -0.910208    11A     -0.825263    12A     -0.756546
      13A     -0.644324    14A     -0.634421    15A     -0.606742
      16A     -0.588577    17A     -0.580322    18A     -0.540594
      19A     -0.520548    20A     -0.499944    21A     -0.480781
      22A     -0.456304    23A     -0.403819    24A     -0.395293

  @DF-RHF Final Energy:  -250.24959942768189

   => Energetics <=

    Nuclear Repulsion Energy =            234.7785628789435464
    One-Electron Energy =                -802.3709865672815340
    Two-Electron Energy =                 317.3428242606560730
    Total Energy =                       -250.2495994276818578
  Basis Set: (AUG-CC-PVTZ AUX)
    Blend: AUG-CC-PVTZ-RI
    Molecular point group: c1

    Geometry (in Angstrom), charge = 0, multiplicity = 1:

       Center              X                  Y                   Z               Mass
    ------------   -----------------  -----------------  -----------------  -----------------
         N           -1.433815135101     0.025278856038    -0.470881860672    14.003074004430
         C            2.000122764899    -0.316572643962     0.267420039328    12.000000000000
         C            0.747806864899    -1.027302143962    -0.264336860672    12.000000000000
         C            1.930940864899     1.218557856038    -0.068519860672    12.000000000000
         C           -0.558222135101    -0.535608143962     0.277216139328    12.000000000000
         C           -2.655868135101     0.476748856038     0.181616139328    12.000000000000
         H            1.921061864899    -0.348428143962     1.420458139328     1.007825032230
         H            2.865990864899    -0.726293143962    -0.009902860672     1.007825032230
         H            0.726533864899    -0.922574143962    -1.353868860672     1.007825032230
         H            0.853340864899    -2.094893143962    -0.029150860672     1.007825032230
         H            1.966586864899     1.325806856038    -1.156865860672     1.007825032230
         H            1.024998864899     1.720545856038     0.281605139328     1.007825032230
         H            2.794129864899     1.742021856038     0.352741139328     1.007825032230
         H           -0.717318135101    -0.664343143962     1.363059139328     1.007825032230
         H           -2.769483135101     1.551255856038     0.011861139328     1.007825032230
         H           -2.675154135101     0.280584856038     1.264476139328     1.007825032230
         H           -3.509645135101    -0.021962143962    -0.285908860672     1.007825032230

  Basis Set: AUG-CC-PVTZ
    Blend: AUG-CC-PVTZ
  Basis Set: (AUG-CC-PVTZ AUX)
    Blend: AUG-CC-PVTZ-JKFIT
	 Reference Energy          =    -250.2495994276818863 [Eh]
	 Singles Energy            =      -0.0000000000000000 [Eh]
	 Same-Spin Energy          =      -0.2616951980706338 [Eh]
	 Opposite-Spin Energy      =      -0.9364286639693199 [Eh]
	 Correlation Energy        =      -1.1981238620399537 [Eh]
	 Total Energy              =    -251.4477232897218357 [Eh]

	 ================> DF-SCS-MP2 Energies <==================
	-----------------------------------------------------------
	 SCS Same-Spin Scale       =       0.3333333333333333 [-]
	 SCS Opposite-Spin Scale   =       1.2000000000000000 [-]
	 SCS Same-Spin Energy      =      -0.0872317326902113 [Eh]
	 SCS Opposite-Spin Energy  =      -1.1237143967631837 [Eh]
	 SCS Correlation Energy    =      -1.2109461294533950 [Eh]
	 SCS Total Energy          =    -251.4605455571352763 [Eh]
	-----------------------------------------------------------

  Dipole Moment: [D]
     X:     0.3686      Y:    -0.3462      Z:     1.3949     Total:     1.4838

*** Psi4 exiting successfully. Buy a developer a beer!
