                               Psi4 1.3.2 release

  ==> Input File <==

--------------------------------------------------------------------------
#psi4
#
memory 32 gb

molecule  {
0 1
  N       -1.4365563     0.0944482    -0.5281096
  C        1.9178760    -0.2820330     0.3003480
  C        0.7301990    -1.0539890    -0.2910100
  C        1.9133330     1.1918710    -0.0951930
  C       -0.5758300    -0.5622950     0.2505430
  C       -2.6734760     0.4500620     0.1549430
  H        1.9034540    -0.3751150     1.3937850
  H        2.8483830    -0.7529800    -0.0365760
  H        0.7089260    -0.9492610    -1.3805420
  H        0.8357330    -2.1215800    -0.0558240
  H        1.9489790     1.2991200    -1.1835390
  H        1.0073910     1.6938590     0.2549320
  H        2.7765220     1.7153350     0.3260680
  H       -0.7349260    -0.6910300     1.3363860
  H       -2.7870910     1.5245690    -0.0148120
  H       -2.6927620     0.2538980     1.2378030
  H       -3.5272530    -0.0486490    -0.3125820
units angstrom
no_reorient  #important for SAPT in psi4, default
symmetry c1  #important for SAPT in psi4, default
}

set PROPERTIES_ORIGIN ["COM"]
properties('MP2/aug-cc-pvtz', properties = ['dipole'])
--------------------------------------------------------------------------

    Molecular point group: c1
  Charge       = 0
  Multiplicity = 1
  Basis Set: AUG-CC-PVTZ
    Blend: AUG-CC-PVTZ
  Basis Set: (AUG-CC-PVTZ AUX)
    Blend: AUG-CC-PVTZ-JKFIT

    Orbital Energies [Eh]
    ---------------------

    Doubly Occupied:

       1A    -15.563783     2A    -11.282378     3A    -11.240588
       4A    -11.227911     5A    -11.227256     6A    -11.210813
       7A     -1.204042     8A     -1.071816     9A     -0.972443
      10A     -0.904334    11A     -0.816721    12A     -0.761776
      13A     -0.639333    14A     -0.631522    15A     -0.606222
      16A     -0.585893    17A     -0.575769    18A     -0.540807
      19A     -0.514763    20A     -0.490165    21A     -0.479433
      22A     -0.473856    23A     -0.414345    24A     -0.380862

  @DF-RHF Final Energy:  -250.25206233122216

   => Energetics <=

    Nuclear Repulsion Energy =            234.6760885920962210
    One-Electron Energy =                -802.2226400474985439
    Two-Electron Energy =                 317.2944891241801315
    Total Energy =                       -250.2520623312221915
  Basis Set: (AUG-CC-PVTZ AUX)
    Blend: AUG-CC-PVTZ-RI
    Molecular point group: c1

    Geometry (in Angstrom), charge = 0, multiplicity = 1:

       Center              X                  Y                   Z               Mass
    ------------   -----------------  -----------------  -----------------  -----------------
         N           -1.412279108824     0.096725369515    -0.504813564300    14.003074004430
         C            1.942153191176    -0.279755830485     0.323644035700    12.000000000000
         C            0.754476191176    -1.051711830485    -0.267713964300    12.000000000000
         C            1.937610191176     1.194148169515    -0.071896964300    12.000000000000
         C           -0.551552808824    -0.560017830485     0.273839035700    12.000000000000
         C           -2.649198808824     0.452339169515     0.178239035700    12.000000000000
         H            1.927731191176    -0.372837830485     1.417081035700     1.007825032230
         H            2.872660191176    -0.750702830485    -0.013279964300     1.007825032230
         H            0.733203191176    -0.946983830485    -1.357245964300     1.007825032230
         H            0.860010191176    -2.119302830485    -0.032527964300     1.007825032230
         H            1.973256191176     1.301397169515    -1.160242964300     1.007825032230
         H            1.031668191176     1.696136169515     0.278228035700     1.007825032230
         H            2.800799191176     1.717612169515     0.349364035700     1.007825032230
         H           -0.710648808824    -0.688752830485     1.359682035700     1.007825032230
         H           -2.762813808824     1.526846169515     0.008484035700     1.007825032230
         H           -2.668484808824     0.256175169515     1.261099035700     1.007825032230
         H           -3.502975808824    -0.046371830485    -0.289285964300     1.007825032230

  Basis Set: AUG-CC-PVTZ
    Blend: AUG-CC-PVTZ
  Basis Set: (AUG-CC-PVTZ AUX)
    Blend: AUG-CC-PVTZ-JKFIT
	 Reference Energy          =    -250.2520623312221630 [Eh]
	 Singles Energy            =      -0.0000000000000000 [Eh]
	 Same-Spin Energy          =      -0.2631935425971929 [Eh]
	 Opposite-Spin Energy      =      -0.9396398434557005 [Eh]
	 Correlation Energy        =      -1.2028333860528932 [Eh]
	 Total Energy              =    -251.4548957172750647 [Eh]

	 ================> DF-SCS-MP2 Energies <==================
	-----------------------------------------------------------
	 SCS Same-Spin Scale       =       0.3333333333333333 [-]
	 SCS Opposite-Spin Scale   =       1.2000000000000000 [-]
	 SCS Same-Spin Energy      =      -0.0877311808657310 [Eh]
	 SCS Opposite-Spin Energy  =      -1.1275678121468407 [Eh]
	 SCS Correlation Energy    =      -1.2152989930125715 [Eh]
	 SCS Total Energy          =    -251.4673613242347301 [Eh]
	-----------------------------------------------------------

  Dipole Moment: [D]
     X:     0.4051      Y:    -0.5180      Z:     1.5068     Total:     1.6441

*** Psi4 exiting successfully. Buy a developer a beer!
