                               Psi4 1.3.2 release

  ==> Input File <==

--------------------------------------------------------------------------
#psi4
#
memory 32 gb

molecule  {
0 1
  N       -1.4514230    -0.0014080    -0.4975550
  C        1.9178760    -0.2820330     0.3003480
  C        0.7301990    -1.0539890    -0.2910100
  C        1.9133330     1.1918710    -0.0951930
  C       -0.5758300    -0.5622950     0.2505430
  C       -2.8412195     0.5120325     0.2445073
  H        1.9034540    -0.3751150     1.3937850
  H        2.8483830    -0.7529800    -0.0365760
  H        0.7089260    -0.9492610    -1.3805420
  H        0.8357330    -2.1215800    -0.0558240
  H        1.9489790     1.2991200    -1.1835390
  H        1.0073910     1.6938590     0.2549320
  H        2.7765220     1.7153350     0.3260680
  H       -0.7349260    -0.6910300     1.3363860
  H       -2.7870910     1.5245690    -0.0148120
  H       -2.6927620     0.2538980     1.2378030
  H       -3.5272530    -0.0486490    -0.3125820
units angstrom
no_reorient  #important for SAPT in psi4, default
symmetry c1  #important for SAPT in psi4, default
}

set PROPERTIES_ORIGIN ["COM"]
properties('MP2/aug-cc-pvtz', properties = ['dipole'])
--------------------------------------------------------------------------

    Molecular point group: c1
  Charge       = 0
  Multiplicity = 1
  Basis Set: AUG-CC-PVTZ
    Blend: AUG-CC-PVTZ
  Basis Set: (AUG-CC-PVTZ AUX)
    Blend: AUG-CC-PVTZ-JKFIT

    Orbital Energies [Eh]
    ---------------------

    Doubly Occupied:

       1A    -15.554536     2A    -11.266253     3A    -11.244148
       4A    -11.224668     5A    -11.222693     6A    -11.209364
       7A     -1.188665     8A     -1.063808     9A     -0.968987
      10A     -0.919864    11A     -0.814356    12A     -0.749727
      13A     -0.633152    14A     -0.620736    15A     -0.602754
      16A     -0.596569    17A     -0.591656    18A     -0.532470
      19A     -0.526299    20A     -0.489621    21A     -0.480501
      22A     -0.474509    23A     -0.398088    24A     -0.378429

  @DF-RHF Final Energy:  -250.23453853468209

   => Energetics <=

    Nuclear Repulsion Energy =            232.7124738228622789
    One-Electron Energy =                -798.3903219337006476
    Two-Electron Energy =                 315.4433095761562527
    Total Energy =                       -250.2345385346820876
  Basis Set: (AUG-CC-PVTZ AUX)
    Blend: AUG-CC-PVTZ-RI
    Molecular point group: c1

    Geometry (in Angstrom), charge = 0, multiplicity = 1:

       Center              X                  Y                   Z               Mass
    ------------   -----------------  -----------------  -----------------  -----------------
         N           -1.401042580421     0.007904560830    -0.491918441875    14.003074004430
         C            1.968256419579    -0.272720439170     0.305984558125    12.000000000000
         C            0.780579419579    -1.044676439170    -0.285373441875    12.000000000000
         C            1.963713419579     1.201183560830    -0.089556441875    12.000000000000
         C           -0.525449580421    -0.552982439170     0.256179558125    12.000000000000
         C           -2.790839080421     0.521345060830     0.250143858125    12.000000000000
         H            1.953834419579    -0.365802439170     1.399421558125     1.007825032230
         H            2.898763419579    -0.743667439170    -0.030939441875     1.007825032230
         H            0.759306419579    -0.939948439170    -1.374905441875     1.007825032230
         H            0.886113419579    -2.112267439170    -0.050187441875     1.007825032230
         H            1.999359419579     1.308432560830    -1.177902441875     1.007825032230
         H            1.057771419579     1.703171560830     0.260568558125     1.007825032230
         H            2.826902419579     1.724647560830     0.331704558125     1.007825032230
         H           -0.684545580421    -0.681717439170     1.342022558125     1.007825032230
         H           -2.736710580421     1.533881560830    -0.009175441875     1.007825032230
         H           -2.642381580421     0.263210560830     1.243439558125     1.007825032230
         H           -3.476872580421    -0.039336439170    -0.306945441875     1.007825032230

  Basis Set: AUG-CC-PVTZ
    Blend: AUG-CC-PVTZ
  Basis Set: (AUG-CC-PVTZ AUX)
    Blend: AUG-CC-PVTZ-JKFIT
	 Reference Energy          =    -250.2345385346820876 [Eh]
	 Singles Energy            =      -0.0000000000000000 [Eh]
	 Same-Spin Energy          =      -0.2623070398212611 [Eh]
	 Opposite-Spin Energy      =      -0.9393241483388250 [Eh]
	 Correlation Energy        =      -1.2016311881600861 [Eh]
	 Total Energy              =    -251.4361697228421804 [Eh]

	 ================> DF-SCS-MP2 Energies <==================
	-----------------------------------------------------------
	 SCS Same-Spin Scale       =       0.3333333333333333 [-]
	 SCS Opposite-Spin Scale   =       1.2000000000000000 [-]
	 SCS Same-Spin Energy      =      -0.0874356799404204 [Eh]
	 SCS Opposite-Spin Energy  =      -1.1271889780065900 [Eh]
	 SCS Correlation Energy    =      -1.2146246579470104 [Eh]
	 SCS Total Energy          =    -251.4491631926291006 [Eh]
	-----------------------------------------------------------

  Dipole Moment: [D]
     X:     0.2469      Y:    -0.3004      Z:     1.5375     Total:     1.5859

*** Psi4 exiting successfully. Buy a developer a beer!
