                               Psi4 1.3.2 release

  ==> Input File <==

--------------------------------------------------------------------------
#psi4
#
memory 32 gb

molecule  {
0 1
  N       -1.4514230    -0.0014080    -0.4975550
  C        1.9178760    -0.2820330     0.3003480
  C        0.7301990    -1.0539890    -0.2910100
  C        1.9133330     1.1918710    -0.0951930
  C       -0.5758300    -0.5622950     0.2505430
  C       -2.6734760     0.4500620     0.1549430
  H        1.9034540    -0.3751150     1.3937850
  H        2.8483830    -0.7529800    -0.0365760
  H        0.7089260    -0.9492610    -1.3805420
  H        0.8357330    -2.1215800    -0.0558240
  H        1.9489790     1.2991200    -1.1835390
  H        1.0073910     1.6938590     0.2549320
  H        2.7765220     1.7153350     0.3260680
  H       -0.7061293    -0.6677287     1.1398464
  H       -2.7870910     1.5245690    -0.0148120
  H       -2.6927620     0.2538980     1.2378030
  H       -3.5272530    -0.0486490    -0.3125820
units angstrom
no_reorient  #important for SAPT in psi4, default
symmetry c1  #important for SAPT in psi4, default
}

set PROPERTIES_ORIGIN ["COM"]
properties('MP2/aug-cc-pvtz', properties = ['dipole'])
--------------------------------------------------------------------------

    Molecular point group: c1
  Charge       = 0
  Multiplicity = 1
  Basis Set: AUG-CC-PVTZ
    Blend: AUG-CC-PVTZ
  Basis Set: (AUG-CC-PVTZ AUX)
    Blend: AUG-CC-PVTZ-JKFIT

    Orbital Energies [Eh]
    ---------------------

    Doubly Occupied:

       1A    -15.552516     2A    -11.248292     3A    -11.242146
       4A    -11.226596     5A    -11.222534     6A    -11.211166
       7A     -1.221722     8A     -1.070715     9A     -0.977331
      10A     -0.910066    11A     -0.826123    12A     -0.794865
      13A     -0.649357    14A     -0.633996    15A     -0.609435
      16A     -0.589624    17A     -0.578494    18A     -0.542636
      19A     -0.521629    20A     -0.489867    21A     -0.480148
      22A     -0.475543    23A     -0.402807    24A     -0.393293

  @DF-RHF Final Energy:  -250.23271535782135

   => Energetics <=

    Nuclear Repulsion Energy =            236.4860725863502182
    One-Electron Energy =                -805.6957767357057492
    Two-Electron Energy =                 318.9769887915341542
    Total Energy =                       -250.2327153578213483
  Basis Set: (AUG-CC-PVTZ AUX)
    Blend: AUG-CC-PVTZ-RI
    Molecular point group: c1

    Geometry (in Angstrom), charge = 0, multiplicity = 1:

       Center              X                  Y                   Z               Mass
    ------------   -----------------  -----------------  -----------------  -----------------
         N           -1.425040282249     0.016368182478    -0.476959435488    14.003074004430
         C            1.944258717751    -0.264256817522     0.320943564512    12.000000000000
         C            0.756581717751    -1.036212817522    -0.270414435488    12.000000000000
         C            1.939715717751     1.209647182478    -0.074597435488    12.000000000000
         C           -0.549447282249    -0.544518817522     0.271138564512    12.000000000000
         C           -2.647093282249     0.467838182478     0.175538564512    12.000000000000
         H            1.929836717751    -0.357338817522     1.414380564512     1.007825032230
         H            2.874765717751    -0.735203817522    -0.015980435488     1.007825032230
         H            0.735308717751    -0.931484817522    -1.359946435488     1.007825032230
         H            0.862115717751    -2.103803817522    -0.035228435488     1.007825032230
         H            1.975361717751     1.316896182478    -1.162943435488     1.007825032230
         H            1.033773717751     1.711635182478     0.275527564512     1.007825032230
         H            2.802904717751     1.733111182478     0.346663564512     1.007825032230
         H           -0.679746582249    -0.649952517522     1.160441964512     1.007825032230
         H           -2.760708282249     1.542345182478     0.005783564512     1.007825032230
         H           -2.666379282249     0.271674182478     1.258398564512     1.007825032230
         H           -3.500870282249    -0.030872817522    -0.291986435488     1.007825032230

  Basis Set: AUG-CC-PVTZ
    Blend: AUG-CC-PVTZ
  Basis Set: (AUG-CC-PVTZ AUX)
    Blend: AUG-CC-PVTZ-JKFIT
	 Reference Energy          =    -250.2327153578213483 [Eh]
	 Singles Energy            =      -0.0000000000000000 [Eh]
	 Same-Spin Energy          =      -0.2612766069244020 [Eh]
	 Opposite-Spin Energy      =      -0.9352769300234738 [Eh]
	 Correlation Energy        =      -1.1965535369478757 [Eh]
	 Total Energy              =    -251.4292688947692227 [Eh]

	 ================> DF-SCS-MP2 Energies <==================
	-----------------------------------------------------------
	 SCS Same-Spin Scale       =       0.3333333333333333 [-]
	 SCS Opposite-Spin Scale   =       1.2000000000000000 [-]
	 SCS Same-Spin Energy      =      -0.0870922023081340 [Eh]
	 SCS Opposite-Spin Energy  =      -1.1223323160281684 [Eh]
	 SCS Correlation Energy    =      -1.2094245183363024 [Eh]
	 SCS Total Energy          =    -251.4421398761576540 [Eh]
	-----------------------------------------------------------

  Dipole Moment: [D]
     X:     0.3756      Y:    -0.3699      Z:     1.5859     Total:     1.6712

*** Psi4 exiting successfully. Buy a developer a beer!
