                               Psi4 1.3.2 release

  ==> Input File <==

--------------------------------------------------------------------------
#psi4
#
memory 32 gb

molecule  {
0 1
  N       -1.4514230    -0.0014080    -0.4975550
  C        1.9178760    -0.2820330     0.3003480
  C        0.7301990    -1.0539890    -0.2910100
  C        1.9133330     1.1918710    -0.0951930
  C       -0.7503261    -0.4966007     0.3228989
  C       -2.6734760     0.4500620     0.1549430
  H        1.9034540    -0.3751150     1.3937850
  H        2.8483830    -0.7529800    -0.0365760
  H        0.7089260    -0.9492610    -1.3805420
  H        0.8357330    -2.1215800    -0.0558240
  H        1.9489790     1.2991200    -1.1835390
  H        1.0073910     1.6938590     0.2549320
  H        2.7765220     1.7153350     0.3260680
  H       -0.7349260    -0.6910300     1.3363860
  H       -2.7870910     1.5245690    -0.0148120
  H       -2.6927620     0.2538980     1.2378030
  H       -3.5272530    -0.0486490    -0.3125820
units angstrom
no_reorient  #important for SAPT in psi4, default
symmetry c1  #important for SAPT in psi4, default
}

set PROPERTIES_ORIGIN ["COM"]
properties('MP2/aug-cc-pvtz', properties = ['dipole'])
--------------------------------------------------------------------------

    Molecular point group: c1
  Charge       = 0
  Multiplicity = 1
  Basis Set: AUG-CC-PVTZ
    Blend: AUG-CC-PVTZ
  Basis Set: (AUG-CC-PVTZ AUX)
    Blend: AUG-CC-PVTZ-JKFIT

    Orbital Energies [Eh]
    ---------------------

    Doubly Occupied:

       1A    -15.553172     2A    -11.265000     3A    -11.245424
       4A    -11.220035     5A    -11.219170     6A    -11.207513
       7A     -1.269436     8A     -1.052779     9A     -0.959724
      10A     -0.908543    11A     -0.809227    12A     -0.774723
      13A     -0.650890    14A     -0.626757    15A     -0.605371
      16A     -0.593782    17A     -0.584810    18A     -0.539566
      19A     -0.500766    20A     -0.480379    21A     -0.479935
      22A     -0.466592    23A     -0.428398    24A     -0.381833

  @DF-RHF Final Energy:  -250.22630221729602

   => Energetics <=

    Nuclear Repulsion Energy =            235.3266347447767828
    One-Electron Energy =                -803.4582179072991721
    Two-Electron Energy =                 317.9052809452263091
    Total Energy =                       -250.2263022172960518
  Basis Set: (AUG-CC-PVTZ AUX)
    Blend: AUG-CC-PVTZ-RI
    Molecular point group: c1

    Geometry (in Angstrom), charge = 0, multiplicity = 1:

       Center              X                  Y                   Z               Mass
    ------------   -----------------  -----------------  -----------------  -----------------
         N           -1.400090270983     0.007379398687    -0.489491566045    14.003074004430
         C            1.969208729017    -0.273245601313     0.308411433955    12.000000000000
         C            0.781531729017    -1.045201601313    -0.282946566045    12.000000000000
         C            1.964665729017     1.200658398687    -0.087129566045    12.000000000000
         C           -0.698993370983    -0.487813301313     0.330962333955    12.000000000000
         C           -2.622143270983     0.458849398687     0.163006433955    12.000000000000
         H            1.954786729017    -0.366327601313     1.401848433955     1.007825032230
         H            2.899715729017    -0.744192601313    -0.028512566045     1.007825032230
         H            0.760258729017    -0.940473601313    -1.372478566045     1.007825032230
         H            0.887065729017    -2.112792601313    -0.047760566045     1.007825032230
         H            2.000311729017     1.307907398687    -1.175475566045     1.007825032230
         H            1.058723729017     1.702646398687     0.262995433955     1.007825032230
         H            2.827854729017     1.724122398687     0.334131433955     1.007825032230
         H           -0.683593270983    -0.682242601313     1.344449433955     1.007825032230
         H           -2.735758270983     1.533356398687    -0.006748566045     1.007825032230
         H           -2.641429270983     0.262685398687     1.245866433955     1.007825032230
         H           -3.475920270983    -0.039861601313    -0.304518566045     1.007825032230

  Basis Set: AUG-CC-PVTZ
    Blend: AUG-CC-PVTZ
  Basis Set: (AUG-CC-PVTZ AUX)
    Blend: AUG-CC-PVTZ-JKFIT
	 Reference Energy          =    -250.2263022172960234 [Eh]
	 Singles Energy            =      -0.0000000000000000 [Eh]
	 Same-Spin Energy          =      -0.2602853127477185 [Eh]
	 Opposite-Spin Energy      =      -0.9339673135446910 [Eh]
	 Correlation Energy        =      -1.1942526262924096 [Eh]
	 Total Energy              =    -251.4205548435884339 [Eh]

	 ================> DF-SCS-MP2 Energies <==================
	-----------------------------------------------------------
	 SCS Same-Spin Scale       =       0.3333333333333333 [-]
	 SCS Opposite-Spin Scale   =       1.2000000000000000 [-]
	 SCS Same-Spin Energy      =      -0.0867617709159062 [Eh]
	 SCS Opposite-Spin Energy  =      -1.1207607762536291 [Eh]
	 SCS Correlation Energy    =      -1.2075225471695352 [Eh]
	 SCS Total Energy          =    -251.4338247644655553 [Eh]
	-----------------------------------------------------------

  Dipole Moment: [D]
     X:    -0.2095      Y:    -0.1845      Z:     1.5759     Total:     1.6004

*** Psi4 exiting successfully. Buy a developer a beer!
