                               Psi4 1.4a3.dev225

  ==> Input File <==

--------------------------------------------------------------------------
#psi4
#
memory 32 gb

molecule  {
0 1
  N       -1.4513250    -0.0010140    -0.4975640
  C        1.9178130    -0.2820920     0.3002790
  C        0.7301270    -1.0540560    -0.2910000
  C        1.9134960     1.1918760    -0.0950710
  C       -0.5759880    -0.5623720     0.2504290
  C       -2.6567078     0.4438456     0.1459922
  H        1.9036020    -0.3753030     1.3937060
  H        2.8482930    -0.7529860    -0.0368320
  H        0.7089100    -0.9495730    -1.3805570
  H        0.8355610    -2.1216230    -0.0556080
  H        1.9497200     1.2992090    -1.1833850
  H        1.0073830     1.6938500     0.2545960
  H        2.7764960     1.7152480     0.3266950
  H       -0.7352490    -0.6914900     1.3362220
  H       -2.7876940     1.5244090    -0.0151890
  H       -2.6923780     0.2543160     1.2378980
  H       -3.5271550    -0.0493170    -0.3121090
units angstrom
no_reorient  #important for SAPT in psi4, default
symmetry c1  #important for SAPT in psi4, default
}

set PROPERTIES_ORIGIN ["COM"]
properties('MP2/aug-cc-pvtz', properties = ['dipole'])
--------------------------------------------------------------------------

    Molecular point group: c1
  Charge       = 0
  Multiplicity = 1
  Basis Set: AUG-CC-PVTZ
    Blend: AUG-CC-PVTZ
  Basis Set: (AUG-CC-PVTZ AUX)
    Blend: AUG-CC-PVTZ-JKFIT

    Orbital Energies [Eh]
    ---------------------

    Doubly Occupied:

       1A    -15.554641     2A    -11.273710     3A    -11.243319
       4A    -11.227300     5A    -11.225739     6A    -11.211577
       7A     -1.224076     8A     -1.071713     9A     -0.974365
      10A     -0.909759    11A     -0.815968    12A     -0.758565
      13A     -0.646285    14A     -0.633652    15A     -0.608922
      16A     -0.586397    17A     -0.577488    18A     -0.543748
      19A     -0.515247    20A     -0.490597    21A     -0.481078
      22A     -0.475135    23A     -0.402984    24A     -0.393937

  @DF-RHF Final Energy:  -250.26251354573853

   => Energetics <=

    Nuclear Repulsion Energy =            235.7367816098294782
    One-Electron Energy =                -804.3061877486802587
    Two-Electron Energy =                 318.3068925931123090
    Total Energy =                       -250.2625135457384999
  Basis Set: (AUG-CC-PVTZ AUX)
    Blend: AUG-CC-PVTZ-RI
    Molecular point group: c1

    Geometry (in Angstrom), charge = 0, multiplicity = 1:

       Center              X                  Y                   Z               Mass
    ------------   -----------------  -----------------  -----------------  -----------------
         N           -1.426965368720     0.017894834309    -0.478029329228    14.003074004430
         C            1.942172631280    -0.263183165691     0.319813670772    12.000000000000
         C            0.754486631280    -1.035147165691    -0.271465329228    12.000000000000
         C            1.937855631280     1.210784834309    -0.075536329228    12.000000000000
         C           -0.551628368720    -0.543463165691     0.269963670772    12.000000000000
         C           -2.632348168720     0.462754434309     0.165526870772    12.000000000000
         H            1.927961631280    -0.356394165691     1.413240670772     1.007825032230
         H            2.872652631280    -0.734077165691    -0.017297329228     1.007825032230
         H            0.733269631280    -0.930664165691    -1.361022329228     1.007825032230
         H            0.859920631280    -2.102714165691    -0.036073329228     1.007825032230
         H            1.974079631280     1.318117834309    -1.163850329228     1.007825032230
         H            1.031742631280     1.712758834309     0.274130670772     1.007825032230
         H            2.800855631280     1.734156834309     0.346229670772     1.007825032230
         H           -0.710889368720    -0.672581165691     1.355756670772     1.007825032230
         H           -2.763334368720     1.543317834309     0.004345670772     1.007825032230
         H           -2.668018368720     0.273224834309     1.257432670772     1.007825032230
         H           -3.502795368720    -0.030408165691    -0.292574329228     1.007825032230

  Basis Set: AUG-CC-PVTZ
    Blend: AUG-CC-PVTZ
  Basis Set: (AUG-CC-PVTZ AUX)
    Blend: AUG-CC-PVTZ-JKFIT
	 Reference Energy          =    -250.2625135457385284 [Eh]
	 Singles Energy            =      -0.0000000000000000 [Eh]
	 Same-Spin Energy          =      -0.2619439607723841 [Eh]
	 Opposite-Spin Energy      =      -0.9359548249590930 [Eh]
	 Correlation Energy        =      -1.1978987857314771 [Eh]
	 Total Energy              =    -251.4604123314699962 [Eh]

	 ================> DF-SCS-MP2 Energies <==================
	-----------------------------------------------------------
	 SCS Same-Spin Scale       =       0.3333333333333333 [-]
	 SCS Opposite-Spin Scale   =       1.2000000000000000 [-]
	 SCS Same-Spin Energy      =      -0.0873146535907947 [Eh]
	 SCS Opposite-Spin Energy  =      -1.1231457899509116 [Eh]
	 SCS Correlation Energy    =      -1.2104604435417063 [Eh]
	 SCS Total Energy          =    -251.4729739892802343 [Eh]
	-----------------------------------------------------------

  Dipole Moment: [D]
     X:     0.4164      Y:    -0.3500      Z:     1.4168     Total:     1.5176

*** Psi4 exiting successfully. Buy a developer a beer!
