                               Psi4 1.3.2 release

  ==> Input File <==

--------------------------------------------------------------------------
#psi4
#
memory 32 gb

molecule  {
0 1
  N       -1.5022477     0.0092100    -0.4247645
  C        1.9178760    -0.2820330     0.3003480
  C        0.7301990    -1.0539890    -0.2910100
  C        1.9133330     1.1918710    -0.0951930
  C       -0.5758300    -0.5622950     0.2505430
  C       -2.6734760     0.4500620     0.1549430
  H        1.9034540    -0.3751150     1.3937850
  H        2.8483830    -0.7529800    -0.0365760
  H        0.7089260    -0.9492610    -1.3805420
  H        0.8357330    -2.1215800    -0.0558240
  H        1.9489790     1.2991200    -1.1835390
  H        1.0073910     1.6938590     0.2549320
  H        2.7765220     1.7153350     0.3260680
  H       -0.7349260    -0.6910300     1.3363860
  H       -2.7870910     1.5245690    -0.0148120
  H       -2.6927620     0.2538980     1.2378030
  H       -3.5272530    -0.0486490    -0.3125820
units angstrom
no_reorient  #important for SAPT in psi4, default
symmetry c1  #important for SAPT in psi4, default
}

set PROPERTIES_ORIGIN ["COM"]
properties('MP2/aug-cc-pvtz', properties = ['dipole'])
--------------------------------------------------------------------------

    Molecular point group: c1
  Charge       = 0
  Multiplicity = 1
  Basis Set: AUG-CC-PVTZ
    Blend: AUG-CC-PVTZ
  Basis Set: (AUG-CC-PVTZ AUX)
    Blend: AUG-CC-PVTZ-JKFIT

    Orbital Energies [Eh]
    ---------------------

    Doubly Occupied:

       1A    -15.547577     2A    -11.274162     3A    -11.238189
       4A    -11.229158     5A    -11.228337     6A    -11.212290
       7A     -1.231747     8A     -1.075250     9A     -0.980755
      10A     -0.914457    11A     -0.816394    12A     -0.755952
      13A     -0.652439    14A     -0.637850    15A     -0.611964
      16A     -0.590759    17A     -0.585608    18A     -0.549254
      19A     -0.519074    20A     -0.491430    21A     -0.484044
      22A     -0.476688    23A     -0.390540    24A     -0.388328

  @DF-RHF Final Energy:  -250.25946943222542

   => Energetics <=

    Nuclear Repulsion Energy =            236.1263277231223867
    One-Electron Energy =                -805.0071067740789204
    Two-Electron Energy =                 318.6213096187311749
    Total Energy =                       -250.2594694322253872
  Basis Set: (AUG-CC-PVTZ AUX)
    Blend: AUG-CC-PVTZ-RI
    Molecular point group: c1

    Geometry (in Angstrom), charge = 0, multiplicity = 1:

       Center              X                  Y                   Z               Mass
    ------------   -----------------  -----------------  -----------------  -----------------
         N           -1.467159711647     0.025514772700    -0.418475909952    14.003074004430
         C            1.952963988353    -0.265728227300     0.306636590048    12.000000000000
         C            0.765286988353    -1.037684227300    -0.284721409952    12.000000000000
         C            1.948420988353     1.208175772700    -0.088904409952    12.000000000000
         C           -0.540742011647    -0.545990227300     0.256831590048    12.000000000000
         C           -2.638388011647     0.466366772700     0.161231590048    12.000000000000
         H            1.938541988353    -0.358810227300     1.400073590048     1.007825032230
         H            2.883470988353    -0.736675227300    -0.030287409952     1.007825032230
         H            0.744013988353    -0.932956227300    -1.374253409952     1.007825032230
         H            0.870820988353    -2.105275227300    -0.049535409952     1.007825032230
         H            1.984066988353     1.315424772700    -1.177250409952     1.007825032230
         H            1.042478988353     1.710163772700     0.261220590048     1.007825032230
         H            2.811609988353     1.731639772700     0.332356590048     1.007825032230
         H           -0.699838011647    -0.674725227300     1.342674590048     1.007825032230
         H           -2.752003011647     1.540873772700    -0.008523409952     1.007825032230
         H           -2.657674011647     0.270202772700     1.244091590048     1.007825032230
         H           -3.492165011647    -0.032344227300    -0.306293409952     1.007825032230

  Basis Set: AUG-CC-PVTZ
    Blend: AUG-CC-PVTZ
  Basis Set: (AUG-CC-PVTZ AUX)
    Blend: AUG-CC-PVTZ-JKFIT
	 Reference Energy          =    -250.2594694322254156 [Eh]
	 Singles Energy            =      -0.0000000000000000 [Eh]
	 Same-Spin Energy          =      -0.2621732156991836 [Eh]
	 Opposite-Spin Energy      =      -0.9350829151319019 [Eh]
	 Correlation Energy        =      -1.1972561308310854 [Eh]
	 Total Energy              =    -251.4567255630564944 [Eh]

	 ================> DF-SCS-MP2 Energies <==================
	-----------------------------------------------------------
	 SCS Same-Spin Scale       =       0.3333333333333333 [-]
	 SCS Opposite-Spin Scale   =       1.2000000000000000 [-]
	 SCS Same-Spin Energy      =      -0.0873910718997279 [Eh]
	 SCS Opposite-Spin Energy  =      -1.1220994981582821 [Eh]
	 SCS Correlation Energy    =      -1.2094905700580101 [Eh]
	 SCS Total Energy          =    -251.4689600022834384 [Eh]
	-----------------------------------------------------------

  Dipole Moment: [D]
     X:     0.5037      Y:    -0.3377      Z:     1.2195     Total:     1.3619

*** Psi4 exiting successfully. Buy a developer a beer!
