                               Psi4 1.3.2 release

  ==> Input File <==

--------------------------------------------------------------------------
#psi4
#
memory 32 gb

molecule  {
0 1
  N       -1.4514230    -0.0014080    -0.4975550
  C        1.9178760    -0.2820330     0.3003480
  C        0.7301990    -1.0539890    -0.2910100
  C        1.9133330     1.1918710    -0.0951930
  C       -0.5758300    -0.5622950     0.2505430
  C       -2.6734760     0.4500620     0.1549430
  H        1.9034540    -0.3751150     1.3937850
  H        2.8483830    -0.7529800    -0.0365760
  H        0.7089260    -0.9492610    -1.3805420
  H        0.8357330    -2.1215800    -0.0558240
  H        1.9489790     1.2991200    -1.1835390
  H        1.0073910     1.6938590     0.2549320
  H        2.7765220     1.7153350     0.3260680
  H       -0.7493243    -0.7026806     1.4346558
  H       -2.7870910     1.5245690    -0.0148120
  H       -2.6927620     0.2538980     1.2378030
  H       -3.5272530    -0.0486490    -0.3125820
units angstrom
no_reorient  #important for SAPT in psi4, default
symmetry c1  #important for SAPT in psi4, default
}

set PROPERTIES_ORIGIN ["COM"]
properties('MP2/aug-cc-pvtz', properties = ['dipole'])
--------------------------------------------------------------------------

    Molecular point group: c1
  Charge       = 0
  Multiplicity = 1
  Basis Set: AUG-CC-PVTZ
    Blend: AUG-CC-PVTZ
  Basis Set: (AUG-CC-PVTZ AUX)
    Blend: AUG-CC-PVTZ-JKFIT

    Orbital Energies [Eh]
    ---------------------

    Doubly Occupied:

       1A    -15.556827     2A    -11.284362     3A    -11.243286
       4A    -11.227626     5A    -11.227000     6A    -11.211496
       7A     -1.219978     8A     -1.071294     9A     -0.973115
      10A     -0.911366    11A     -0.815344    12A     -0.742081
      13A     -0.640309    14A     -0.631849    15A     -0.607328
      16A     -0.584692    17A     -0.579274    18A     -0.543352
      19A     -0.513089    20A     -0.491062    21A     -0.481758
      22A     -0.475218    23A     -0.400744    24A     -0.396160

  @DF-RHF Final Energy:  -250.25585956899101

   => Energetics <=

    Nuclear Repulsion Energy =            235.0075109668513846
    One-Electron Energy =                -802.8695146958074247
    Two-Electron Energy =                 317.6061441599650834
    Total Energy =                       -250.2558595689910135
  Basis Set: (AUG-CC-PVTZ AUX)
    Blend: AUG-CC-PVTZ-RI
    Molecular point group: c1

    Geometry (in Angstrom), charge = 0, multiplicity = 1:

       Center              X                  Y                   Z               Mass
    ------------   -----------------  -----------------  -----------------  -----------------
         N           -1.424528665873     0.016782164755    -0.480451259009    14.003074004430
         C            1.944770334127    -0.263842835245     0.317451740991    12.000000000000
         C            0.757093334127    -1.035798835245    -0.273906259009    12.000000000000
         C            1.940227334127     1.210061164755    -0.078089259009    12.000000000000
         C           -0.548935665873    -0.544104835245     0.267646740991    12.000000000000
         C           -2.646581665873     0.468252164755     0.172046740991    12.000000000000
         H            1.930348334127    -0.356924835245     1.410888740991     1.007825032230
         H            2.875277334127    -0.734789835245    -0.019472259009     1.007825032230
         H            0.735820334127    -0.931070835245    -1.363438259009     1.007825032230
         H            0.862627334127    -2.103389835245    -0.038720259009     1.007825032230
         H            1.975873334127     1.317310164755    -1.166435259009     1.007825032230
         H            1.034285334127     1.712049164755     0.272035740991     1.007825032230
         H            2.803416334127     1.733525164755     0.343171740991     1.007825032230
         H           -0.722429965873    -0.684490435245     1.451759540991     1.007825032230
         H           -2.760196665873     1.542759164755     0.002291740991     1.007825032230
         H           -2.665867665873     0.272088164755     1.254906740991     1.007825032230
         H           -3.500358665873    -0.030458835245    -0.295478259009     1.007825032230

  Basis Set: AUG-CC-PVTZ
    Blend: AUG-CC-PVTZ
  Basis Set: (AUG-CC-PVTZ AUX)
    Blend: AUG-CC-PVTZ-JKFIT
	 Reference Energy          =    -250.2558595689910135 [Eh]
	 Singles Energy            =      -0.0000000000000000 [Eh]
	 Same-Spin Energy          =      -0.2622903313614873 [Eh]
	 Opposite-Spin Energy      =      -0.9370887977049964 [Eh]
	 Correlation Energy        =      -1.1993791290664837 [Eh]
	 Total Energy              =    -251.4552386980574852 [Eh]

	 ================> DF-SCS-MP2 Energies <==================
	-----------------------------------------------------------
	 SCS Same-Spin Scale       =       0.3333333333333333 [-]
	 SCS Opposite-Spin Scale   =       1.2000000000000000 [-]
	 SCS Same-Spin Energy      =      -0.0874301104538291 [Eh]
	 SCS Opposite-Spin Energy  =      -1.1245065572459956 [Eh]
	 SCS Correlation Energy    =      -1.2119366676998247 [Eh]
	 SCS Total Energy          =    -251.4677962366908446 [Eh]
	-----------------------------------------------------------

  Dipole Moment: [D]
     X:     0.3931      Y:    -0.3160      Z:     1.3184     Total:     1.4115

*** Psi4 exiting successfully. Buy a developer a beer!
