                               Psi4 1.3.2 release

  ==> Input File <==

--------------------------------------------------------------------------
#psi4
#
memory 32 gb

molecule  {
0 1
  N       -1.4514230    -0.0014080    -0.4975550
  C        1.9178760    -0.2820330     0.3003480
  C        0.7301990    -1.0539890    -0.2910100
  C        1.9133330     1.1918710    -0.0951930
  C       -0.5206960    -0.5976003     0.3928945
  C       -2.6734760     0.4500620     0.1549430
  H        1.9034540    -0.3751150     1.3937850
  H        2.8483830    -0.7529800    -0.0365760
  H        0.7089260    -0.9492610    -1.3805420
  H        0.8357330    -2.1215800    -0.0558240
  H        1.9489790     1.2991200    -1.1835390
  H        1.0073910     1.6938590     0.2549320
  H        2.7765220     1.7153350     0.3260680
  H       -0.7349260    -0.6910300     1.3363860
  H       -2.7870910     1.5245690    -0.0148120
  H       -2.6927620     0.2538980     1.2378030
  H       -3.5272530    -0.0486490    -0.3125820
units angstrom
no_reorient  #important for SAPT in psi4, default
symmetry c1  #important for SAPT in psi4, default
}

set PROPERTIES_ORIGIN ["COM"]
properties('MP2/aug-cc-pvtz', properties = ['dipole'])
--------------------------------------------------------------------------

    Molecular point group: c1
  Charge       = 0
  Multiplicity = 1
  Basis Set: AUG-CC-PVTZ
    Blend: AUG-CC-PVTZ
  Basis Set: (AUG-CC-PVTZ AUX)
    Blend: AUG-CC-PVTZ-JKFIT

    Orbital Energies [Eh]
    ---------------------

    Doubly Occupied:

       1A    -15.568950     2A    -11.281044     3A    -11.238027
       4A    -11.229744     5A    -11.226635     6A    -11.210807
       7A     -1.179893     8A     -1.072181     9A     -0.973879
      10A     -0.896015    11A     -0.816809    12A     -0.793616
      13A     -0.640663    14A     -0.631331    15A     -0.606316
      16A     -0.582624    17A     -0.572889    18A     -0.544421
      19A     -0.521826    20A     -0.489868    21A     -0.480783
      22A     -0.464178    23A     -0.414017    24A     -0.360370

  @DF-RHF Final Energy:  -250.21670732857154

   => Energetics <=

    Nuclear Repulsion Energy =            234.0170565357409771
    One-Electron Energy =                -800.8737525822180032
    Two-Electron Energy =                 316.6399887179055099
    Total Energy =                       -250.2167073285715446
  Basis Set: (AUG-CC-PVTZ AUX)
    Blend: AUG-CC-PVTZ-RI
    Molecular point group: c1

    Geometry (in Angstrom), charge = 0, multiplicity = 1:

       Center              X                  Y                   Z               Mass
    ------------   -----------------  -----------------  -----------------  -----------------
         N           -1.432474672764     0.021623226591    -0.499362944550    14.003074004430
         C            1.936824327236    -0.259001773409     0.298540055450    12.000000000000
         C            0.749147327236    -1.030957773409    -0.292817944550    12.000000000000
         C            1.932281327236     1.214902226591    -0.097000944550    12.000000000000
         C           -0.501747672764    -0.574569073409     0.391086555450    12.000000000000
         C           -2.654527672764     0.473093226591     0.153135055450    12.000000000000
         H            1.922402327236    -0.352083773409     1.391977055450     1.007825032230
         H            2.867331327236    -0.729948773409    -0.038383944550     1.007825032230
         H            0.727874327236    -0.926229773409    -1.382349944550     1.007825032230
         H            0.854681327236    -2.098548773409    -0.057631944550     1.007825032230
         H            1.967927327236     1.322151226591    -1.185346944550     1.007825032230
         H            1.026339327236     1.716890226591     0.253124055450     1.007825032230
         H            2.795470327236     1.738366226591     0.324260055450     1.007825032230
         H           -0.715977672764    -0.667998773409     1.334578055450     1.007825032230
         H           -2.768142672764     1.547600226591    -0.016619944550     1.007825032230
         H           -2.673813672764     0.276929226591     1.235995055450     1.007825032230
         H           -3.508304672764    -0.025617773409    -0.314389944550     1.007825032230

  Basis Set: AUG-CC-PVTZ
    Blend: AUG-CC-PVTZ
  Basis Set: (AUG-CC-PVTZ AUX)
    Blend: AUG-CC-PVTZ-JKFIT
	 Reference Energy          =    -250.2167073285715446 [Eh]
	 Singles Energy            =      -0.0000000000000000 [Eh]
	 Same-Spin Energy          =      -0.2652045289930671 [Eh]
	 Opposite-Spin Energy      =      -0.9450900647436885 [Eh]
	 Correlation Energy        =      -1.2102945937367555 [Eh]
	 Total Energy              =    -251.4270019223083068 [Eh]

	 ================> DF-SCS-MP2 Energies <==================
	-----------------------------------------------------------
	 SCS Same-Spin Scale       =       0.3333333333333333 [-]
	 SCS Opposite-Spin Scale   =       1.2000000000000000 [-]
	 SCS Same-Spin Energy      =      -0.0884015096643557 [Eh]
	 SCS Opposite-Spin Energy  =      -1.1341080776924262 [Eh]
	 SCS Correlation Energy    =      -1.2225095873567819 [Eh]
	 SCS Total Energy          =    -251.4392169159283128 [Eh]
	-----------------------------------------------------------

  Dipole Moment: [D]
     X:     0.4169      Y:    -0.4162      Z:     1.6055     Total:     1.7102

*** Psi4 exiting successfully. Buy a developer a beer!
