                               Psi4 1.3.2 release

  ==> Input File <==

--------------------------------------------------------------------------
#psi4
#
memory 32 gb

molecule  {
0 1
  N       -1.4645391     0.0015049    -0.4796855
  C        1.9178760    -0.2820330     0.3003480
  C        0.7301990    -1.0539890    -0.2910100
  C        1.9133330     1.1918710    -0.0951930
  C       -0.5758300    -0.5622950     0.2505430
  C       -2.6734760     0.4500620     0.1549430
  H        1.9034540    -0.3751150     1.3937850
  H        2.8483830    -0.7529800    -0.0365760
  H        0.7089260    -0.9492610    -1.3805420
  H        0.8357330    -2.1215800    -0.0558240
  H        1.9489790     1.2991200    -1.1835390
  H        1.0073910     1.6938590     0.2549320
  H        2.7765220     1.7153350     0.3260680
  H       -0.7349260    -0.6910300     1.3363860
  H       -2.7870910     1.5245690    -0.0148120
  H       -2.6927620     0.2538980     1.2378030
  H       -3.5272530    -0.0486490    -0.3125820
units angstrom
no_reorient  #important for SAPT in psi4, default
symmetry c1  #important for SAPT in psi4, default
}

set PROPERTIES_ORIGIN ["COM"]
properties('MP2/aug-cc-pvtz', properties = ['dipole'])
--------------------------------------------------------------------------

    Molecular point group: c1
  Charge       = 0
  Multiplicity = 1
  Basis Set: AUG-CC-PVTZ
    Blend: AUG-CC-PVTZ
  Basis Set: (AUG-CC-PVTZ AUX)
    Blend: AUG-CC-PVTZ-JKFIT

    Orbital Energies [Eh]
    ---------------------

    Doubly Occupied:

       1A    -15.552985     2A    -11.273098     3A    -11.241606
       4A    -11.227406     5A    -11.226244     6A    -11.211565
       7A     -1.222326     8A     -1.071939     9A     -0.975290
      10A     -0.911514    11A     -0.816007    12A     -0.757150
      13A     -0.645025    14A     -0.634262    15A     -0.609012
      16A     -0.587747    17A     -0.580559    18A     -0.544454
      19A     -0.517315    20A     -0.490742    21A     -0.481758
      22A     -0.475692    23A     -0.398998    24A     -0.393748

  @DF-RHF Final Energy:  -250.26314236967829

   => Energetics <=

    Nuclear Repulsion Energy =            235.6050836789461300
    One-Electron Energy =                -804.0435690648982927
    Two-Electron Energy =                 318.1753430162738709
    Total Energy =                       -250.2631423696782917
  Basis Set: (AUG-CC-PVTZ AUX)
    Blend: AUG-CC-PVTZ-RI
    Molecular point group: c1

    Geometry (in Angstrom), charge = 0, multiplicity = 1:

       Center              X                  Y                   Z               Mass
    ------------   -----------------  -----------------  -----------------  -----------------
         N           -1.435656794985     0.019077696724    -0.464358591516    14.003074004430
         C            1.946758305015    -0.264460203276     0.315674908484    12.000000000000
         C            0.759081305015    -1.036416203276    -0.275683091516    12.000000000000
         C            1.942215305015     1.209443796724    -0.079866091516    12.000000000000
         C           -0.546947694985    -0.544722203276     0.265869908484    12.000000000000
         C           -2.644593694985     0.467634796724     0.170269908484    12.000000000000
         H            1.932336305015    -0.357542203276     1.409111908484     1.007825032230
         H            2.877265305015    -0.735407203276    -0.021249091516     1.007825032230
         H            0.737808305015    -0.931688203276    -1.365215091516     1.007825032230
         H            0.864615305015    -2.104007203276    -0.040497091516     1.007825032230
         H            1.977861305015     1.316692796724    -1.168212091516     1.007825032230
         H            1.036273305015     1.711431796724     0.270258908484     1.007825032230
         H            2.805404305015     1.732907796724     0.341394908484     1.007825032230
         H           -0.706043694985    -0.673457203276     1.351712908484     1.007825032230
         H           -2.758208694985     1.542141796724     0.000514908484     1.007825032230
         H           -2.663879694985     0.271470796724     1.253129908484     1.007825032230
         H           -3.498370694985    -0.031076203276    -0.297255091516     1.007825032230

  Basis Set: AUG-CC-PVTZ
    Blend: AUG-CC-PVTZ
  Basis Set: (AUG-CC-PVTZ AUX)
    Blend: AUG-CC-PVTZ-JKFIT
	 Reference Energy          =    -250.2631423696782917 [Eh]
	 Singles Energy            =      -0.0000000000000000 [Eh]
	 Same-Spin Energy          =      -0.2618675257296045 [Eh]
	 Opposite-Spin Energy      =      -0.9357048788622468 [Eh]
	 Correlation Energy        =      -1.1975724045918512 [Eh]
	 Total Energy              =    -251.4607147742701443 [Eh]

	 ================> DF-SCS-MP2 Energies <==================
	-----------------------------------------------------------
	 SCS Same-Spin Scale       =       0.3333333333333333 [-]
	 SCS Opposite-Spin Scale   =       1.2000000000000000 [-]
	 SCS Same-Spin Energy      =      -0.0872891752432015 [Eh]
	 SCS Opposite-Spin Energy  =      -1.1228458546346962 [Eh]
	 SCS Correlation Energy    =      -1.2101350298778977 [Eh]
	 SCS Total Energy          =    -251.4732773995561956 [Eh]
	-----------------------------------------------------------

  Dipole Moment: [D]
     X:     0.4153      Y:    -0.3402      Z:     1.3863     Total:     1.4866

*** Psi4 exiting successfully. Buy a developer a beer!
