                               Psi4 1.3.2 release

  ==> Input File <==

--------------------------------------------------------------------------
#psi4
#
memory 32 gb

molecule  {
0 1
  N       -1.4514230    -0.0014080    -0.4975550
  C        1.9178760    -0.2820330     0.3003480
  C        0.7301990    -1.0539890    -0.2910100
  C        1.9133330     1.1918710    -0.0951930
  C       -0.5008426    -0.5762817     0.1402734
  C       -2.6734760     0.4500620     0.1549430
  H        1.9034540    -0.3751150     1.3937850
  H        2.8483830    -0.7529800    -0.0365760
  H        0.7089260    -0.9492610    -1.3805420
  H        0.8357330    -2.1215800    -0.0558240
  H        1.9489790     1.2991200    -1.1835390
  H        1.0073910     1.6938590     0.2549320
  H        2.7765220     1.7153350     0.3260680
  H       -0.7349260    -0.6910300     1.3363860
  H       -2.7870910     1.5245690    -0.0148120
  H       -2.6927620     0.2538980     1.2378030
  H       -3.5272530    -0.0486490    -0.3125820
units angstrom
no_reorient  #important for SAPT in psi4, default
symmetry c1  #important for SAPT in psi4, default
}

set PROPERTIES_ORIGIN ["COM"]
properties('MP2/aug-cc-pvtz', properties = ['dipole'])
--------------------------------------------------------------------------

    Molecular point group: c1
  Charge       = 0
  Multiplicity = 1
  Basis Set: AUG-CC-PVTZ
    Blend: AUG-CC-PVTZ
  Basis Set: (AUG-CC-PVTZ AUX)
    Blend: AUG-CC-PVTZ-JKFIT

    Orbital Energies [Eh]
    ---------------------

    Doubly Occupied:

       1A    -15.552470     2A    -11.279847     3A    -11.245998
       4A    -11.232014     5A    -11.224708     6A    -11.213860
       7A     -1.217217     8A     -1.085913     9A     -0.986874
      10A     -0.917794    11A     -0.827003    12A     -0.734954
      13A     -0.648420    14A     -0.639433    15A     -0.612308
      16A     -0.586810    17A     -0.579139    18A     -0.551137
      19A     -0.514259    20A     -0.498668    21A     -0.490186
      22A     -0.476805    23A     -0.391898    24A     -0.383414

  @DF-RHF Final Energy:  -250.24198845484005

   => Energetics <=

    Nuclear Repulsion Energy =            236.3852485029631225
    One-Electron Energy =                -805.4722162401923242
    Two-Electron Energy =                 318.8449792823891471
    Total Energy =                       -250.2419884548400546
  Basis Set: (AUG-CC-PVTZ AUX)
    Blend: AUG-CC-PVTZ-RI
    Molecular point group: c1

    Geometry (in Angstrom), charge = 0, multiplicity = 1:

       Center              X                  Y                   Z               Mass
    ------------   -----------------  -----------------  -----------------  -----------------
         N           -1.435274569129     0.018616695184    -0.463736155202    14.003074004430
         C            1.934024430871    -0.262008304816     0.334166844798    12.000000000000
         C            0.746347430871    -1.033964304816    -0.257191155202    12.000000000000
         C            1.929481430871     1.211895695184    -0.061374155202    12.000000000000
         C           -0.484694169129    -0.556257004816     0.174092244798    12.000000000000
         C           -2.657327569129     0.470086695184     0.188761844798    12.000000000000
         H            1.919602430871    -0.355090304816     1.427603844798     1.007825032230
         H            2.864531430871    -0.732955304816    -0.002757155202     1.007825032230
         H            0.725074430871    -0.929236304816    -1.346723155202     1.007825032230
         H            0.851881430871    -2.101555304816    -0.022005155202     1.007825032230
         H            1.965127430871     1.319144695184    -1.149720155202     1.007825032230
         H            1.023539430871     1.713883695184     0.288750844798     1.007825032230
         H            2.792670430871     1.735359695184     0.359886844798     1.007825032230
         H           -0.718777569129    -0.671005304816     1.370204844798     1.007825032230
         H           -2.770942569129     1.544593695184     0.019006844798     1.007825032230
         H           -2.676613569129     0.273922695184     1.271621844798     1.007825032230
         H           -3.511104569129    -0.028624304816    -0.278763155202     1.007825032230

  Basis Set: AUG-CC-PVTZ
    Blend: AUG-CC-PVTZ
  Basis Set: (AUG-CC-PVTZ AUX)
    Blend: AUG-CC-PVTZ-JKFIT
	 Reference Energy          =    -250.2419884548400546 [Eh]
	 Singles Energy            =      -0.0000000000000000 [Eh]
	 Same-Spin Energy          =      -0.2636242345010676 [Eh]
	 Opposite-Spin Energy      =      -0.9378857922159336 [Eh]
	 Correlation Energy        =      -1.2015100267170014 [Eh]
	 Total Energy              =    -251.4434984815570431 [Eh]

	 ================> DF-SCS-MP2 Energies <==================
	-----------------------------------------------------------
	 SCS Same-Spin Scale       =       0.3333333333333333 [-]
	 SCS Opposite-Spin Scale   =       1.2000000000000000 [-]
	 SCS Same-Spin Energy      =      -0.0878747448336892 [Eh]
	 SCS Opposite-Spin Energy  =      -1.1254629506591203 [Eh]
	 SCS Correlation Energy    =      -1.2133376954928095 [Eh]
	 SCS Total Energy          =    -251.4553261503328656 [Eh]
	-----------------------------------------------------------

  Dipole Moment: [D]
     X:     0.6410      Y:    -0.3362      Z:     1.1455     Total:     1.3550

*** Psi4 exiting successfully. Buy a developer a beer!
