                               Psi4 1.3.2 release

  ==> Input File <==

--------------------------------------------------------------------------
#psi4
#
memory 32 gb

molecule  {
0 1
  N       -1.5272410     0.0108050    -0.3876432
  C        1.9178760    -0.2820330     0.3003480
  C        0.7301990    -1.0539890    -0.2910100
  C        1.9133330     1.1918710    -0.0951930
  C       -0.5758300    -0.5622950     0.2505430
  C       -2.6734760     0.4500620     0.1549430
  H        1.9034540    -0.3751150     1.3937850
  H        2.8483830    -0.7529800    -0.0365760
  H        0.7089260    -0.9492610    -1.3805420
  H        0.8357330    -2.1215800    -0.0558240
  H        1.9489790     1.2991200    -1.1835390
  H        1.0073910     1.6938590     0.2549320
  H        2.7765220     1.7153350     0.3260680
  H       -0.7349260    -0.6910300     1.3363860
  H       -2.7870910     1.5245690    -0.0148120
  H       -2.6927620     0.2538980     1.2378030
  H       -3.5272530    -0.0486490    -0.3125820
units angstrom
no_reorient  #important for SAPT in psi4, default
symmetry c1  #important for SAPT in psi4, default
}

set PROPERTIES_ORIGIN ["COM"]
properties('MP2/aug-cc-pvtz', properties = ['dipole'])
--------------------------------------------------------------------------

    Molecular point group: c1
  Charge       = 0
  Multiplicity = 1
  Basis Set: AUG-CC-PVTZ
    Blend: AUG-CC-PVTZ
  Basis Set: (AUG-CC-PVTZ AUX)
    Blend: AUG-CC-PVTZ-JKFIT

    Orbital Energies [Eh]
    ---------------------

    Doubly Occupied:

       1A    -15.544069     2A    -11.275202     3A    -11.235992
       4A    -11.230944     5A    -11.229200     6A    -11.212842
       7A     -1.239118     8A     -1.077498     9A     -0.984604
      10A     -0.916726    11A     -0.816742    12A     -0.755218
      13A     -0.657396    14A     -0.640646    15A     -0.614329
      16A     -0.593191    17A     -0.588704    18A     -0.552688
      19A     -0.520039    20A     -0.491978    21A     -0.485688
      22A     -0.477370    23A     -0.388107    24A     -0.379924

  @DF-RHF Final Energy:  -250.25286334919093

   => Energetics <=

    Nuclear Repulsion Energy =            236.4907729755662729
    One-Electron Energy =                -805.6708486444947539
    Two-Electron Energy =                 318.9272123197375208
    Total Energy =                       -250.2528633491909318
  Basis Set: (AUG-CC-PVTZ AUX)
    Blend: AUG-CC-PVTZ-RI
    Molecular point group: c1

    Geometry (in Angstrom), charge = 0, multiplicity = 1:

       Center              X                  Y                   Z               Mass
    ------------   -----------------  -----------------  -----------------  -----------------
         N           -1.488039878161     0.026847284437    -0.387463641655    14.003074004430
         C            1.957077121839    -0.265990715563     0.300527558345    12.000000000000
         C            0.769400121839    -1.037946715563    -0.290830441655    12.000000000000
         C            1.952534121839     1.207913284437    -0.095013441655    12.000000000000
         C           -0.536628878161    -0.546252715563     0.250722558345    12.000000000000
         C           -2.634274878161     0.466104284437     0.155122558345    12.000000000000
         H            1.942655121839    -0.359072715563     1.393964558345     1.007825032230
         H            2.887584121839    -0.736937715563    -0.036396441655     1.007825032230
         H            0.748127121839    -0.933218715563    -1.380362441655     1.007825032230
         H            0.874934121839    -2.105537715563    -0.055644441655     1.007825032230
         H            1.988180121839     1.315162284437    -1.183359441655     1.007825032230
         H            1.046592121839     1.709901284437     0.255111558345     1.007825032230
         H            2.815723121839     1.731377284437     0.326247558345     1.007825032230
         H           -0.695724878161    -0.674987715563     1.336565558345     1.007825032230
         H           -2.747889878161     1.540611284437    -0.014632441655     1.007825032230
         H           -2.653560878161     0.269940284437     1.237982558345     1.007825032230
         H           -3.488051878161    -0.032606715563    -0.312402441655     1.007825032230

  Basis Set: AUG-CC-PVTZ
    Blend: AUG-CC-PVTZ
  Basis Set: (AUG-CC-PVTZ AUX)
    Blend: AUG-CC-PVTZ-JKFIT
	 Reference Energy          =    -250.2528633491909318 [Eh]
	 Singles Energy            =      -0.0000000000000000 [Eh]
	 Same-Spin Energy          =      -0.2625497600756355 [Eh]
	 Opposite-Spin Energy      =      -0.9349693379267425 [Eh]
	 Correlation Energy        =      -1.1975190980023780 [Eh]
	 Total Energy              =    -251.4503824471933058 [Eh]

	 ================> DF-SCS-MP2 Energies <==================
	-----------------------------------------------------------
	 SCS Same-Spin Scale       =       0.3333333333333333 [-]
	 SCS Opposite-Spin Scale   =       1.2000000000000000 [-]
	 SCS Same-Spin Energy      =      -0.0875165866918785 [Eh]
	 SCS Opposite-Spin Energy  =      -1.1219632055120909 [Eh]
	 SCS Correlation Energy    =      -1.2094797922039695 [Eh]
	 SCS Total Energy          =    -251.4623431413949106 [Eh]
	-----------------------------------------------------------

  Dipole Moment: [D]
     X:     0.5713      Y:    -0.3304      Z:     1.0896     Total:     1.2739

*** Psi4 exiting successfully. Buy a developer a beer!
