                               Psi4 1.3.2 release

  ==> Input File <==

--------------------------------------------------------------------------
#psi4
#
memory 32 gb

molecule  {
0 1
  N       -1.4243947    -0.0077455    -0.5326050
  C        1.9178760    -0.2820330     0.3003480
  C        0.7301990    -1.0539890    -0.2910100
  C        1.9133330     1.1918710    -0.0951930
  C       -0.5758300    -0.5622950     0.2505430
  C       -2.6734760     0.4500620     0.1549430
  H        1.9034540    -0.3751150     1.3937850
  H        2.8483830    -0.7529800    -0.0365760
  H        0.7089260    -0.9492610    -1.3805420
  H        0.8357330    -2.1215800    -0.0558240
  H        1.9489790     1.2991200    -1.1835390
  H        1.0073910     1.6938590     0.2549320
  H        2.7765220     1.7153350     0.3260680
  H       -0.7349260    -0.6910300     1.3363860
  H       -2.7870910     1.5245690    -0.0148120
  H       -2.6927620     0.2538980     1.2378030
  H       -3.5272530    -0.0486490    -0.3125820
units angstrom
no_reorient  #important for SAPT in psi4, default
symmetry c1  #important for SAPT in psi4, default
}

set PROPERTIES_ORIGIN ["COM"]
properties('MP2/aug-cc-pvtz', properties = ['dipole'])
--------------------------------------------------------------------------

    Molecular point group: c1
  Charge       = 0
  Multiplicity = 1
  Basis Set: AUG-CC-PVTZ
    Blend: AUG-CC-PVTZ
  Basis Set: (AUG-CC-PVTZ AUX)
    Blend: AUG-CC-PVTZ-JKFIT

    Orbital Energies [Eh]
    ---------------------

    Doubly Occupied:

       1A    -15.558451     2A    -11.272586     3A    -11.245004
       4A    -11.226244     5A    -11.223701     6A    -11.210898
       7A     -1.214896     8A     -1.068716     9A     -0.970199
      10A     -0.909200    11A     -0.815698    12A     -0.758478
      13A     -0.638153    14A     -0.631054    15A     -0.606556
      16A     -0.584858    17A     -0.575850    18A     -0.540360
      19A     -0.515284    20A     -0.490191    21A     -0.480067
      22A     -0.474780    23A     -0.405864    24A     -0.396969

  @DF-RHF Final Energy:  -250.26026561784207

   => Energetics <=

    Nuclear Repulsion Energy =            235.1347269011425851
    One-Electron Energy =                -803.1618681675037124
    Two-Electron Energy =                 317.7668756485190897
    Total Energy =                       -250.2602656178420375
  Basis Set: (AUG-CC-PVTZ AUX)
    Blend: AUG-CC-PVTZ-RI
    Molecular point group: c1

    Geometry (in Angstrom), charge = 0, multiplicity = 1:

       Center              X                  Y                   Z               Mass
    ------------   -----------------  -----------------  -----------------  -----------------
         N           -1.402118936575     0.011349629909    -0.508569158821    14.003074004430
         C            1.940151763425    -0.262937870091     0.324383841179    12.000000000000
         C            0.752474763425    -1.034893870091    -0.266974158821    12.000000000000
         C            1.935608763425     1.210966129909    -0.071157158821    12.000000000000
         C           -0.553554236575    -0.543199870091     0.274578841179    12.000000000000
         C           -2.651200236575     0.469157129909     0.178978841179    12.000000000000
         H            1.925729763425    -0.356019870091     1.417820841179     1.007825032230
         H            2.870658763425    -0.733884870091    -0.012540158821     1.007825032230
         H            0.731201763425    -0.930165870091    -1.356506158821     1.007825032230
         H            0.858008763425    -2.102484870091    -0.031788158821     1.007825032230
         H            1.971254763425     1.318215129909    -1.159503158821     1.007825032230
         H            1.029666763425     1.712954129909     0.278967841179     1.007825032230
         H            2.798797763425     1.734430129909     0.350103841179     1.007825032230
         H           -0.712650236575    -0.671934870091     1.360421841179     1.007825032230
         H           -2.764815236575     1.543664129909     0.009223841179     1.007825032230
         H           -2.670486236575     0.272993129909     1.261838841179     1.007825032230
         H           -3.504977236575    -0.029553870091    -0.288546158821     1.007825032230

  Basis Set: AUG-CC-PVTZ
    Blend: AUG-CC-PVTZ
  Basis Set: (AUG-CC-PVTZ AUX)
    Blend: AUG-CC-PVTZ-JKFIT
	 Reference Energy          =    -250.2602656178420659 [Eh]
	 Singles Energy            =      -0.0000000000000000 [Eh]
	 Same-Spin Energy          =      -0.2618690221172494 [Eh]
	 Opposite-Spin Energy      =      -0.9368624357203138 [Eh]
	 Correlation Energy        =      -1.1987314578375632 [Eh]
	 Total Energy              =    -251.4589970756796333 [Eh]

	 ================> DF-SCS-MP2 Energies <==================
	-----------------------------------------------------------
	 SCS Same-Spin Scale       =       0.3333333333333333 [-]
	 SCS Opposite-Spin Scale   =       1.2000000000000000 [-]
	 SCS Same-Spin Energy      =      -0.0872896740390831 [Eh]
	 SCS Opposite-Spin Energy  =      -1.1242349228643764 [Eh]
	 SCS Correlation Energy    =      -1.2115245969034596 [Eh]
	 SCS Total Energy          =    -251.4717902147455391 [Eh]
	-----------------------------------------------------------

  Dipole Moment: [D]
     X:     0.3374      Y:    -0.3408      Z:     1.5212     Total:     1.5950

*** Psi4 exiting successfully. Buy a developer a beer!
