                               Psi4 1.3.2 release

  ==> Input File <==

--------------------------------------------------------------------------
#psi4
#
memory 32 gb

molecule  {
0 1
  N       -1.4313794     0.1430555    -0.5421476
  C        1.9178760    -0.2820330     0.3003480
  C        0.7301990    -1.0539890    -0.2910100
  C        1.9133330     1.1918710    -0.0951930
  C       -0.5758300    -0.5622950     0.2505430
  C       -2.6734760     0.4500620     0.1549430
  H        1.9034540    -0.3751150     1.3937850
  H        2.8483830    -0.7529800    -0.0365760
  H        0.7089260    -0.9492610    -1.3805420
  H        0.8357330    -2.1215800    -0.0558240
  H        1.9489790     1.2991200    -1.1835390
  H        1.0073910     1.6938590     0.2549320
  H        2.7765220     1.7153350     0.3260680
  H       -0.7349260    -0.6910300     1.3363860
  H       -2.7870910     1.5245690    -0.0148120
  H       -2.6927620     0.2538980     1.2378030
  H       -3.5272530    -0.0486490    -0.3125820
units angstrom
no_reorient  #important for SAPT in psi4, default
symmetry c1  #important for SAPT in psi4, default
}

set PROPERTIES_ORIGIN ["COM"]
properties('MP2/aug-cc-pvtz', properties = ['dipole'])
--------------------------------------------------------------------------

    Molecular point group: c1
  Charge       = 0
  Multiplicity = 1
  Basis Set: AUG-CC-PVTZ
    Blend: AUG-CC-PVTZ
  Basis Set: (AUG-CC-PVTZ AUX)
    Blend: AUG-CC-PVTZ-JKFIT

    Orbital Energies [Eh]
    ---------------------

    Doubly Occupied:

       1A    -15.568335     2A    -11.287556     3A    -11.239547
       4A    -11.228753     5A    -11.228059     6A    -11.210615
       7A     -1.196154     8A     -1.072453     9A     -0.972109
      10A     -0.900768    11A     -0.817237    12A     -0.763953
      13A     -0.638133    14A     -0.630682    15A     -0.605286
      16A     -0.585482    17A     -0.573809    18A     -0.539721
      19A     -0.513766    20A     -0.490128    21A     -0.479161
      22A     -0.472167    23A     -0.420273    24A     -0.373496

  @DF-RHF Final Energy:  -250.24276126418940

   => Energetics <=

    Nuclear Repulsion Energy =            234.2510439128770656
    One-Electron Energy =                -801.3723243063574273
    Two-Electron Energy =                 316.8785191292909644
    Total Energy =                       -250.2427612641893688
  Basis Set: (AUG-CC-PVTZ AUX)
    Blend: AUG-CC-PVTZ-RI
    Molecular point group: c1

    Geometry (in Angstrom), charge = 0, multiplicity = 1:

       Center              X                  Y                   Z               Mass
    ------------   -----------------  -----------------  -----------------  -----------------
         N           -1.407954168379     0.137333393177    -0.516541338445    14.003074004430
         C            1.941301231621    -0.287755106823     0.325954261555    12.000000000000
         C            0.753624231621    -1.059711106823    -0.265403738445    12.000000000000
         C            1.936758231621     1.186148893177    -0.069586738445    12.000000000000
         C           -0.552404768379    -0.568017106823     0.276149261555    12.000000000000
         C           -2.650050768379     0.444339893177     0.180549261555    12.000000000000
         H            1.926879231621    -0.380837106823     1.419391261555     1.007825032230
         H            2.871808231621    -0.758702106823    -0.010969738445     1.007825032230
         H            0.732351231621    -0.954983106823    -1.354935738445     1.007825032230
         H            0.859158231621    -2.127302106823    -0.030217738445     1.007825032230
         H            1.972404231621     1.293397893177    -1.157932738445     1.007825032230
         H            1.030816231621     1.688136893177     0.280538261555     1.007825032230
         H            2.799947231621     1.709612893177     0.351674261555     1.007825032230
         H           -0.711500768379    -0.696752106823     1.361992261555     1.007825032230
         H           -2.763665768379     1.518846893177     0.010794261555     1.007825032230
         H           -2.669336768379     0.248175893177     1.263409261555     1.007825032230
         H           -3.503827768379    -0.054371106823    -0.286975738445     1.007825032230

  Basis Set: AUG-CC-PVTZ
    Blend: AUG-CC-PVTZ
  Basis Set: (AUG-CC-PVTZ AUX)
    Blend: AUG-CC-PVTZ-JKFIT
	 Reference Energy          =    -250.2427612641893973 [Eh]
	 Singles Energy            =      -0.0000000000000000 [Eh]
	 Same-Spin Energy          =      -0.2640860613091343 [Eh]
	 Opposite-Spin Energy      =      -0.9419039115218047 [Eh]
	 Correlation Energy        =      -1.2059899728309391 [Eh]
	 Total Energy              =    -251.4487512370203319 [Eh]

	 ================> DF-SCS-MP2 Energies <==================
	-----------------------------------------------------------
	 SCS Same-Spin Scale       =       0.3333333333333333 [-]
	 SCS Opposite-Spin Scale   =       1.2000000000000000 [-]
	 SCS Same-Spin Energy      =      -0.0880286871030447 [Eh]
	 SCS Opposite-Spin Energy  =      -1.1302846938261657 [Eh]
	 SCS Correlation Energy    =      -1.2183133809292104 [Eh]
	 SCS Total Energy          =    -251.4610746451186003 [Eh]
	-----------------------------------------------------------

  Dipole Moment: [D]
     X:     0.4147      Y:    -0.6017      Z:     1.5329     Total:     1.6982

*** Psi4 exiting successfully. Buy a developer a beer!
