                               Psi4 1.4a3.dev225

  ==> Input File <==

--------------------------------------------------------------------------
#psi4
#
memory 32 gb

molecule  {
0 1
  N       -1.4513250    -0.0010140    -0.4975640
  C        1.9178130    -0.2820920     0.3002790
  C        0.7301270    -1.0540560    -0.2910000
  C        1.9134960     1.1918760    -0.0950710
  C       -0.5896550    -0.5536073     0.2387503
  C       -2.6734840     0.4500370     0.1549490
  H        1.9036020    -0.3753030     1.3937060
  H        2.8482930    -0.7529860    -0.0368320
  H        0.7089100    -0.9495730    -1.3805570
  H        0.8355610    -2.1216230    -0.0556080
  H        1.9497200     1.2992090    -1.1833850
  H        1.0073830     1.6938500     0.2545960
  H        2.7764960     1.7152480     0.3266950
  H       -0.7352490    -0.6914900     1.3362220
  H       -2.7876940     1.5244090    -0.0151890
  H       -2.6923780     0.2543160     1.2378980
  H       -3.5271550    -0.0493170    -0.3121090
units angstrom
no_reorient  #important for SAPT in psi4, default
symmetry c1  #important for SAPT in psi4, default
}

set PROPERTIES_ORIGIN ["COM"]
properties('MP2/aug-cc-pvtz', properties = ['dipole'])
--------------------------------------------------------------------------

    Molecular point group: c1
  Charge       = 0
  Multiplicity = 1
  Basis Set: AUG-CC-PVTZ
    Blend: AUG-CC-PVTZ
  Basis Set: (AUG-CC-PVTZ AUX)
    Blend: AUG-CC-PVTZ-JKFIT

    Orbital Energies [Eh]
    ---------------------

    Doubly Occupied:

       1A    -15.553003     2A    -11.271307     3A    -11.243498
       4A    -11.226648     5A    -11.225161     6A    -11.211220
       7A     -1.227277     8A     -1.069585     9A     -0.972740
      10A     -0.912654    11A     -0.815416    12A     -0.754453
      13A     -0.643879    14A     -0.632773    15A     -0.608283
      16A     -0.587428    17A     -0.580021    18A     -0.543707
      19A     -0.514509    20A     -0.490144    21A     -0.481982
      22A     -0.474426    23A     -0.401067    24A     -0.399516

  @DF-RHF Final Energy:  -250.26391601844895

   => Energetics <=

    Nuclear Repulsion Energy =            235.6026393344185692
    One-Electron Energy =                -804.0517176065314970
    Two-Electron Energy =                 318.1851622536640321
    Total Energy =                       -250.2639160184489242
  Basis Set: (AUG-CC-PVTZ AUX)
    Blend: AUG-CC-PVTZ-RI
    Molecular point group: c1

    Geometry (in Angstrom), charge = 0, multiplicity = 1:

       Center              X                  Y                   Z               Mass
    ------------   -----------------  -----------------  -----------------  -----------------
         N           -1.422672008136     0.015785597099    -0.477645463598    14.003074004430
         C            1.946465991864    -0.265292402901     0.320197536402    12.000000000000
         C            0.758779991864    -1.037256402901    -0.271081463598    12.000000000000
         C            1.942148991864     1.208675597099    -0.075152463598    12.000000000000
         C           -0.561002008136    -0.536807702901     0.258668836402    12.000000000000
         C           -2.644831008136     0.466836597099     0.174867536402    12.000000000000
         H            1.932254991864    -0.358503402901     1.413624536402     1.007825032230
         H            2.876945991864    -0.736186402901    -0.016913463598     1.007825032230
         H            0.737562991864    -0.932773402901    -1.360638463598     1.007825032230
         H            0.864213991864    -2.104823402901    -0.035689463598     1.007825032230
         H            1.978372991864     1.316008597099    -1.163466463598     1.007825032230
         H            1.036035991864     1.710649597099     0.274514536402     1.007825032230
         H            2.805148991864     1.732047597099     0.346613536402     1.007825032230
         H           -0.706596008136    -0.674690402901     1.356140536402     1.007825032230
         H           -2.759041008136     1.541208597099     0.004729536402     1.007825032230
         H           -2.663725008136     0.271115597099     1.257816536402     1.007825032230
         H           -3.498502008136    -0.032517402901    -0.292190463598     1.007825032230

  Basis Set: AUG-CC-PVTZ
    Blend: AUG-CC-PVTZ
  Basis Set: (AUG-CC-PVTZ AUX)
    Blend: AUG-CC-PVTZ-JKFIT
	 Reference Energy          =    -250.2639160184489526 [Eh]
	 Singles Energy            =      -0.0000000000000000 [Eh]
	 Same-Spin Energy          =      -0.2614228727622655 [Eh]
	 Opposite-Spin Energy      =      -0.9350640495439257 [Eh]
	 Correlation Energy        =      -1.1964869223061911 [Eh]
	 Total Energy              =    -251.4604029407551309 [Eh]

	 ================> DF-SCS-MP2 Energies <==================
	-----------------------------------------------------------
	 SCS Same-Spin Scale       =       0.3333333333333333 [-]
	 SCS Opposite-Spin Scale   =       1.2000000000000000 [-]
	 SCS Same-Spin Energy      =      -0.0871409575874218 [Eh]
	 SCS Opposite-Spin Energy  =      -1.1220768594527109 [Eh]
	 SCS Correlation Energy    =      -1.2092178170401326 [Eh]
	 SCS Total Energy          =    -251.4731338354890795 [Eh]
	-----------------------------------------------------------

  Dipole Moment: [D]
     X:     0.3491      Y:    -0.3208      Z:     1.4056     Total:     1.4834

*** Psi4 exiting successfully. Buy a developer a beer!
