                               Psi4 1.3.2 release

  ==> Input File <==

--------------------------------------------------------------------------
#psi4
#
memory 32 gb

molecule  {
0 1
  N       -1.4848557    -0.1409251    -0.4458135
  C        1.9178760    -0.2820330     0.3003480
  C        0.7301990    -1.0539890    -0.2910100
  C        1.9133330     1.1918710    -0.0951930
  C       -0.5758300    -0.5622950     0.2505430
  C       -2.6734760     0.4500620     0.1549430
  H        1.9034540    -0.3751150     1.3937850
  H        2.8483830    -0.7529800    -0.0365760
  H        0.7089260    -0.9492610    -1.3805420
  H        0.8357330    -2.1215800    -0.0558240
  H        1.9489790     1.2991200    -1.1835390
  H        1.0073910     1.6938590     0.2549320
  H        2.7765220     1.7153350     0.3260680
  H       -0.7349260    -0.6910300     1.3363860
  H       -2.7870910     1.5245690    -0.0148120
  H       -2.6927620     0.2538980     1.2378030
  H       -3.5272530    -0.0486490    -0.3125820
units angstrom
no_reorient  #important for SAPT in psi4, default
symmetry c1  #important for SAPT in psi4, default
}

set PROPERTIES_ORIGIN ["COM"]
properties('MP2/aug-cc-pvtz', properties = ['dipole'])
--------------------------------------------------------------------------

    Molecular point group: c1
  Charge       = 0
  Multiplicity = 1
  Basis Set: AUG-CC-PVTZ
    Blend: AUG-CC-PVTZ
  Basis Set: (AUG-CC-PVTZ AUX)
    Blend: AUG-CC-PVTZ-JKFIT

    Orbital Energies [Eh]
    ---------------------

    Doubly Occupied:

       1A    -15.542815     2A    -11.262064     3A    -11.246068
       4A    -11.226415     5A    -11.223360     6A    -11.212391
       7A     -1.240100     8A     -1.070205     9A     -0.975915
      10A     -0.917939    11A     -0.815336    12A     -0.752054
      13A     -0.649115    14A     -0.635477    15A     -0.611042
      16A     -0.588636    17A     -0.580097    18A     -0.546423
      19A     -0.519326    20A     -0.491804    21A     -0.483948
      22A     -0.475788    23A     -0.413213    24A     -0.381764

  @DF-RHF Final Energy:  -250.26044899267228

   => Energetics <=

    Nuclear Repulsion Energy =            236.3012832475754976
    One-Electron Energy =                -805.4008712682259556
    Two-Electron Energy =                 318.8391390279782058
    Total Energy =                       -250.2604489926722522
  Basis Set: (AUG-CC-PVTZ AUX)
    Blend: AUG-CC-PVTZ-RI
    Molecular point group: c1

    Geometry (in Angstrom), charge = 0, multiplicity = 1:

       Center              X                  Y                   Z               Mass
    ------------   -----------------  -----------------  -----------------  -----------------
         N           -1.452629903418    -0.099912677361    -0.436060887724    14.003074004430
         C            1.950101796582    -0.241020577361     0.310100612276    12.000000000000
         C            0.762424796582    -1.012976577361    -0.281257387724    12.000000000000
         C            1.945558796582     1.232883422639    -0.085440387724    12.000000000000
         C           -0.543604203418    -0.521282577361     0.260295612276    12.000000000000
         C           -2.641250203418     0.491074422639     0.164695612276    12.000000000000
         H            1.935679796582    -0.334102577361     1.403537612276     1.007825032230
         H            2.880608796582    -0.711967577361    -0.026823387724     1.007825032230
         H            0.741151796582    -0.908248577361    -1.370789387724     1.007825032230
         H            0.867958796582    -2.080567577361    -0.046071387724     1.007825032230
         H            1.981204796582     1.340132422639    -1.173786387724     1.007825032230
         H            1.039616796582     1.734871422639     0.264684612276     1.007825032230
         H            2.808747796582     1.756347422639     0.335820612276     1.007825032230
         H           -0.702700203418    -0.650017577361     1.346138612276     1.007825032230
         H           -2.754865203418     1.565581422639    -0.005059387724     1.007825032230
         H           -2.660536203418     0.294910422639     1.247555612276     1.007825032230
         H           -3.495027203418    -0.007636577361    -0.302829387724     1.007825032230

  Basis Set: AUG-CC-PVTZ
    Blend: AUG-CC-PVTZ
  Basis Set: (AUG-CC-PVTZ AUX)
    Blend: AUG-CC-PVTZ-JKFIT
	 Reference Energy          =    -250.2604489926722806 [Eh]
	 Singles Energy            =      -0.0000000000000000 [Eh]
	 Same-Spin Energy          =      -0.2607845476775807 [Eh]
	 Opposite-Spin Energy      =      -0.9328623776673692 [Eh]
	 Correlation Energy        =      -1.1936469253449500 [Eh]
	 Total Energy              =    -251.4540959180172308 [Eh]

	 ================> DF-SCS-MP2 Energies <==================
	-----------------------------------------------------------
	 SCS Same-Spin Scale       =       0.3333333333333333 [-]
	 SCS Opposite-Spin Scale   =       1.2000000000000000 [-]
	 SCS Same-Spin Energy      =      -0.0869281825591936 [Eh]
	 SCS Opposite-Spin Energy  =      -1.1194348532008431 [Eh]
	 SCS Correlation Energy    =      -1.2063630357600368 [Eh]
	 SCS Total Energy          =    -251.4668120284323152 [Eh]
	-----------------------------------------------------------

  Dipole Moment: [D]
     X:     0.3886      Y:    -0.0716      Z:     1.2874     Total:     1.3467

*** Psi4 exiting successfully. Buy a developer a beer!
