                               Psi4 1.3.2 release

  ==> Input File <==

--------------------------------------------------------------------------
#psi4
#
memory 32 gb

molecule  {
0 1
  N       -1.3954924    -0.0129750    -0.5663468
  C        1.9178760    -0.2820330     0.3003480
  C        0.7301990    -1.0539890    -0.2910100
  C        1.9133330     1.1918710    -0.0951930
  C       -0.5758300    -0.5622950     0.2505430
  C       -2.6734760     0.4500620     0.1549430
  H        1.9034540    -0.3751150     1.3937850
  H        2.8483830    -0.7529800    -0.0365760
  H        0.7089260    -0.9492610    -1.3805420
  H        0.8357330    -2.1215800    -0.0558240
  H        1.9489790     1.2991200    -1.1835390
  H        1.0073910     1.6938590     0.2549320
  H        2.7765220     1.7153350     0.3260680
  H       -0.7349260    -0.6910300     1.3363860
  H       -2.7870910     1.5245690    -0.0148120
  H       -2.6927620     0.2538980     1.2378030
  H       -3.5272530    -0.0486490    -0.3125820
units angstrom
no_reorient  #important for SAPT in psi4, default
symmetry c1  #important for SAPT in psi4, default
}

set PROPERTIES_ORIGIN ["COM"]
properties('MP2/aug-cc-pvtz', properties = ['dipole'])
--------------------------------------------------------------------------

    Molecular point group: c1
  Charge       = 0
  Multiplicity = 1
  Basis Set: AUG-CC-PVTZ
    Blend: AUG-CC-PVTZ
  Basis Set: (AUG-CC-PVTZ AUX)
    Blend: AUG-CC-PVTZ-JKFIT

    Orbital Energies [Eh]
    ---------------------

    Doubly Occupied:

       1A    -15.562086     2A    -11.272533     3A    -11.247178
       4A    -11.225499     5A    -11.222061     6A    -11.210464
       7A     -1.211018     8A     -1.066628     9A     -0.967011
      10A     -0.908024    11A     -0.815496    12A     -0.759449
      13A     -0.634356    14A     -0.628750    15A     -0.605086
      16A     -0.582961    17A     -0.573022    18A     -0.538111
      19A     -0.513908    20A     -0.489894    21A     -0.479554
      22A     -0.474281    23A     -0.407962    24A     -0.398952

  @DF-RHF Final Energy:  -250.25524202688558

   => Energetics <=

    Nuclear Repulsion Energy =            234.8575646294466992
    One-Electron Energy =                -802.6370443300710349
    Two-Electron Energy =                 317.5242376737386962
    Total Energy =                       -250.2552420268855826
  Basis Set: (AUG-CC-PVTZ AUX)
    Blend: AUG-CC-PVTZ-RI
    Molecular point group: c1

    Geometry (in Angstrom), charge = 0, multiplicity = 1:

       Center              X                  Y                   Z               Mass
    ------------   -----------------  -----------------  -----------------  -----------------
         N           -1.377973072017     0.006980745817    -0.536758089554    14.003074004430
         C            1.935395327983    -0.262077254183     0.329936710446    12.000000000000
         C            0.747718327983    -1.034033254183    -0.261421289554    12.000000000000
         C            1.930852327983     1.211826745817    -0.065604289554    12.000000000000
         C           -0.558310672017    -0.542339254183     0.280131710446    12.000000000000
         C           -2.655956672017     0.470017745817     0.184531710446    12.000000000000
         H            1.920973327983    -0.355159254183     1.423373710446     1.007825032230
         H            2.865902327983    -0.733024254183    -0.006987289554     1.007825032230
         H            0.726445327983    -0.929305254183    -1.350953289554     1.007825032230
         H            0.853252327983    -2.101624254183    -0.026235289554     1.007825032230
         H            1.966498327983     1.319075745817    -1.153950289554     1.007825032230
         H            1.024910327983     1.713814745817     0.284520710446     1.007825032230
         H            2.794041327983     1.735290745817     0.355656710446     1.007825032230
         H           -0.717406672017    -0.671074254183     1.365974710446     1.007825032230
         H           -2.769571672017     1.544524745817     0.014776710446     1.007825032230
         H           -2.675242672017     0.273853745817     1.267391710446     1.007825032230
         H           -3.509733672017    -0.028693254183    -0.282993289554     1.007825032230

  Basis Set: AUG-CC-PVTZ
    Blend: AUG-CC-PVTZ
  Basis Set: (AUG-CC-PVTZ AUX)
    Blend: AUG-CC-PVTZ-JKFIT
	 Reference Energy          =    -250.2552420268855826 [Eh]
	 Singles Energy            =      -0.0000000000000000 [Eh]
	 Same-Spin Energy          =      -0.2620343989569053 [Eh]
	 Opposite-Spin Energy      =      -0.9379246212792089 [Eh]
	 Correlation Energy        =      -1.1999590202361143 [Eh]
	 Total Energy              =    -251.4552010471217045 [Eh]

	 ================> DF-SCS-MP2 Energies <==================
	-----------------------------------------------------------
	 SCS Same-Spin Scale       =       0.3333333333333333 [-]
	 SCS Opposite-Spin Scale   =       1.2000000000000000 [-]
	 SCS Same-Spin Energy      =      -0.0873447996523018 [Eh]
	 SCS Opposite-Spin Energy  =      -1.1255095455350508 [Eh]
	 SCS Correlation Energy    =      -1.2128543451873526 [Eh]
	 SCS Total Energy          =    -251.4680963720729210 [Eh]
	-----------------------------------------------------------

  Dipole Moment: [D]
     X:     0.2898      Y:    -0.3433      Z:     1.5948     Total:     1.6569

*** Psi4 exiting successfully. Buy a developer a beer!
