                               Psi4 1.3.2 release

  ==> Input File <==

--------------------------------------------------------------------------
#psi4
#
memory 32 gb

molecule  {
0 1
  N       -1.3963325    -0.0147586    -0.5667008
  C        1.9178760    -0.2820330     0.3003480
  C        0.7301990    -1.0539890    -0.2910100
  C        1.9133330     1.1918710    -0.0951930
  C       -0.5758300    -0.5622950     0.2505430
  C       -2.6734760     0.4500620     0.1549430
  H        1.9034540    -0.3751150     1.3937850
  H        2.8483830    -0.7529800    -0.0365760
  H        0.7089260    -0.9492610    -1.3805420
  H        0.8357330    -2.1215800    -0.0558240
  H        1.9489790     1.2991200    -1.1835390
  H        1.0073910     1.6938590     0.2549320
  H        2.7765220     1.7153350     0.3260680
  H       -0.7349260    -0.6910300     1.3363860
  H       -2.7870910     1.5245690    -0.0148120
  H       -2.6927620     0.2538980     1.2378030
  H       -3.5272530    -0.0486490    -0.3125820
units angstrom
no_reorient  #important for SAPT in psi4, default
symmetry c1  #important for SAPT in psi4, default
}

set PROPERTIES_ORIGIN ["COM"]
properties('MP2/aug-cc-pvtz', properties = ['dipole'])
--------------------------------------------------------------------------

    Molecular point group: c1
  Charge       = 0
  Multiplicity = 1
  Basis Set: AUG-CC-PVTZ
    Blend: AUG-CC-PVTZ
  Basis Set: (AUG-CC-PVTZ AUX)
    Blend: AUG-CC-PVTZ-JKFIT

    Orbital Energies [Eh]
    ---------------------

    Doubly Occupied:

       1A    -15.562086     2A    -11.272533     3A    -11.247177
       4A    -11.225507     5A    -11.222061     6A    -11.210486
       7A     -1.211014     8A     -1.066638     9A     -0.967018
      10A     -0.908024    11A     -0.815502    12A     -0.759453
      13A     -0.634351    14A     -0.628753    15A     -0.605090
      16A     -0.582969    17A     -0.573038    18A     -0.538117
      19A     -0.513917    20A     -0.489904    21A     -0.479557
      22A     -0.474288    23A     -0.407943    24A     -0.398970

  @DF-RHF Final Energy:  -250.25524504797832

   => Energetics <=

    Nuclear Repulsion Energy =            234.8521155512959808
    One-Electron Energy =                -802.6259247094725424
    Two-Electron Energy =                 317.5185641101983265
    Total Energy =                       -250.2552450479782920
  Basis Set: (AUG-CC-PVTZ AUX)
    Blend: AUG-CC-PVTZ-RI
    Molecular point group: c1

    Geometry (in Angstrom), charge = 0, multiplicity = 1:

       Center              X                  Y                   Z               Mass
    ------------   -----------------  -----------------  -----------------  -----------------
         N           -1.378674917227     0.005490671877    -0.537053831971    14.003074004430
         C            1.935533582773    -0.261783728123     0.329994968029    12.000000000000
         C            0.747856582773    -1.033739728123    -0.261363031971    12.000000000000
         C            1.930990582773     1.212120271877    -0.065546031971    12.000000000000
         C           -0.558172417227    -0.542045728123     0.280189968029    12.000000000000
         C           -2.655818417227     0.470311271877     0.184589968029    12.000000000000
         H            1.921111582773    -0.354865728123     1.423431968029     1.007825032230
         H            2.866040582773    -0.732730728123    -0.006929031971     1.007825032230
         H            0.726583582773    -0.929011728123    -1.350895031971     1.007825032230
         H            0.853390582773    -2.101330728123    -0.026177031971     1.007825032230
         H            1.966636582773     1.319369271877    -1.153892031971     1.007825032230
         H            1.025048582773     1.714108271877     0.284578968029     1.007825032230
         H            2.794179582773     1.735584271877     0.355714968029     1.007825032230
         H           -0.717268417227    -0.670780728123     1.366032968029     1.007825032230
         H           -2.769433417227     1.544818271877     0.014834968029     1.007825032230
         H           -2.675104417227     0.274147271877     1.267449968029     1.007825032230
         H           -3.509595417227    -0.028399728123    -0.282935031971     1.007825032230

  Basis Set: AUG-CC-PVTZ
    Blend: AUG-CC-PVTZ
  Basis Set: (AUG-CC-PVTZ AUX)
    Blend: AUG-CC-PVTZ-JKFIT
	 Reference Energy          =    -250.2552450479783204 [Eh]
	 Singles Energy            =      -0.0000000000000000 [Eh]
	 Same-Spin Energy          =      -0.2620327683110728 [Eh]
	 Opposite-Spin Energy      =      -0.9379228169990449 [Eh]
	 Correlation Energy        =      -1.1999555853101176 [Eh]
	 Total Energy              =    -251.4552006332884275 [Eh]

	 ================> DF-SCS-MP2 Energies <==================
	-----------------------------------------------------------
	 SCS Same-Spin Scale       =       0.3333333333333333 [-]
	 SCS Opposite-Spin Scale   =       1.2000000000000000 [-]
	 SCS Same-Spin Energy      =      -0.0873442561036909 [Eh]
	 SCS Opposite-Spin Energy  =      -1.1255073803988538 [Eh]
	 SCS Correlation Energy    =      -1.2128516365025448 [Eh]
	 SCS Total Energy          =    -251.4680966844808552 [Eh]
	-----------------------------------------------------------

  Dipole Moment: [D]
     X:     0.2913      Y:    -0.3404      Z:     1.5955     Total:     1.6572

*** Psi4 exiting successfully. Buy a developer a beer!
