                               Psi4 1.3.2 release

  ==> Input File <==

--------------------------------------------------------------------------
#psi4
#
memory 32 gb

molecule  {
0 1
  N       -1.4514230    -0.0014080    -0.4975550
  C        1.9178760    -0.2820330     0.3003480
  C        0.7301990    -1.0539890    -0.2910100
  C        1.9133330     1.1918710    -0.0951930
  C       -0.4013339    -0.6279893     0.1781871
  C       -2.6734760     0.4500620     0.1549430
  H        1.9034540    -0.3751150     1.3937850
  H        2.8483830    -0.7529800    -0.0365760
  H        0.7089260    -0.9492610    -1.3805420
  H        0.8357330    -2.1215800    -0.0558240
  H        1.9489790     1.2991200    -1.1835390
  H        1.0073910     1.6938590     0.2549320
  H        2.7765220     1.7153350     0.3260680
  H       -0.7349260    -0.6910300     1.3363860
  H       -2.7870910     1.5245690    -0.0148120
  H       -2.6927620     0.2538980     1.2378030
  H       -3.5272530    -0.0486490    -0.3125820
units angstrom
no_reorient  #important for SAPT in psi4, default
symmetry c1  #important for SAPT in psi4, default
}

set PROPERTIES_ORIGIN ["COM"]
properties('MP2/aug-cc-pvtz', properties = ['dipole'])
--------------------------------------------------------------------------

    Molecular point group: c1
  Charge       = 0
  Multiplicity = 1
  Basis Set: AUG-CC-PVTZ
    Blend: AUG-CC-PVTZ
  Basis Set: (AUG-CC-PVTZ AUX)
    Blend: AUG-CC-PVTZ-JKFIT

    Orbital Energies [Eh]
    ---------------------

    Doubly Occupied:

       1A    -15.556973     2A    -11.289456     3A    -11.241689
       4A    -11.236857     5A    -11.222388     6A    -11.215585
       7A     -1.186806     8A     -1.099128     9A     -0.997933
      10A     -0.902269    11A     -0.831546    12A     -0.743732
      13A     -0.651247    14A     -0.642848    15A     -0.614476
      16A     -0.585406    17A     -0.572311    18A     -0.546384
      19A     -0.523118    20A     -0.505046    21A     -0.489576
      22A     -0.481254    23A     -0.380096    24A     -0.356455

  @DF-RHF Final Energy:  -250.19272090901077

   => Energetics <=

    Nuclear Repulsion Energy =            236.1058110249402944
    One-Electron Energy =                -804.8519041709265593
    Two-Electron Energy =                 318.5533722369755196
    Total Energy =                       -250.1927209090107453
  Basis Set: (AUG-CC-PVTZ AUX)
    Blend: AUG-CC-PVTZ-RI
    Molecular point group: c1

    Geometry (in Angstrom), charge = 0, multiplicity = 1:

       Center              X                  Y                   Z               Mass
    ------------   -----------------  -----------------  -----------------  -----------------
         N           -1.449308137557     0.025908943428    -0.469083069626    14.003074004430
         C            1.919990862443    -0.254716056572     0.328819930374    12.000000000000
         C            0.732313862443    -1.026672056572    -0.262538069626    12.000000000000
         C            1.915447862443     1.219187943428    -0.066721069626    12.000000000000
         C           -0.399219037557    -0.600672356572     0.206659030374    12.000000000000
         C           -2.671361137557     0.477378943428     0.183414930374    12.000000000000
         H            1.905568862443    -0.347798056572     1.422256930374     1.007825032230
         H            2.850497862443    -0.725663056572    -0.008104069626     1.007825032230
         H            0.711040862443    -0.921944056572    -1.352070069626     1.007825032230
         H            0.837847862443    -2.094263056572    -0.027352069626     1.007825032230
         H            1.951093862443     1.326436943428    -1.155067069626     1.007825032230
         H            1.009505862443     1.721175943428     0.283403930374     1.007825032230
         H            2.778636862443     1.742651943428     0.354539930374     1.007825032230
         H           -0.732811137557    -0.663713056572     1.364857930374     1.007825032230
         H           -2.784976137557     1.551885943428     0.013659930374     1.007825032230
         H           -2.690647137557     0.281214943428     1.266274930374     1.007825032230
         H           -3.525138137557    -0.021332056572    -0.284110069626     1.007825032230

  Basis Set: AUG-CC-PVTZ
    Blend: AUG-CC-PVTZ
  Basis Set: (AUG-CC-PVTZ AUX)
    Blend: AUG-CC-PVTZ-JKFIT
	 Reference Energy          =    -250.1927209090107738 [Eh]
	 Singles Energy            =      -0.0000000000000000 [Eh]
	 Same-Spin Energy          =      -0.2681357798585538 [Eh]
	 Opposite-Spin Energy      =      -0.9462234549586447 [Eh]
	 Correlation Energy        =      -1.2143592348171985 [Eh]
	 Total Energy              =    -251.4070801438279830 [Eh]

	 ================> DF-SCS-MP2 Energies <==================
	-----------------------------------------------------------
	 SCS Same-Spin Scale       =       0.3333333333333333 [-]
	 SCS Opposite-Spin Scale   =       1.2000000000000000 [-]
	 SCS Same-Spin Energy      =      -0.0893785932861846 [Eh]
	 SCS Opposite-Spin Energy  =      -1.1354681459503735 [Eh]
	 SCS Correlation Energy    =      -1.2248467392365581 [Eh]
	 SCS Total Energy          =    -251.4175676482473420 [Eh]
	-----------------------------------------------------------

  Dipole Moment: [D]
     X:     0.9429      Y:    -0.4638      Z:     1.2804     Total:     1.6564

*** Psi4 exiting successfully. Buy a developer a beer!
