                               Psi4 1.3.2 release

  ==> Input File <==

--------------------------------------------------------------------------
#psi4
#
memory 32 gb

molecule  {
0 1
  N       -1.5259821     0.0134776    -0.3871127
  C        1.9178760    -0.2820330     0.3003480
  C        0.7301990    -1.0539890    -0.2910100
  C        1.9133330     1.1918710    -0.0951930
  C       -0.5758300    -0.5622950     0.2505430
  C       -2.6734760     0.4500620     0.1549430
  H        1.9034540    -0.3751150     1.3937850
  H        2.8483830    -0.7529800    -0.0365760
  H        0.7089260    -0.9492610    -1.3805420
  H        0.8357330    -2.1215800    -0.0558240
  H        1.9489790     1.2991200    -1.1835390
  H        1.0073910     1.6938590     0.2549320
  H        2.7765220     1.7153350     0.3260680
  H       -0.7349260    -0.6910300     1.3363860
  H       -2.7870910     1.5245690    -0.0148120
  H       -2.6927620     0.2538980     1.2378030
  H       -3.5272530    -0.0486490    -0.3125820
units angstrom
no_reorient  #important for SAPT in psi4, default
symmetry c1  #important for SAPT in psi4, default
}

set PROPERTIES_ORIGIN ["COM"]
properties('MP2/aug-cc-pvtz', properties = ['dipole'])
--------------------------------------------------------------------------

    Molecular point group: c1
  Charge       = 0
  Multiplicity = 1
  Basis Set: AUG-CC-PVTZ
    Blend: AUG-CC-PVTZ
  Basis Set: (AUG-CC-PVTZ AUX)
    Blend: AUG-CC-PVTZ-JKFIT

    Orbital Energies [Eh]
    ---------------------

    Doubly Occupied:

       1A    -15.544069     2A    -11.275202     3A    -11.235992
       4A    -11.230944     5A    -11.229186     6A    -11.212810
       7A     -1.239124     8A     -1.077487     9A     -0.984591
      10A     -0.916725    11A     -0.816732    12A     -0.755213
      13A     -0.657401    14A     -0.640648    15A     -0.614328
      16A     -0.593123    17A     -0.588717    18A     -0.552691
      19A     -0.520030    20A     -0.491965    21A     -0.485677
      22A     -0.477357    23A     -0.388129    24A     -0.379902

  @DF-RHF Final Energy:  -250.25285694672735

   => Energetics <=

    Nuclear Repulsion Energy =            236.4984260916053813
    One-Electron Energy =                -805.6864778399019542
    Two-Electron Energy =                 318.9351948015692528
    Total Energy =                       -250.2528569467273769
  Basis Set: (AUG-CC-PVTZ AUX)
    Blend: AUG-CC-PVTZ-RI
    Molecular point group: c1

    Geometry (in Angstrom), charge = 0, multiplicity = 1:

       Center              X                  Y                   Z               Mass
    ------------   -----------------  -----------------  -----------------  -----------------
         N           -1.486988154634     0.029080056141    -0.387020445746    14.003074004430
         C            1.956869945366    -0.266430543859     0.300440254254    12.000000000000
         C            0.769192945366    -1.038386543859    -0.290917745746    12.000000000000
         C            1.952326945366     1.207473456141    -0.095100745746    12.000000000000
         C           -0.536836054634    -0.546692543859     0.250635254254    12.000000000000
         C           -2.634482054634     0.465664456141     0.155035254254    12.000000000000
         H            1.942447945366    -0.359512543859     1.393877254254     1.007825032230
         H            2.887376945366    -0.737377543859    -0.036483745746     1.007825032230
         H            0.747919945366    -0.933658543859    -1.380449745746     1.007825032230
         H            0.874726945366    -2.105977543859    -0.055731745746     1.007825032230
         H            1.987972945366     1.314722456141    -1.183446745746     1.007825032230
         H            1.046384945366     1.709461456141     0.255024254254     1.007825032230
         H            2.815515945366     1.730937456141     0.326160254254     1.007825032230
         H           -0.695932054634    -0.675427543859     1.336478254254     1.007825032230
         H           -2.748097054634     1.540171456141    -0.014719745746     1.007825032230
         H           -2.653768054634     0.269500456141     1.237895254254     1.007825032230
         H           -3.488259054634    -0.033046543859    -0.312489745746     1.007825032230

  Basis Set: AUG-CC-PVTZ
    Blend: AUG-CC-PVTZ
  Basis Set: (AUG-CC-PVTZ AUX)
    Blend: AUG-CC-PVTZ-JKFIT
	 Reference Energy          =    -250.2528569467273485 [Eh]
	 Singles Energy            =      -0.0000000000000000 [Eh]
	 Same-Spin Energy          =      -0.2625517394469221 [Eh]
	 Opposite-Spin Energy      =      -0.9349718834324394 [Eh]
	 Correlation Energy        =      -1.1975236228793615 [Eh]
	 Total Energy              =    -251.4503805696067218 [Eh]

	 ================> DF-SCS-MP2 Energies <==================
	-----------------------------------------------------------
	 SCS Same-Spin Scale       =       0.3333333333333333 [-]
	 SCS Opposite-Spin Scale   =       1.2000000000000000 [-]
	 SCS Same-Spin Energy      =      -0.0875172464823074 [Eh]
	 SCS Opposite-Spin Energy  =      -1.1219662601189273 [Eh]
	 SCS Correlation Energy    =      -1.2094835066012346 [Eh]
	 SCS Total Energy          =    -251.4623404533285793 [Eh]
	-----------------------------------------------------------

  Dipole Moment: [D]
     X:     0.5689      Y:    -0.3348      Z:     1.0886     Total:     1.2731

*** Psi4 exiting successfully. Buy a developer a beer!
