                               Psi4 1.3.2 release

  ==> Input File <==

--------------------------------------------------------------------------
#psi4
#
memory 32 gb

molecule  {
0 1
  N       -1.4239744    -0.0068531    -0.5324279
  C        1.9178760    -0.2820330     0.3003480
  C        0.7301990    -1.0539890    -0.2910100
  C        1.9133330     1.1918710    -0.0951930
  C       -0.5758300    -0.5622950     0.2505430
  C       -2.6734760     0.4500620     0.1549430
  H        1.9034540    -0.3751150     1.3937850
  H        2.8483830    -0.7529800    -0.0365760
  H        0.7089260    -0.9492610    -1.3805420
  H        0.8357330    -2.1215800    -0.0558240
  H        1.9489790     1.2991200    -1.1835390
  H        1.0073910     1.6938590     0.2549320
  H        2.7765220     1.7153350     0.3260680
  H       -0.7349260    -0.6910300     1.3363860
  H       -2.7870910     1.5245690    -0.0148120
  H       -2.6927620     0.2538980     1.2378030
  H       -3.5272530    -0.0486490    -0.3125820
units angstrom
no_reorient  #important for SAPT in psi4, default
symmetry c1  #important for SAPT in psi4, default
}

set PROPERTIES_ORIGIN ["COM"]
properties('MP2/aug-cc-pvtz', properties = ['dipole'])
--------------------------------------------------------------------------

    Molecular point group: c1
  Charge       = 0
  Multiplicity = 1
  Basis Set: AUG-CC-PVTZ
    Blend: AUG-CC-PVTZ
  Basis Set: (AUG-CC-PVTZ AUX)
    Blend: AUG-CC-PVTZ-JKFIT

    Orbital Energies [Eh]
    ---------------------

    Doubly Occupied:

       1A    -15.558451     2A    -11.272586     3A    -11.245005
       4A    -11.226240     5A    -11.223701     6A    -11.210887
       7A     -1.214898     8A     -1.068711     9A     -0.970195
      10A     -0.909200    11A     -0.815695    12A     -0.758477
      13A     -0.638155    14A     -0.631052    15A     -0.606554
      16A     -0.584853    17A     -0.575841    18A     -0.540358
      19A     -0.515280    20A     -0.490186    21A     -0.480066
      22A     -0.474776    23A     -0.405873    24A     -0.396961

  @DF-RHF Final Energy:  -250.26026406757325

   => Energetics <=

    Nuclear Repulsion Energy =            235.1374142661080100
    One-Electron Energy =                -803.1673541118424282
    Two-Electron Energy =                 317.7696757781611154
    Total Energy =                       -250.2602640675732459
  Basis Set: (AUG-CC-PVTZ AUX)
    Blend: AUG-CC-PVTZ-RI
    Molecular point group: c1

    Geometry (in Angstrom), charge = 0, multiplicity = 1:

       Center              X                  Y                   Z               Mass
    ------------   -----------------  -----------------  -----------------  -----------------
         N           -1.401767805112     0.012095168137    -0.508421204070    14.003074004430
         C            1.940082594888    -0.263084731863     0.324354695930    12.000000000000
         C            0.752405594888    -1.035040731863    -0.267003304070    12.000000000000
         C            1.935539594888     1.210819268137    -0.071186304070    12.000000000000
         C           -0.553623405112    -0.543346731863     0.274549695930    12.000000000000
         C           -2.651269405112     0.469010268137     0.178949695930    12.000000000000
         H            1.925660594888    -0.356166731863     1.417791695930     1.007825032230
         H            2.870589594888    -0.734031731863    -0.012569304070     1.007825032230
         H            0.731132594888    -0.930312731863    -1.356535304070     1.007825032230
         H            0.857939594888    -2.102631731863    -0.031817304070     1.007825032230
         H            1.971185594888     1.318068268137    -1.159532304070     1.007825032230
         H            1.029597594888     1.712807268137     0.278938695930     1.007825032230
         H            2.798728594888     1.734283268137     0.350074695930     1.007825032230
         H           -0.712719405112    -0.672081731863     1.360392695930     1.007825032230
         H           -2.764884405112     1.543517268137     0.009194695930     1.007825032230
         H           -2.670555405112     0.272846268137     1.261809695930     1.007825032230
         H           -3.505046405112    -0.029700731863    -0.288575304070     1.007825032230

  Basis Set: AUG-CC-PVTZ
    Blend: AUG-CC-PVTZ
  Basis Set: (AUG-CC-PVTZ AUX)
    Blend: AUG-CC-PVTZ-JKFIT
	 Reference Energy          =    -250.2602640675732459 [Eh]
	 Singles Energy            =      -0.0000000000000000 [Eh]
	 Same-Spin Energy          =      -0.2618698014206055 [Eh]
	 Opposite-Spin Energy      =      -0.9368633286811054 [Eh]
	 Correlation Energy        =      -1.1987331301017110 [Eh]
	 Total Energy              =    -251.4589971976749609 [Eh]

	 ================> DF-SCS-MP2 Energies <==================
	-----------------------------------------------------------
	 SCS Same-Spin Scale       =       0.3333333333333333 [-]
	 SCS Opposite-Spin Scale   =       1.2000000000000000 [-]
	 SCS Same-Spin Energy      =      -0.0872899338068685 [Eh]
	 SCS Opposite-Spin Energy  =      -1.1242359944173266 [Eh]
	 SCS Correlation Energy    =      -1.2115259282241950 [Eh]
	 SCS Total Energy          =    -251.4717899957974510 [Eh]
	-----------------------------------------------------------

  Dipole Moment: [D]
     X:     0.3366      Y:    -0.3422      Z:     1.5209     Total:     1.5948

*** Psi4 exiting successfully. Buy a developer a beer!
