                               Psi4 1.3.2 release

  ==> Input File <==

--------------------------------------------------------------------------
#psi4
#
memory 32 gb

molecule  {
0 1
  N       -1.4514230    -0.0014080    -0.4975550
  C        1.9178760    -0.2820330     0.3003480
  C        0.7301990    -1.0539890    -0.2910100
  C        1.9133330     1.1918710    -0.0951930
  C       -0.6030013    -0.5562576     0.2855353
  C       -2.6734760     0.4500620     0.1549430
  H        1.9034540    -0.3751150     1.3937850
  H        2.8483830    -0.7529800    -0.0365760
  H        0.7089260    -0.9492610    -1.3805420
  H        0.8357330    -2.1215800    -0.0558240
  H        1.9489790     1.2991200    -1.1835390
  H        1.0073910     1.6938590     0.2549320
  H        2.7765220     1.7153350     0.3260680
  H       -0.7349260    -0.6910300     1.3363860
  H       -2.7870910     1.5245690    -0.0148120
  H       -2.6927620     0.2538980     1.2378030
  H       -3.5272530    -0.0486490    -0.3125820
units angstrom
no_reorient  #important for SAPT in psi4, default
symmetry c1  #important for SAPT in psi4, default
}

set PROPERTIES_ORIGIN ["COM"]
properties('MP2/aug-cc-pvtz', properties = ['dipole'])
--------------------------------------------------------------------------

    Molecular point group: c1
  Charge       = 0
  Multiplicity = 1
  Basis Set: AUG-CC-PVTZ
    Blend: AUG-CC-PVTZ
  Basis Set: (AUG-CC-PVTZ AUX)
    Blend: AUG-CC-PVTZ-JKFIT

    Orbital Energies [Eh]
    ---------------------

    Doubly Occupied:

       1A    -15.556424     2A    -11.271470     3A    -11.242028
       4A    -11.225920     5A    -11.225246     6A    -11.210546
       7A     -1.221237     8A     -1.066810     9A     -0.969573
      10A     -0.908583    11A     -0.813407    12A     -0.767074
      13A     -0.641986    14A     -0.631300    15A     -0.606919
      16A     -0.587354    17A     -0.579140    18A     -0.542032
      19A     -0.514351    20A     -0.488038    21A     -0.478953
      22A     -0.472762    23A     -0.405415    24A     -0.396221

  @DF-RHF Final Energy:  -250.26083567968905

   => Energetics <=

    Nuclear Repulsion Energy =            235.1455316675664733
    One-Electron Energy =                -803.1671590517003096
    Two-Electron Energy =                 317.7607917044447277
    Total Energy =                       -250.2608356796890803
  Basis Set: (AUG-CC-PVTZ AUX)
    Blend: AUG-CC-PVTZ-RI
    Molecular point group: c1

    Geometry (in Angstrom), charge = 0, multiplicity = 1:

       Center              X                  Y                   Z               Mass
    ------------   -----------------  -----------------  -----------------  -----------------
         N           -1.420867275023     0.015792725244    -0.484222231431    14.003074004430
         C            1.948431724977    -0.264832274756     0.313680768569    12.000000000000
         C            0.760754724977    -1.036788274756    -0.277677231431    12.000000000000
         C            1.943888724977     1.209071725244    -0.081860231431    12.000000000000
         C           -0.572445575023    -0.539056874756     0.298868068569    12.000000000000
         C           -2.642920275023     0.467262725244     0.168275768569    12.000000000000
         H            1.934009724977    -0.357914274756     1.407117768569     1.007825032230
         H            2.878938724977    -0.735779274756    -0.023243231431     1.007825032230
         H            0.739481724977    -0.932060274756    -1.367209231431     1.007825032230
         H            0.866288724977    -2.104379274756    -0.042491231431     1.007825032230
         H            1.979534724977     1.316320725244    -1.170206231431     1.007825032230
         H            1.037946724977     1.711059725244     0.268264768569     1.007825032230
         H            2.807077724977     1.732535725244     0.339400768569     1.007825032230
         H           -0.704370275023    -0.673829274756     1.349718768569     1.007825032230
         H           -2.756535275023     1.541769725244    -0.001479231431     1.007825032230
         H           -2.662206275023     0.271098725244     1.251135768569     1.007825032230
         H           -3.496697275023    -0.031448274756    -0.299249231431     1.007825032230

  Basis Set: AUG-CC-PVTZ
    Blend: AUG-CC-PVTZ
  Basis Set: (AUG-CC-PVTZ AUX)
    Blend: AUG-CC-PVTZ-JKFIT
	 Reference Energy          =    -250.2608356796890519 [Eh]
	 Singles Energy            =      -0.0000000000000000 [Eh]
	 Same-Spin Energy          =      -0.2615114678993866 [Eh]
	 Opposite-Spin Energy      =      -0.9360407834407267 [Eh]
	 Correlation Energy        =      -1.1975522513401133 [Eh]
	 Total Energy              =    -251.4583879310291650 [Eh]

	 ================> DF-SCS-MP2 Energies <==================
	-----------------------------------------------------------
	 SCS Same-Spin Scale       =       0.3333333333333333 [-]
	 SCS Opposite-Spin Scale   =       1.2000000000000000 [-]
	 SCS Same-Spin Energy      =      -0.0871704892997955 [Eh]
	 SCS Opposite-Spin Energy  =      -1.1232489401288721 [Eh]
	 SCS Correlation Energy    =      -1.2104194294286676 [Eh]
	 SCS Total Energy          =    -251.4712551091177204 [Eh]
	-----------------------------------------------------------

  Dipole Moment: [D]
     X:     0.2998      Y:    -0.3331      Z:     1.5022     Total:     1.5676

*** Psi4 exiting successfully. Buy a developer a beer!
