                               Psi4 1.4a3.dev225

  ==> Input File <==

--------------------------------------------------------------------------
#psi4
#
memory 32 gb

molecule  {
0 1
  N       -1.4513250    -0.0010140    -0.4975640
  C        1.9178130    -0.2820920     0.3002790
  C        0.7301270    -1.0540560    -0.2910000
  C        1.9134960     1.1918760    -0.0950710
  C       -0.5759880    -0.5623720     0.2504290
  C       -2.6734840     0.4500370     0.1549490
  H        1.9036020    -0.3753030     1.3937060
  H        2.8482930    -0.7529860    -0.0368320
  H        0.7089100    -0.9495730    -1.3805570
  H        0.8355610    -2.1216230    -0.0556080
  H        1.9497200     1.2992090    -1.1833850
  H        1.0073830     1.6938500     0.2545960
  H        2.7764960     1.7152480     0.3266950
  H       -0.7323664    -0.6891530     1.3165693
  H       -2.7876940     1.5244090    -0.0151890
  H       -2.6923780     0.2543160     1.2378980
  H       -3.5271550    -0.0493170    -0.3121090
units angstrom
no_reorient  #important for SAPT in psi4, default
symmetry c1  #important for SAPT in psi4, default
}

set PROPERTIES_ORIGIN ["COM"]
properties('MP2/aug-cc-pvtz', properties = ['dipole'])
--------------------------------------------------------------------------

    Molecular point group: c1
  Charge       = 0
  Multiplicity = 1
  Basis Set: AUG-CC-PVTZ
    Blend: AUG-CC-PVTZ
  Basis Set: (AUG-CC-PVTZ AUX)
    Blend: AUG-CC-PVTZ-JKFIT

    Orbital Energies [Eh]
    ---------------------

    Doubly Occupied:

       1A    -15.554470     2A    -11.270470     3A    -11.242659
       4A    -11.226953     5A    -11.225055     6A    -11.211307
       7A     -1.219683     8A     -1.070785     9A     -0.973730
      10A     -0.910566    11A     -0.816153    12A     -0.761176
      13A     -0.643268    14A     -0.633336    15A     -0.608296
      16A     -0.587148    17A     -0.578871    18A     -0.542951
      19A     -0.517267    20A     -0.490470    21A     -0.480971
      22A     -0.475379    23A     -0.401885    24A     -0.394642

  @DF-RHF Final Energy:  -250.26307084220346

   => Energetics <=

    Nuclear Repulsion Energy =            235.5339004530083002
    One-Electron Energy =                -803.9189612640969926
    Two-Electron Energy =                 318.1219899688852593
    Total Energy =                       -250.2630708422034331
  Basis Set: (AUG-CC-PVTZ AUX)
    Blend: AUG-CC-PVTZ-RI
    Molecular point group: c1

    Geometry (in Angstrom), charge = 0, multiplicity = 1:

       Center              X                  Y                   Z               Mass
    ------------   -----------------  -----------------  -----------------  -----------------
         N           -1.424633587934     0.016993989869    -0.479059720502    14.003074004430
         C            1.944504412066    -0.264084010131     0.318783279498    12.000000000000
         C            0.756818412066    -1.036048010131    -0.272495720502    12.000000000000
         C            1.940187412066     1.209883989869    -0.076566720502    12.000000000000
         C           -0.549296587934    -0.544364010131     0.268933279498    12.000000000000
         C           -2.646792587934     0.468044989869     0.173453279498    12.000000000000
         H            1.930293412066    -0.357295010131     1.412210279498     1.007825032230
         H            2.874984412066    -0.734978010131    -0.018327720502     1.007825032230
         H            0.735601412066    -0.931565010131    -1.362052720502     1.007825032230
         H            0.862252412066    -2.103615010131    -0.037103720502     1.007825032230
         H            1.976411412066     1.317216989869    -1.164880720502     1.007825032230
         H            1.034074412066     1.711857989869     0.273100279498     1.007825032230
         H            2.803187412066     1.733255989869     0.345199279498     1.007825032230
         H           -0.705674987934    -0.671145010131     1.335073579498     1.007825032230
         H           -2.761002587934     1.542416989869     0.003315279498     1.007825032230
         H           -2.665686587934     0.272323989869     1.256402279498     1.007825032230
         H           -3.500463587934    -0.031309010131    -0.293604720502     1.007825032230

  Basis Set: AUG-CC-PVTZ
    Blend: AUG-CC-PVTZ
  Basis Set: (AUG-CC-PVTZ AUX)
    Blend: AUG-CC-PVTZ-JKFIT
	 Reference Energy          =    -250.2630708422034616 [Eh]
	 Singles Energy            =      -0.0000000000000000 [Eh]
	 Same-Spin Energy          =      -0.2617540365217126 [Eh]
	 Opposite-Spin Energy      =      -0.9358674921622929 [Eh]
	 Correlation Energy        =      -1.1976215286840055 [Eh]
	 Total Energy              =    -251.4606923708874717 [Eh]

	 ================> DF-SCS-MP2 Energies <==================
	-----------------------------------------------------------
	 SCS Same-Spin Scale       =       0.3333333333333333 [-]
	 SCS Opposite-Spin Scale   =       1.2000000000000000 [-]
	 SCS Same-Spin Energy      =      -0.0872513455072375 [Eh]
	 SCS Opposite-Spin Energy  =      -1.1230409905947514 [Eh]
	 SCS Correlation Energy    =      -1.2102923361019888 [Eh]
	 SCS Total Energy          =    -251.4733631783054477 [Eh]
	-----------------------------------------------------------

  Dipole Moment: [D]
     X:     0.3867      Y:    -0.3457      Z:     1.4543     Total:     1.5440

*** Psi4 exiting successfully. Buy a developer a beer!
