                               Psi4 1.4a3.dev225

  ==> Input File <==

--------------------------------------------------------------------------
#psi4
#
memory 32 gb

molecule  {
0 1
  N       -1.4513250    -0.0010140    -0.4975640
  C        1.9178130    -0.2820920     0.3002790
  C        0.7301270    -1.0540560    -0.2910000
  C        1.9134960     1.1918760    -0.0950710
  C       -0.5759880    -0.5623720     0.2504290
  C       -2.6734840     0.4500370     0.1549490
  H        1.9036020    -0.3753030     1.3937060
  H        2.8482930    -0.7529860    -0.0368320
  H        0.7089100    -0.9495730    -1.3805570
  H        0.8355610    -2.1216230    -0.0556080
  H        1.9497200     1.2992090    -1.1833850
  H        1.0073830     1.6938500     0.2545960
  H        2.7764960     1.7152480     0.3266950
  H       -0.7280425    -0.6856475     1.2870902
  H       -2.7876940     1.5244090    -0.0151890
  H       -2.6923780     0.2543160     1.2378980
  H       -3.5271550    -0.0493170    -0.3121090
units angstrom
no_reorient  #important for SAPT in psi4, default
symmetry c1  #important for SAPT in psi4, default
}

set PROPERTIES_ORIGIN ["COM"]
properties('MP2/aug-cc-pvtz', properties = ['dipole'])
--------------------------------------------------------------------------

    Molecular point group: c1
  Charge       = 0
  Multiplicity = 1
  Basis Set: AUG-CC-PVTZ
    Blend: AUG-CC-PVTZ
  Basis Set: (AUG-CC-PVTZ AUX)
    Blend: AUG-CC-PVTZ-JKFIT

    Orbital Energies [Eh]
    ---------------------

    Doubly Occupied:

       1A    -15.554011     2A    -11.266823     3A    -11.242540
       4A    -11.226880     5A    -11.224560     6A    -11.211273
       7A     -1.219796     8A     -1.070712     9A     -0.974062
      10A     -0.910418    11A     -0.816675    12A     -0.766854
      13A     -0.644259    14A     -0.633530    15A     -0.608515
      16A     -0.587660    17A     -0.578784    18A     -0.542877
      19A     -0.518138    20A     -0.490346    21A     -0.480804
      22A     -0.475408    23A     -0.402080    24A     -0.394338

  @DF-RHF Final Energy:  -250.26240179681903

   => Energetics <=

    Nuclear Repulsion Energy =            235.6773933772549299
    One-Electron Energy =                -804.1969063893598104
    Two-Electron Energy =                 318.2571112152858746
    Total Energy =                       -250.2624017968190060
  Basis Set: (AUG-CC-PVTZ AUX)
    Blend: AUG-CC-PVTZ-RI
    Molecular point group: c1

    Geometry (in Angstrom), charge = 0, multiplicity = 1:

       Center              X                  Y                   Z               Mass
    ------------   -----------------  -----------------  -----------------  -----------------
         N           -1.424684801687     0.016952469526    -0.478710559944    14.003074004430
         C            1.944453198313    -0.264125530474     0.319132440056    12.000000000000
         C            0.756767198313    -1.036089530474    -0.272146559944    12.000000000000
         C            1.940136198313     1.209842469526    -0.076217559944    12.000000000000
         C           -0.549347801687    -0.544405530474     0.269282440056    12.000000000000
         C           -2.646843801687     0.468003469526     0.173802440056    12.000000000000
         H            1.930242198313    -0.357336530474     1.412559440056     1.007825032230
         H            2.874933198313    -0.735019530474    -0.017978559944     1.007825032230
         H            0.735550198313    -0.931606530474    -1.361703559944     1.007825032230
         H            0.862201198313    -2.103656530474    -0.036754559944     1.007825032230
         H            1.976360198313     1.317175469526    -1.164531559944     1.007825032230
         H            1.034023198313     1.711816469526     0.273449440056     1.007825032230
         H            2.803136198313     1.733214469526     0.345548440056     1.007825032230
         H           -0.701402301687    -0.667681030474     1.305943640056     1.007825032230
         H           -2.761053801687     1.542375469526     0.003664440056     1.007825032230
         H           -2.665737801687     0.272282469526     1.256751440056     1.007825032230
         H           -3.500514801687    -0.031350530474    -0.293255559944     1.007825032230

  Basis Set: AUG-CC-PVTZ
    Blend: AUG-CC-PVTZ
  Basis Set: (AUG-CC-PVTZ AUX)
    Blend: AUG-CC-PVTZ-JKFIT
	 Reference Energy          =    -250.2624017968190344 [Eh]
	 Singles Energy            =      -0.0000000000000000 [Eh]
	 Same-Spin Energy          =      -0.2616438893026658 [Eh]
	 Opposite-Spin Energy      =      -0.9356594961561217 [Eh]
	 Correlation Energy        =      -1.1973033854587873 [Eh]
	 Total Energy              =    -251.4597051822778155 [Eh]

	 ================> DF-SCS-MP2 Energies <==================
	-----------------------------------------------------------
	 SCS Same-Spin Scale       =       0.3333333333333333 [-]
	 SCS Opposite-Spin Scale   =       1.2000000000000000 [-]
	 SCS Same-Spin Energy      =      -0.0872146297675553 [Eh]
	 SCS Opposite-Spin Energy  =      -1.1227913953873458 [Eh]
	 SCS Correlation Energy    =      -1.2100060251549012 [Eh]
	 SCS Total Energy          =    -251.4724078219739454 [Eh]
	-----------------------------------------------------------

  Dipole Moment: [D]
     X:     0.3850      Y:    -0.3514      Z:     1.4821     Total:     1.5711

*** Psi4 exiting successfully. Buy a developer a beer!
