                               Psi4 1.3.2 release

  ==> Input File <==

--------------------------------------------------------------------------
#psi4
#
memory 32 gb

molecule  {
0 1
  N       -1.4514230    -0.0014080    -0.4975550
  C        1.9178760    -0.2820330     0.3003480
  C        0.7301990    -1.0539890    -0.2910100
  C        1.9133330     1.1918710    -0.0951930
  C       -0.5758300    -0.5622950     0.2505430
  C       -2.6734760     0.4500620     0.1549430
  H        1.9034540    -0.3751150     1.3937850
  H        2.8483830    -0.7529800    -0.0365760
  H        0.7089260    -0.9492610    -1.3805420
  H        0.8357330    -2.1215800    -0.0558240
  H        1.9489790     1.2991200    -1.1835390
  H        1.0073910     1.6938590     0.2549320
  H        2.7765220     1.7153350     0.3260680
  H       -0.7349260    -0.6910300     1.3363860
  H       -2.7870910     1.5245690    -0.0148120
  H       -2.6927620     0.2538980     1.2378030
  H       -3.5272530    -0.0486490    -0.3125820
units angstrom
no_reorient  #important for SAPT in psi4, default
symmetry c1  #important for SAPT in psi4, default
}

set PROPERTIES_ORIGIN ["COM"]
properties('MP2/aug-cc-pvtz', properties = ['dipole'])
--------------------------------------------------------------------------

    Molecular point group: c1
  Charge       = 0
  Multiplicity = 1
  Basis Set: AUG-CC-PVTZ
    Blend: AUG-CC-PVTZ
  Basis Set: (AUG-CC-PVTZ AUX)
    Blend: AUG-CC-PVTZ-JKFIT

    Orbital Energies [Eh]
    ---------------------

    Doubly Occupied:

       1A    -15.554806     2A    -11.272868     3A    -11.242749
       4A    -11.227007     5A    -11.225392     6A    -11.211336
       7A     -1.219630     8A     -1.070853     9A     -0.973550
      10A     -0.910670    11A     -0.815899    12A     -0.757577
      13A     -0.642637    14A     -0.633177    15A     -0.608149
      16A     -0.586779    17A     -0.578931    18A     -0.542999
      19A     -0.516657    20A     -0.490543    21A     -0.481102
      22A     -0.475371    23A     -0.401734    24A     -0.394851

  @DF-RHF Final Energy:  -250.26285717321684

   => Energetics <=

    Nuclear Repulsion Energy =            235.4423397783855307
    One-Electron Energy =                -803.7398602532999803
    Two-Electron Energy =                 318.0346633016976057
    Total Energy =                       -250.2628571732168439
  Basis Set: (AUG-CC-PVTZ AUX)
    Blend: AUG-CC-PVTZ-RI
    Molecular point group: c1

    Geometry (in Angstrom), charge = 0, multiplicity = 1:

       Center              X                  Y                   Z               Mass
    ------------   -----------------  -----------------  -----------------  -----------------
         N           -1.424699204270     0.016644171057    -0.479287317835    14.003074004430
         C            1.944599795730    -0.263980828943     0.318615682165    12.000000000000
         C            0.756922795730    -1.035936828943    -0.272742317835    12.000000000000
         C            1.940056795730     1.209923171057    -0.076925317835    12.000000000000
         C           -0.549106204270    -0.544242828943     0.268810682165    12.000000000000
         C           -2.646752204270     0.468114171057     0.173210682165    12.000000000000
         H            1.930177795730    -0.357062828943     1.412052682165     1.007825032230
         H            2.875106795730    -0.734927828943    -0.018308317835     1.007825032230
         H            0.735649795730    -0.931208828943    -1.362274317835     1.007825032230
         H            0.862456795730    -2.103527828943    -0.037556317835     1.007825032230
         H            1.975702795730     1.317172171057    -1.165271317835     1.007825032230
         H            1.034114795730     1.711911171057     0.273199682165     1.007825032230
         H            2.803245795730     1.733387171057     0.344335682165     1.007825032230
         H           -0.708202204270    -0.672977828943     1.354653682165     1.007825032230
         H           -2.760367204270     1.542621171057     0.003455682165     1.007825032230
         H           -2.666038204270     0.271950171057     1.256070682165     1.007825032230
         H           -3.500529204270    -0.030596828943    -0.294314317835     1.007825032230

  Basis Set: AUG-CC-PVTZ
    Blend: AUG-CC-PVTZ
  Basis Set: (AUG-CC-PVTZ AUX)
    Blend: AUG-CC-PVTZ-JKFIT
	 Reference Energy          =    -250.2628571732168439 [Eh]
	 Singles Energy            =      -0.0000000000000000 [Eh]
	 Same-Spin Energy          =      -0.2618345634921543 [Eh]
	 Opposite-Spin Energy      =      -0.9360320040031602 [Eh]
	 Correlation Energy        =      -1.1978665674953146 [Eh]
	 Total Energy              =    -251.4607237407121545 [Eh]

	 ================> DF-SCS-MP2 Energies <==================
	-----------------------------------------------------------
	 SCS Same-Spin Scale       =       0.3333333333333333 [-]
	 SCS Opposite-Spin Scale   =       1.2000000000000000 [-]
	 SCS Same-Spin Energy      =      -0.0872781878307181 [Eh]
	 SCS Opposite-Spin Energy  =      -1.1232384048037922 [Eh]
	 SCS Correlation Energy    =      -1.2105165926345103 [Eh]
	 SCS Total Energy          =    -251.4733737658513633 [Eh]
	-----------------------------------------------------------

  Dipole Moment: [D]
     X:     0.3881      Y:    -0.3406      Z:     1.4346     Total:     1.5247

*** Psi4 exiting successfully. Buy a developer a beer!
