                               Psi4 1.3.2 release

  ==> Input File <==

--------------------------------------------------------------------------
#psi4
#
memory 32 gb

molecule  {
0 1
  N       -1.4471448     0.0223679    -0.5054978
  C        1.9178760    -0.2820330     0.3003480
  C        0.7301990    -1.0539890    -0.2910100
  C        1.9133330     1.1918710    -0.0951930
  C       -0.5758300    -0.5622950     0.2505430
  C       -2.6734760     0.4500620     0.1549430
  H        1.9034540    -0.3751150     1.3937850
  H        2.8483830    -0.7529800    -0.0365760
  H        0.7089260    -0.9492610    -1.3805420
  H        0.8357330    -2.1215800    -0.0558240
  H        1.9489790     1.2991200    -1.1835390
  H        1.0073910     1.6938590     0.2549320
  H        2.7765220     1.7153350     0.3260680
  H       -0.7349260    -0.6910300     1.3363860
  H       -2.7870910     1.5245690    -0.0148120
  H       -2.6927620     0.2538980     1.2378030
  H       -3.5272530    -0.0486490    -0.3125820
units angstrom
no_reorient  #important for SAPT in psi4, default
symmetry c1  #important for SAPT in psi4, default
}

set PROPERTIES_ORIGIN ["COM"]
properties('MP2/aug-cc-pvtz', properties = ['dipole'])
--------------------------------------------------------------------------

    Molecular point group: c1
  Charge       = 0
  Multiplicity = 1
  Basis Set: AUG-CC-PVTZ
    Blend: AUG-CC-PVTZ
  Basis Set: (AUG-CC-PVTZ AUX)
    Blend: AUG-CC-PVTZ-JKFIT

    Orbital Energies [Eh]
    ---------------------

    Doubly Occupied:

       1A    -15.557009     2A    -11.275111     3A    -11.242200
       4A    -11.227183     5A    -11.225839     6A    -11.211191
       7A     -1.215807     8A     -1.071055     9A     -0.973225
      10A     -0.909195    11A     -0.816075    12A     -0.758600
      13A     -0.641702    14A     -0.632775    15A     -0.607663
      16A     -0.586537    17A     -0.578280    18A     -0.542448
      19A     -0.516193    20A     -0.490411    21A     -0.480590
      22A     -0.475175    23A     -0.404903    24A     -0.391519

  @DF-RHF Final Energy:  -250.26114029644813

   => Energetics <=

    Nuclear Repulsion Energy =            235.2628826939002238
    One-Electron Energy =                -803.3866757859470908
    Two-Electron Energy =                 317.8626527955987626
    Total Energy =                       -250.2611402964481044
  Basis Set: (AUG-CC-PVTZ AUX)
    Blend: AUG-CC-PVTZ-RI
    Molecular point group: c1

    Geometry (in Angstrom), charge = 0, multiplicity = 1:

       Center              X                  Y                   Z               Mass
    ------------   -----------------  -----------------  -----------------  -----------------
         N           -1.421125065265     0.036507284413    -0.485922975655    14.003074004430
         C            1.943895734735    -0.267893615587     0.319922824345    12.000000000000
         C            0.756218734735    -1.039849615587    -0.271435175655    12.000000000000
         C            1.939352734735     1.206010384413    -0.075618175655    12.000000000000
         C           -0.549810265265    -0.548155615587     0.270117824345    12.000000000000
         C           -2.647456265265     0.464201384413     0.174517824345    12.000000000000
         H            1.929473734735    -0.360975615587     1.413359824345     1.007825032230
         H            2.874402734735    -0.738840615587    -0.017001175655     1.007825032230
         H            0.734945734735    -0.935121615587    -1.360967175655     1.007825032230
         H            0.861752734735    -2.107440615587    -0.036249175655     1.007825032230
         H            1.974998734735     1.313259384413    -1.163964175655     1.007825032230
         H            1.033410734735     1.707998384413     0.274506824345     1.007825032230
         H            2.802541734735     1.729474384413     0.345642824345     1.007825032230
         H           -0.708906265265    -0.676890615587     1.355960824345     1.007825032230
         H           -2.761071265265     1.538708384413     0.004762824345     1.007825032230
         H           -2.666742265265     0.268037384413     1.257377824345     1.007825032230
         H           -3.501233265265    -0.034509615587    -0.293007175655     1.007825032230

  Basis Set: AUG-CC-PVTZ
    Blend: AUG-CC-PVTZ
  Basis Set: (AUG-CC-PVTZ AUX)
    Blend: AUG-CC-PVTZ-JKFIT
	 Reference Energy          =    -250.2611402964481329 [Eh]
	 Singles Energy            =      -0.0000000000000000 [Eh]
	 Same-Spin Energy          =      -0.2621220882078896 [Eh]
	 Opposite-Spin Energy      =      -0.9368192682592698 [Eh]
	 Correlation Energy        =      -1.1989413564671594 [Eh]
	 Total Energy              =    -251.4600816529152780 [Eh]

	 ================> DF-SCS-MP2 Energies <==================
	-----------------------------------------------------------
	 SCS Same-Spin Scale       =       0.3333333333333333 [-]
	 SCS Opposite-Spin Scale   =       1.2000000000000000 [-]
	 SCS Same-Spin Energy      =      -0.0873740294026299 [Eh]
	 SCS Opposite-Spin Energy  =      -1.1241831219111236 [Eh]
	 SCS Correlation Energy    =      -1.2115571513137535 [Eh]
	 SCS Total Energy          =    -251.4726974477618739 [Eh]
	-----------------------------------------------------------

  Dipole Moment: [D]
     X:     0.3916      Y:    -0.3857      Z:     1.4550     Total:     1.5553

*** Psi4 exiting successfully. Buy a developer a beer!
