                               Psi4 1.3.2 release

  ==> Input File <==

--------------------------------------------------------------------------
#psi4
#
memory 32 gb

molecule  {
0 1
  N       -1.4778048     0.0033538    -0.4617707
  C        1.9178760    -0.2820330     0.3003480
  C        0.7301990    -1.0539890    -0.2910100
  C        1.9133330     1.1918710    -0.0951930
  C       -0.5758300    -0.5622950     0.2505430
  C       -2.6734760     0.4500620     0.1549430
  H        1.9034540    -0.3751150     1.3937850
  H        2.8483830    -0.7529800    -0.0365760
  H        0.7089260    -0.9492610    -1.3805420
  H        0.8357330    -2.1215800    -0.0558240
  H        1.9489790     1.2991200    -1.1835390
  H        1.0073910     1.6938590     0.2549320
  H        2.7765220     1.7153350     0.3260680
  H       -0.7349260    -0.6910300     1.3363860
  H       -2.7870910     1.5245690    -0.0148120
  H       -2.6927620     0.2538980     1.2378030
  H       -3.5272530    -0.0486490    -0.3125820
units angstrom
no_reorient  #important for SAPT in psi4, default
symmetry c1  #important for SAPT in psi4, default
}

set PROPERTIES_ORIGIN ["COM"]
properties('MP2/aug-cc-pvtz', properties = ['dipole'])
--------------------------------------------------------------------------

    Molecular point group: c1
  Charge       = 0
  Multiplicity = 1
  Basis Set: AUG-CC-PVTZ
    Blend: AUG-CC-PVTZ
  Basis Set: (AUG-CC-PVTZ AUX)
    Blend: AUG-CC-PVTZ-JKFIT

    Orbital Energies [Eh]
    ---------------------

    Doubly Occupied:

       1A    -15.551170     2A    -11.273389     3A    -11.240460
       4A    -11.227846     5A    -11.227075     6A    -11.211811
       7A     -1.225242     8A     -1.073039     9A     -0.977075
      10A     -0.912429    11A     -0.816127    12A     -0.756739
      13A     -0.647467    14A     -0.635392    15A     -0.609930
      16A     -0.588736    17A     -0.582236    18A     -0.545990
      19A     -0.517944    20A     -0.490961    21A     -0.482482
      22A     -0.476025    23A     -0.395863    24A     -0.392622

  @DF-RHF Final Energy:  -250.26270138761902

   => Energetics <=

    Nuclear Repulsion Energy =            235.7708834826524082
    One-Electron Energy =                -804.3510658423982704
    Two-Electron Energy =                 318.3174809721268730
    Total Energy =                       -250.2627013876190176
  Basis Set: (AUG-CC-PVTZ AUX)
    Blend: AUG-CC-PVTZ-RI
    Molecular point group: c1

    Geometry (in Angstrom), charge = 0, multiplicity = 1:

       Center              X                  Y                   Z               Mass
    ------------   -----------------  -----------------  -----------------  -----------------
         N           -1.446739366111     0.020622324279    -0.449392020192    14.003074004430
         C            1.948941433889    -0.264764475721     0.312726679808    12.000000000000
         C            0.761264433889    -1.036720475721    -0.278631320192    12.000000000000
         C            1.944398433889     1.209139524279    -0.082814320192    12.000000000000
         C           -0.544764566111    -0.545026475721     0.262921679808    12.000000000000
         C           -2.642410566111     0.467330524279     0.167321679808    12.000000000000
         H            1.934519433889    -0.357846475721     1.406163679808     1.007825032230
         H            2.879448433889    -0.735711475721    -0.024197320192     1.007825032230
         H            0.739991433889    -0.931992475721    -1.368163320192     1.007825032230
         H            0.866798433889    -2.104311475721    -0.043445320192     1.007825032230
         H            1.980044433889     1.316388524279    -1.171160320192     1.007825032230
         H            1.038456433889     1.711127524279     0.267310679808     1.007825032230
         H            2.807587433889     1.732603524279     0.338446679808     1.007825032230
         H           -0.703860566111    -0.673761475721     1.348764679808     1.007825032230
         H           -2.756025566111     1.541837524279    -0.002433320192     1.007825032230
         H           -2.661696566111     0.271166524279     1.250181679808     1.007825032230
         H           -3.496187566111    -0.031380475721    -0.300203320192     1.007825032230

  Basis Set: AUG-CC-PVTZ
    Blend: AUG-CC-PVTZ
  Basis Set: (AUG-CC-PVTZ AUX)
    Blend: AUG-CC-PVTZ-JKFIT
	 Reference Energy          =    -250.2627013876190176 [Eh]
	 Singles Energy            =      -0.0000000000000000 [Eh]
	 Same-Spin Energy          =      -0.2619339834907894 [Eh]
	 Opposite-Spin Energy      =      -0.9354364464435923 [Eh]
	 Correlation Energy        =      -1.1973704299343817 [Eh]
	 Total Energy              =    -251.4600718175533984 [Eh]

	 ================> DF-SCS-MP2 Energies <==================
	-----------------------------------------------------------
	 SCS Same-Spin Scale       =       0.3333333333333333 [-]
	 SCS Opposite-Spin Scale   =       1.2000000000000000 [-]
	 SCS Same-Spin Energy      =      -0.0873113278302631 [Eh]
	 SCS Opposite-Spin Energy  =      -1.1225237357323106 [Eh]
	 SCS Correlation Energy    =      -1.2098350635625736 [Eh]
	 SCS Total Energy          =    -251.4725364511815826 [Eh]
	-----------------------------------------------------------

  Dipole Moment: [D]
     X:     0.4443      Y:    -0.3382      Z:     1.3348     Total:     1.4469

*** Psi4 exiting successfully. Buy a developer a beer!
