                               Psi4 1.4a3.dev225

  ==> Input File <==

--------------------------------------------------------------------------
#psi4
#
memory 32 gb

molecule  {
0 1
  N       -1.4513250    -0.0010140    -0.4975640
  C        1.9178130    -0.2820920     0.3002790
  C        0.7301270    -1.0540560    -0.2910000
  C        1.9134960     1.1918760    -0.0950710
  C       -0.5759880    -0.5623720     0.2504290
  C       -2.6734840     0.4500370     0.1549490
  H        1.9036020    -0.3753030     1.3937060
  H        2.8482930    -0.7529860    -0.0368320
  H        0.7089100    -0.9495730    -1.3805570
  H        0.8355610    -2.1216230    -0.0556080
  H        1.9497200     1.2992090    -1.1833850
  H        1.0073830     1.6938500     0.2545960
  H        2.7764960     1.7152480     0.3266950
  H       -0.7424555    -0.6973325     1.3853538
  H       -2.7876940     1.5244090    -0.0151890
  H       -2.6923780     0.2543160     1.2378980
  H       -3.5271550    -0.0493170    -0.3121090
units angstrom
no_reorient  #important for SAPT in psi4, default
symmetry c1  #important for SAPT in psi4, default
}

set PROPERTIES_ORIGIN ["COM"]
properties('MP2/aug-cc-pvtz', properties = ['dipole'])
--------------------------------------------------------------------------

    Molecular point group: c1
  Charge       = 0
  Multiplicity = 1
  Basis Set: AUG-CC-PVTZ
    Blend: AUG-CC-PVTZ
  Basis Set: (AUG-CC-PVTZ AUX)
    Blend: AUG-CC-PVTZ-JKFIT

    Orbital Energies [Eh]
    ---------------------

    Doubly Occupied:

       1A    -15.555743     2A    -11.278724     3A    -11.242994
       4A    -11.227186     5A    -11.226285     6A    -11.211404
       7A     -1.219727     8A     -1.071037     9A     -0.973250
      10A     -0.910996    11A     -0.815506    12A     -0.749262
      13A     -0.641291    14A     -0.632621    15A     -0.607742
      16A     -0.585786    17A     -0.579105    18A     -0.543166
      19A     -0.514965    20A     -0.490802    21A     -0.481401
      22A     -0.475293    23A     -0.401307    24A     -0.395475

  @DF-RHF Final Energy:  -250.26043761375203

   => Energetics <=

    Nuclear Repulsion Energy =            235.2177698330081625
    One-Electron Energy =                -803.2942821304086465
    Two-Electron Energy =                 317.8160746836485373
    Total Energy =                       -250.2604376137520035
  Basis Set: (AUG-CC-PVTZ AUX)
    Blend: AUG-CC-PVTZ-RI
    Molecular point group: c1

    Geometry (in Angstrom), charge = 0, multiplicity = 1:

       Center              X                  Y                   Z               Mass
    ------------   -----------------  -----------------  -----------------  -----------------
         N           -1.424514089178     0.017090870669    -0.479874427682    14.003074004430
         C            1.944623910822    -0.263987129331     0.317968572318    12.000000000000
         C            0.756937910822    -1.035951129331    -0.273310427682    12.000000000000
         C            1.940306910822     1.209980870669    -0.077381427682    12.000000000000
         C           -0.549177089178    -0.544267129331     0.268118572318    12.000000000000
         C           -2.646673089178     0.468141870669     0.172638572318    12.000000000000
         H            1.930412910822    -0.357198129331     1.411395572318     1.007825032230
         H            2.875103910822    -0.734881129331    -0.019142427682     1.007825032230
         H            0.735720910822    -0.931468129331    -1.362867427682     1.007825032230
         H            0.862371910822    -2.103518129331    -0.037918427682     1.007825032230
         H            1.976530910822     1.317313870669    -1.165695427682     1.007825032230
         H            1.034193910822     1.711954870669     0.272285572318     1.007825032230
         H            2.803306910822     1.733352870669     0.344384572318     1.007825032230
         H           -0.715644589178    -0.679227629331     1.403043372318     1.007825032230
         H           -2.760883089178     1.542513870669     0.002500572318     1.007825032230
         H           -2.665567089178     0.272420870669     1.255587572318     1.007825032230
         H           -3.500344089178    -0.031212129331    -0.294419427682     1.007825032230

  Basis Set: AUG-CC-PVTZ
    Blend: AUG-CC-PVTZ
  Basis Set: (AUG-CC-PVTZ AUX)
    Blend: AUG-CC-PVTZ-JKFIT
	 Reference Energy          =    -250.2604376137520319 [Eh]
	 Singles Energy            =      -0.0000000000000000 [Eh]
	 Same-Spin Energy          =      -0.2620497135341044 [Eh]
	 Opposite-Spin Energy      =      -0.9365092123882075 [Eh]
	 Correlation Energy        =      -1.1985589259223119 [Eh]
	 Total Energy              =    -251.4589965396743310 [Eh]

	 ================> DF-SCS-MP2 Energies <==================
	-----------------------------------------------------------
	 SCS Same-Spin Scale       =       0.3333333333333333 [-]
	 SCS Opposite-Spin Scale   =       1.2000000000000000 [-]
	 SCS Same-Spin Energy      =      -0.0873499045113681 [Eh]
	 SCS Opposite-Spin Energy  =      -1.1238110548658489 [Eh]
	 SCS Correlation Energy    =      -1.2111609593772170 [Eh]
	 SCS Total Energy          =    -251.4715985731292562 [Eh]
	-----------------------------------------------------------

  Dipole Moment: [D]
     X:     0.3903      Y:    -0.3301      Z:     1.3799     Total:     1.4715

*** Psi4 exiting successfully. Buy a developer a beer!
