                               Psi4 1.3.2 release

  ==> Input File <==

--------------------------------------------------------------------------
#psi4
#
memory 32 gb

molecule  {
0 1
  N       -1.4514230    -0.0014080    -0.4975550
  C        1.9178760    -0.2820330     0.3003480
  C        0.7301990    -1.0539890    -0.2910100
  C        1.9133330     1.1918710    -0.0951930
  C       -0.5758300    -0.5622950     0.2505430
  C       -2.5057325     0.3880915     0.0653787
  H        1.9034540    -0.3751150     1.3937850
  H        2.8483830    -0.7529800    -0.0365760
  H        0.7089260    -0.9492610    -1.3805420
  H        0.8357330    -2.1215800    -0.0558240
  H        1.9489790     1.2991200    -1.1835390
  H        1.0073910     1.6938590     0.2549320
  H        2.7765220     1.7153350     0.3260680
  H       -0.7349260    -0.6910300     1.3363860
  H       -2.7870910     1.5245690    -0.0148120
  H       -2.6927620     0.2538980     1.2378030
  H       -3.5272530    -0.0486490    -0.3125820
units angstrom
no_reorient  #important for SAPT in psi4, default
symmetry c1  #important for SAPT in psi4, default
}

set PROPERTIES_ORIGIN ["COM"]
properties('MP2/aug-cc-pvtz', properties = ['dipole'])
--------------------------------------------------------------------------

    Molecular point group: c1
  Charge       = 0
  Multiplicity = 1
  Basis Set: AUG-CC-PVTZ
    Blend: AUG-CC-PVTZ
  Basis Set: (AUG-CC-PVTZ AUX)
    Blend: AUG-CC-PVTZ-JKFIT

    Orbital Energies [Eh]
    ---------------------

    Doubly Occupied:

       1A    -15.552064     2A    -11.283862     3A    -11.253274
       4A    -11.230769     5A    -11.229826     6A    -11.214480
       7A     -1.280258     8A     -1.081261     9A     -0.985259
      10A     -0.905166    11A     -0.814747    12A     -0.768662
      13A     -0.680241    14A     -0.641942    15A     -0.616327
      16A     -0.590209    17A     -0.575459    18A     -0.549900
      19A     -0.508960    20A     -0.491230    21A     -0.483074
      22A     -0.470295    23A     -0.397540    24A     -0.376741

  @DF-RHF Final Energy:  -250.21513426965060

   => Energetics <=

    Nuclear Repulsion Energy =            238.7018353407580378
    One-Electron Energy =                -809.8708484339076676
    Two-Electron Energy =                 320.9538788234989966
    Total Energy =                       -250.2151342696506049
  Basis Set: (AUG-CC-PVTZ AUX)
    Blend: AUG-CC-PVTZ-RI
    Molecular point group: c1

    Geometry (in Angstrom), charge = 0, multiplicity = 1:

       Center              X                  Y                   Z               Mass
    ------------   -----------------  -----------------  -----------------  -----------------
         N           -1.448355828119     0.025383781285    -0.466656193795    14.003074004430
         C            1.920943171881    -0.255241218715     0.331246806205    12.000000000000
         C            0.733266171881    -1.027197218715    -0.260111193795    12.000000000000
         C            1.916400171881     1.218662781285    -0.064294193795    12.000000000000
         C           -0.572762828119    -0.535503218715     0.281441806205    12.000000000000
         C           -2.502665328119     0.414883281285     0.096277506205    12.000000000000
         H            1.906521171881    -0.348323218715     1.424683806205     1.007825032230
         H            2.851450171881    -0.726188218715    -0.005677193795     1.007825032230
         H            0.711993171881    -0.922469218715    -1.349643193795     1.007825032230
         H            0.838800171881    -2.094788218715    -0.024925193795     1.007825032230
         H            1.952046171881     1.325911781285    -1.152640193795     1.007825032230
         H            1.010458171881     1.720650781285     0.285830806205     1.007825032230
         H            2.779589171881     1.742126781285     0.356966806205     1.007825032230
         H           -0.731858828119    -0.664238218715     1.367284806205     1.007825032230
         H           -2.784023828119     1.551360781285     0.016086806205     1.007825032230
         H           -2.689694828119     0.280689781285     1.268701806205     1.007825032230
         H           -3.524185828119    -0.021857218715    -0.281683193795     1.007825032230

  Basis Set: AUG-CC-PVTZ
    Blend: AUG-CC-PVTZ
  Basis Set: (AUG-CC-PVTZ AUX)
    Blend: AUG-CC-PVTZ-JKFIT
	 Reference Energy          =    -250.2151342696506049 [Eh]
	 Singles Energy            =      -0.0000000000000000 [Eh]
	 Same-Spin Energy          =      -0.2645238843716974 [Eh]
	 Opposite-Spin Energy      =      -0.9376471921920058 [Eh]
	 Correlation Energy        =      -1.2021710765637033 [Eh]
	 Total Energy              =    -251.4173053462143059 [Eh]

	 ================> DF-SCS-MP2 Energies <==================
	-----------------------------------------------------------
	 SCS Same-Spin Scale       =       0.3333333333333333 [-]
	 SCS Opposite-Spin Scale   =       1.2000000000000000 [-]
	 SCS Same-Spin Energy      =      -0.0881746281238991 [Eh]
	 SCS Opposite-Spin Energy  =      -1.1251766306304070 [Eh]
	 SCS Correlation Energy    =      -1.2133512587543061 [Eh]
	 SCS Total Energy          =    -251.4284855284049058 [Eh]
	-----------------------------------------------------------

  Dipole Moment: [D]
     X:     0.7845      Y:    -0.4524      Z:     1.1764     Total:     1.4846

*** Psi4 exiting successfully. Buy a developer a beer!
