                               Psi4 1.3.2 release

  ==> Input File <==

--------------------------------------------------------------------------
#psi4
#
memory 32 gb

molecule  {
0 1
  N       -1.4514230    -0.0014080    -0.4975550
  C        1.9178760    -0.2820330     0.3003480
  C        0.7301990    -1.0539890    -0.2910100
  C        1.9133330     1.1918710    -0.0951930
  C       -0.6166549    -0.5323768     0.1022581
  C       -2.6734760     0.4500620     0.1549430
  H        1.9034540    -0.3751150     1.3937850
  H        2.8483830    -0.7529800    -0.0365760
  H        0.7089260    -0.9492610    -1.3805420
  H        0.8357330    -2.1215800    -0.0558240
  H        1.9489790     1.2991200    -1.1835390
  H        1.0073910     1.6938590     0.2549320
  H        2.7765220     1.7153350     0.3260680
  H       -0.7349260    -0.6910300     1.3363860
  H       -2.7870910     1.5245690    -0.0148120
  H       -2.6927620     0.2538980     1.2378030
  H       -3.5272530    -0.0486490    -0.3125820
units angstrom
no_reorient  #important for SAPT in psi4, default
symmetry c1  #important for SAPT in psi4, default
}

set PROPERTIES_ORIGIN ["COM"]
properties('MP2/aug-cc-pvtz', properties = ['dipole'])
--------------------------------------------------------------------------

    Molecular point group: c1
  Charge       = 0
  Multiplicity = 1
  Basis Set: AUG-CC-PVTZ
    Blend: AUG-CC-PVTZ
  Basis Set: (AUG-CC-PVTZ AUX)
    Blend: AUG-CC-PVTZ-JKFIT

    Orbital Energies [Eh]
    ---------------------

    Doubly Occupied:

       1A    -15.542877     2A    -11.267615     3A    -11.251235
       4A    -11.228102     5A    -11.225923     6A    -11.212308
       7A     -1.270987     8A     -1.070985     9A     -0.978593
      10A     -0.928180    11A     -0.819929    12A     -0.724582
      13A     -0.653659    14A     -0.637252    15A     -0.614488
      16A     -0.591117    17A     -0.585398    18A     -0.552249
      19A     -0.507251    20A     -0.494755    21A     -0.491000
      22A     -0.471816    23A     -0.432230    24A     -0.372769

  @DF-RHF Final Energy:  -250.23728408859299

   => Energetics <=

    Nuclear Repulsion Energy =            237.0404355984173321
    One-Electron Energy =                -806.7048380538394667
    Two-Electron Energy =                 319.4271183668290632
    Total Energy =                       -250.2372840885930145
  Basis Set: (AUG-CC-PVTZ AUX)
    Blend: AUG-CC-PVTZ-RI
    Molecular point group: c1

    Geometry (in Angstrom), charge = 0, multiplicity = 1:

       Center              X                  Y                   Z               Mass
    ------------   -----------------  -----------------  -----------------  -----------------
         N           -1.418941727510     0.012424850466    -0.458374912277    14.003074004430
         C            1.950357272490    -0.268200149534     0.339528087723    12.000000000000
         C            0.762680272490    -1.040156149534    -0.251829912277    12.000000000000
         C            1.945814272490     1.205703850466    -0.056012912277    12.000000000000
         C           -0.584173627510    -0.518543949534     0.141438187723    12.000000000000
         C           -2.640994727510     0.463894850466     0.194123087723    12.000000000000
         H            1.935935272490    -0.361282149534     1.432965087723     1.007825032230
         H            2.880864272490    -0.739147149534     0.002604087723     1.007825032230
         H            0.741407272490    -0.935428149534    -1.341361912277     1.007825032230
         H            0.868214272490    -2.107747149534    -0.016643912277     1.007825032230
         H            1.981460272490     1.312952850466    -1.144358912277     1.007825032230
         H            1.039872272490     1.707691850466     0.294112087723     1.007825032230
         H            2.809003272490     1.729167850466     0.365248087723     1.007825032230
         H           -0.702444727510    -0.677197149534     1.375566087723     1.007825032230
         H           -2.754609727510     1.538401850466     0.024368087723     1.007825032230
         H           -2.660280727510     0.267730850466     1.276983087723     1.007825032230
         H           -3.494771727510    -0.034816149534    -0.273401912277     1.007825032230

  Basis Set: AUG-CC-PVTZ
    Blend: AUG-CC-PVTZ
  Basis Set: (AUG-CC-PVTZ AUX)
    Blend: AUG-CC-PVTZ-JKFIT
	 Reference Energy          =    -250.2372840885929861 [Eh]
	 Singles Energy            =      -0.0000000000000000 [Eh]
	 Same-Spin Energy          =      -0.2607343248089308 [Eh]
	 Opposite-Spin Energy      =      -0.9319395166398310 [Eh]
	 Correlation Energy        =      -1.1926738414487619 [Eh]
	 Total Energy              =    -251.4299579300417520 [Eh]

	 ================> DF-SCS-MP2 Energies <==================
	-----------------------------------------------------------
	 SCS Same-Spin Scale       =       0.3333333333333333 [-]
	 SCS Opposite-Spin Scale   =       1.2000000000000000 [-]
	 SCS Same-Spin Energy      =      -0.0869114416029769 [Eh]
	 SCS Opposite-Spin Energy  =      -1.1183274199677971 [Eh]
	 SCS Correlation Energy    =      -1.2052388615707739 [Eh]
	 SCS Total Energy          =    -251.4425229501637489 [Eh]
	-----------------------------------------------------------

  Dipole Moment: [D]
     X:     0.2509      Y:    -0.1505      Z:     0.9271     Total:     0.9722

*** Psi4 exiting successfully. Buy a developer a beer!
