                               Psi4 1.3.2 release

  ==> Input File <==

--------------------------------------------------------------------------
#psi4
#
memory 32 gb

molecule  {
0 1
  N       -1.4378300    -0.0040456    -0.5151081
  C        1.9178760    -0.2820330     0.3003480
  C        0.7301990    -1.0539890    -0.2910100
  C        1.9133330     1.1918710    -0.0951930
  C       -0.5758300    -0.5622950     0.2505430
  C       -2.6734760     0.4500620     0.1549430
  H        1.9034540    -0.3751150     1.3937850
  H        2.8483830    -0.7529800    -0.0365760
  H        0.7089260    -0.9492610    -1.3805420
  H        0.8357330    -2.1215800    -0.0558240
  H        1.9489790     1.2991200    -1.1835390
  H        1.0073910     1.6938590     0.2549320
  H        2.7765220     1.7153350     0.3260680
  H       -0.7349260    -0.6910300     1.3363860
  H       -2.7870910     1.5245690    -0.0148120
  H       -2.6927620     0.2538980     1.2378030
  H       -3.5272530    -0.0486490    -0.3125820
units angstrom
no_reorient  #important for SAPT in psi4, default
symmetry c1  #important for SAPT in psi4, default
}

set PROPERTIES_ORIGIN ["COM"]
properties('MP2/aug-cc-pvtz', properties = ['dipole'])
--------------------------------------------------------------------------

    Molecular point group: c1
  Charge       = 0
  Multiplicity = 1
  Basis Set: AUG-CC-PVTZ
    Blend: AUG-CC-PVTZ
  Basis Set: (AUG-CC-PVTZ AUX)
    Blend: AUG-CC-PVTZ-JKFIT

    Orbital Energies [Eh]
    ---------------------

    Doubly Occupied:

       1A    -15.556629     2A    -11.272698     3A    -11.243884
       4A    -11.226619     5A    -11.224542     6A    -11.211109
       7A     -1.217156     8A     -1.069776     9A     -0.971851
      10A     -0.909899    11A     -0.815795    12A     -0.758018
      13A     -0.640335    14A     -0.632117    15A     -0.607332
      16A     -0.585812    17A     -0.577354    18A     -0.541631
      19A     -0.515975    20A     -0.490357    21A     -0.480530
      22A     -0.475063    23A     -0.404042    24A     -0.395920

  @DF-RHF Final Energy:  -250.26188397991660

   => Energetics <=

    Nuclear Repulsion Energy =            235.2868241578412949
    One-Electron Energy =                -803.4485303634290858
    Two-Electron Energy =                 317.8998222256711301
    Total Energy =                       -250.2618839799166039
  Basis Set: (AUG-CC-PVTZ AUX)
    Blend: AUG-CC-PVTZ-RI
    Molecular point group: c1

    Geometry (in Angstrom), charge = 0, multiplicity = 1:

       Center              X                  Y                   Z               Mass
    ------------   -----------------  -----------------  -----------------  -----------------
         N           -1.413343196723     0.014440639423    -0.493951713927    14.003074004430
         C            1.942362803277    -0.263546760577     0.321504386073    12.000000000000
         C            0.754685803277    -1.035502760577    -0.269853613927    12.000000000000
         C            1.937819803277     1.210357239423    -0.074036613927    12.000000000000
         C           -0.551343196723    -0.543808760577     0.271699386073    12.000000000000
         C           -2.648989196723     0.468548239423     0.176099386073    12.000000000000
         H            1.927940803277    -0.356628760577     1.414941386073     1.007825032230
         H            2.872869803277    -0.734493760577    -0.015419613927     1.007825032230
         H            0.733412803277    -0.930774760577    -1.359385613927     1.007825032230
         H            0.860219803277    -2.103093760577    -0.034667613927     1.007825032230
         H            1.973465803277     1.317606239423    -1.162382613927     1.007825032230
         H            1.031877803277     1.712345239423     0.276088386073     1.007825032230
         H            2.801008803277     1.733821239423     0.347224386073     1.007825032230
         H           -0.710439196723    -0.672543760577     1.357542386073     1.007825032230
         H           -2.762604196723     1.543055239423     0.006344386073     1.007825032230
         H           -2.668275196723     0.272384239423     1.258959386073     1.007825032230
         H           -3.502766196723    -0.030162760577    -0.291425613927     1.007825032230

  Basis Set: AUG-CC-PVTZ
    Blend: AUG-CC-PVTZ
  Basis Set: (AUG-CC-PVTZ AUX)
    Blend: AUG-CC-PVTZ-JKFIT
	 Reference Energy          =    -250.2618839799166039 [Eh]
	 Singles Energy            =      -0.0000000000000000 [Eh]
	 Same-Spin Energy          =      -0.2618356530567768 [Eh]
	 Opposite-Spin Energy      =      -0.9364185285663795 [Eh]
	 Correlation Energy        =      -1.1982541816231564 [Eh]
	 Total Energy              =    -251.4601381615397599 [Eh]

	 ================> DF-SCS-MP2 Energies <==================
	-----------------------------------------------------------
	 SCS Same-Spin Scale       =       0.3333333333333333 [-]
	 SCS Opposite-Spin Scale   =       1.2000000000000000 [-]
	 SCS Same-Spin Energy      =      -0.0872785510189256 [Eh]
	 SCS Opposite-Spin Energy  =      -1.1237022342796554 [Eh]
	 SCS Correlation Energy    =      -1.2109807852985810 [Eh]
	 SCS Total Energy          =    -251.4728647652151778 [Eh]
	-----------------------------------------------------------

  Dipole Moment: [D]
     X:     0.3618      Y:    -0.3415      Z:     1.4794     Total:     1.5608

*** Psi4 exiting successfully. Buy a developer a beer!
