                               Psi4 1.3.2 release

  ==> Input File <==

--------------------------------------------------------------------------
#psi4
#
memory 32 gb

molecule  {
0 1
  N       -1.4514230    -0.0014080    -0.4975550
  C        1.9178760    -0.2820330     0.3003480
  C        0.7301990    -1.0539890    -0.2910100
  C        1.9133330     1.1918710    -0.0951930
  C       -0.6630780    -0.5294478     0.2867209
  C       -2.6734760     0.4500620     0.1549430
  H        1.9034540    -0.3751150     1.3937850
  H        2.8483830    -0.7529800    -0.0365760
  H        0.7089260    -0.9492610    -1.3805420
  H        0.8357330    -2.1215800    -0.0558240
  H        1.9489790     1.2991200    -1.1835390
  H        1.0073910     1.6938590     0.2549320
  H        2.7765220     1.7153350     0.3260680
  H       -0.7349260    -0.6910300     1.3363860
  H       -2.7870910     1.5245690    -0.0148120
  H       -2.6927620     0.2538980     1.2378030
  H       -3.5272530    -0.0486490    -0.3125820
units angstrom
no_reorient  #important for SAPT in psi4, default
symmetry c1  #important for SAPT in psi4, default
}

set PROPERTIES_ORIGIN ["COM"]
properties('MP2/aug-cc-pvtz', properties = ['dipole'])
--------------------------------------------------------------------------

    Molecular point group: c1
  Charge       = 0
  Multiplicity = 1
  Basis Set: AUG-CC-PVTZ
    Blend: AUG-CC-PVTZ
  Basis Set: (AUG-CC-PVTZ AUX)
    Blend: AUG-CC-PVTZ-JKFIT

    Orbital Energies [Eh]
    ---------------------

    Doubly Occupied:

       1A    -15.553177     2A    -11.267020     3A    -11.243448
       4A    -11.224296     5A    -11.223109     6A    -11.209522
       7A     -1.243372     8A     -1.060839     9A     -0.964992
      10A     -0.910658    11A     -0.810285    12A     -0.767200
      13A     -0.645619    14A     -0.629025    15A     -0.606119
      16A     -0.589989    17A     -0.582089    18A     -0.541882
      19A     -0.507799    20A     -0.484937    21A     -0.479343
      22A     -0.469601    23A     -0.412337    24A     -0.399153

  @DF-RHF Final Energy:  -250.25548089429924

   => Energetics <=

    Nuclear Repulsion Energy =            235.3397136684946815
    One-Electron Energy =                -803.5387674577259531
    Two-Electron Energy =                 317.9435728949320037
    Total Energy =                       -250.2554808942992395
  Basis Set: (AUG-CC-PVTZ AUX)
    Blend: AUG-CC-PVTZ-RI
    Molecular point group: c1

    Geometry (in Angstrom), charge = 0, multiplicity = 1:

       Center              X                  Y                   Z               Mass
    ------------   -----------------  -----------------  -----------------  -----------------
         N           -1.412394744678     0.012011777821    -0.484389434889    14.003074004430
         C            1.956904255322    -0.268613222179     0.313513565111    12.000000000000
         C            0.769227255322    -1.040569222179    -0.277844434889    12.000000000000
         C            1.952361255322     1.205290777821    -0.082027434889    12.000000000000
         C           -0.624049744678    -0.516028022179     0.299886465111    12.000000000000
         C           -2.634447744678     0.463481777821     0.168108565111    12.000000000000
         H            1.942482255322    -0.361695222179     1.406950565111     1.007825032230
         H            2.887411255322    -0.739560222179    -0.023410434889     1.007825032230
         H            0.747954255322    -0.935841222179    -1.367376434889     1.007825032230
         H            0.874761255322    -2.108160222179    -0.042658434889     1.007825032230
         H            1.988007255322     1.312539777821    -1.170373434889     1.007825032230
         H            1.046419255322     1.707278777821     0.268097565111     1.007825032230
         H            2.815550255322     1.728754777821     0.339233565111     1.007825032230
         H           -0.695897744678    -0.677610222179     1.349551565111     1.007825032230
         H           -2.748062744678     1.537988777821    -0.001646434889     1.007825032230
         H           -2.653733744678     0.267317777821     1.250968565111     1.007825032230
         H           -3.488224744678    -0.035229222179    -0.299416434889     1.007825032230

  Basis Set: AUG-CC-PVTZ
    Blend: AUG-CC-PVTZ
  Basis Set: (AUG-CC-PVTZ AUX)
    Blend: AUG-CC-PVTZ-JKFIT
	 Reference Energy          =    -250.2554808942992395 [Eh]
	 Singles Energy            =      -0.0000000000000000 [Eh]
	 Same-Spin Energy          =      -0.2605171470219428 [Eh]
	 Opposite-Spin Energy      =      -0.9340806951991530 [Eh]
	 Correlation Energy        =      -1.1945978422210959 [Eh]
	 Total Energy              =    -251.4500787365203394 [Eh]

	 ================> DF-SCS-MP2 Energies <==================
	-----------------------------------------------------------
	 SCS Same-Spin Scale       =       0.3333333333333333 [-]
	 SCS Opposite-Spin Scale   =       1.2000000000000000 [-]
	 SCS Same-Spin Energy      =      -0.0868390490073143 [Eh]
	 SCS Opposite-Spin Energy  =      -1.1208968342389836 [Eh]
	 SCS Correlation Energy    =      -1.2077358832462979 [Eh]
	 SCS Total Energy          =    -251.4632167775455400 [Eh]
	-----------------------------------------------------------

  Dipole Moment: [D]
     X:     0.1141      Y:    -0.2721      Z:     1.5027     Total:     1.5314

*** Psi4 exiting successfully. Buy a developer a beer!
