                               Psi4 1.3.2 release

  ==> Input File <==

--------------------------------------------------------------------------
#psi4
#
memory 32 gb

molecule  {
0 1
  N       -1.4514230    -0.0014080    -0.4975550
  C        1.9178760    -0.2820330     0.3003480
  C        0.7301990    -1.0539890    -0.2910100
  C        1.9133330     1.1918710    -0.0951930
  C       -0.5758300    -0.5622950     0.2505430
  C       -2.6734760     0.4500620     0.1549430
  H        1.9034540    -0.3751150     1.3937850
  H        2.8483830    -0.7529800    -0.0365760
  H        0.7089260    -0.9492610    -1.3805420
  H        0.8357330    -2.1215800    -0.0558240
  H        1.9489790     1.2991200    -1.1835390
  H        1.0073910     1.6938590     0.2549320
  H        2.7765220     1.7153350     0.3260680
  H       -0.7205277    -0.6793794     1.2381162
  H       -2.7870910     1.5245690    -0.0148120
  H       -2.6927620     0.2538980     1.2378030
  H       -3.5272530    -0.0486490    -0.3125820
units angstrom
no_reorient  #important for SAPT in psi4, default
symmetry c1  #important for SAPT in psi4, default
}

set PROPERTIES_ORIGIN ["COM"]
properties('MP2/aug-cc-pvtz', properties = ['dipole'])
--------------------------------------------------------------------------

    Molecular point group: c1
  Charge       = 0
  Multiplicity = 1
  Basis Set: AUG-CC-PVTZ
    Blend: AUG-CC-PVTZ
  Basis Set: (AUG-CC-PVTZ AUX)
    Blend: AUG-CC-PVTZ-JKFIT

    Orbital Energies [Eh]
    ---------------------

    Doubly Occupied:

       1A    -15.553366     2A    -11.260641     3A    -11.242374
       4A    -11.226773     5A    -11.223791     6A    -11.211232
       7A     -1.220155     8A     -1.070650     9A     -0.974817
      10A     -0.910218    11A     -0.818126    12A     -0.776787
      13A     -0.645979    14A     -0.633755    15A     -0.608860
      16A     -0.588415    17A     -0.578657    18A     -0.542768
      19A     -0.519455    20A     -0.490149    21A     -0.480564
      22A     -0.475462    23A     -0.402350    24A     -0.393892

  @DF-RHF Final Energy:  -250.25810558480467

   => Energetics <=

    Nuclear Repulsion Energy =            235.9299819894125392
    One-Electron Energy =                -804.6777064479904311
    Two-Electron Energy =                 318.4896188737732245
    Total Energy =                       -250.2581055848046390
  Basis Set: (AUG-CC-PVTZ AUX)
    Blend: AUG-CC-PVTZ-RI
    Molecular point group: c1

    Geometry (in Angstrom), charge = 0, multiplicity = 1:

       Center              X                  Y                   Z               Mass
    ------------   -----------------  -----------------  -----------------  -----------------
         N           -1.424869742667     0.016506177360    -0.478123376662    14.003074004430
         C            1.944429257333    -0.264118822640     0.319779623338    12.000000000000
         C            0.756752257333    -1.036074822640    -0.271578376662    12.000000000000
         C            1.939886257333     1.209785177360    -0.075761376662    12.000000000000
         C           -0.549276742667    -0.544380822640     0.269974623338    12.000000000000
         C           -2.646922742667     0.467976177360     0.174374623338    12.000000000000
         H            1.930007257333    -0.357200822640     1.413216623338     1.007825032230
         H            2.874936257333    -0.735065822640    -0.017144376662     1.007825032230
         H            0.735479257333    -0.931346822640    -1.361110376662     1.007825032230
         H            0.862286257333    -2.103665822640    -0.036392376662     1.007825032230
         H            1.975532257333     1.317034177360    -1.164107376662     1.007825032230
         H            1.033944257333     1.711773177360     0.274363623338     1.007825032230
         H            2.803075257333     1.733249177360     0.345499623338     1.007825032230
         H           -0.693974442667    -0.661465222640     1.257547823338     1.007825032230
         H           -2.760537742667     1.542483177360     0.004619623338     1.007825032230
         H           -2.666208742667     0.271812177360     1.257234623338     1.007825032230
         H           -3.500699742667    -0.030734822640    -0.293150376662     1.007825032230

  Basis Set: AUG-CC-PVTZ
    Blend: AUG-CC-PVTZ
  Basis Set: (AUG-CC-PVTZ AUX)
    Blend: AUG-CC-PVTZ-JKFIT
	 Reference Energy          =    -250.2581055848046674 [Eh]
	 Singles Energy            =      -0.0000000000000000 [Eh]
	 Same-Spin Energy          =      -0.2614870854790872 [Eh]
	 Opposite-Spin Energy      =      -0.9354123630278328 [Eh]
	 Correlation Energy        =      -1.1968994485069200 [Eh]
	 Total Energy              =    -251.4550050333115792 [Eh]

	 ================> DF-SCS-MP2 Energies <==================
	-----------------------------------------------------------
	 SCS Same-Spin Scale       =       0.3333333333333333 [-]
	 SCS Opposite-Spin Scale   =       1.2000000000000000 [-]
	 SCS Same-Spin Energy      =      -0.0871623618263624 [Eh]
	 SCS Opposite-Spin Energy  =      -1.1224948356333992 [Eh]
	 SCS Correlation Energy    =      -1.2096571974597616 [Eh]
	 SCS Total Energy          =    -251.4677627822644297 [Eh]
	-----------------------------------------------------------

  Dipole Moment: [D]
     X:     0.3825      Y:    -0.3584      Z:     1.5231     Total:     1.6108

*** Psi4 exiting successfully. Buy a developer a beer!
