                               Psi4 1.3.2 release

  ==> Input File <==

--------------------------------------------------------------------------
#psi4
#
memory 32 gb

molecule  {
0 1
  N       -1.4514230    -0.0014080    -0.4975550
  C        1.9178760    -0.2820330     0.3003480
  C        0.7301990    -1.0539890    -0.2910100
  C        1.9133330     1.1918710    -0.0951930
  C       -0.5892844    -0.5593613     0.2681558
  C       -2.6734760     0.4500620     0.1549430
  H        1.9034540    -0.3751150     1.3937850
  H        2.8483830    -0.7529800    -0.0365760
  H        0.7089260    -0.9492610    -1.3805420
  H        0.8357330    -2.1215800    -0.0558240
  H        1.9489790     1.2991200    -1.1835390
  H        1.0073910     1.6938590     0.2549320
  H        2.7765220     1.7153350     0.3260680
  H       -0.7349260    -0.6910300     1.3363860
  H       -2.7870910     1.5245690    -0.0148120
  H       -2.6927620     0.2538980     1.2378030
  H       -3.5272530    -0.0486490    -0.3125820
units angstrom
no_reorient  #important for SAPT in psi4, default
symmetry c1  #important for SAPT in psi4, default
}

set PROPERTIES_ORIGIN ["COM"]
properties('MP2/aug-cc-pvtz', properties = ['dipole'])
--------------------------------------------------------------------------

    Molecular point group: c1
  Charge       = 0
  Multiplicity = 1
  Basis Set: AUG-CC-PVTZ
    Blend: AUG-CC-PVTZ
  Basis Set: (AUG-CC-PVTZ AUX)
    Blend: AUG-CC-PVTZ-JKFIT

    Orbital Energies [Eh]
    ---------------------

    Doubly Occupied:

       1A    -15.555566     2A    -11.272109     3A    -11.242364
       4A    -11.226305     5A    -11.225479     6A    -11.210939
       7A     -1.220387     8A     -1.068778     9A     -0.971523
      10A     -0.909609    11A     -0.814516    12A     -0.762275
      13A     -0.642228    14A     -0.632236    15A     -0.607532
      16A     -0.587048    17A     -0.579019    18A     -0.542432
      19A     -0.515644    20A     -0.489279    21A     -0.479881
      22A     -0.474252    23A     -0.403761    24A     -0.395518

  @DF-RHF Final Energy:  -250.26242169257264

   => Energetics <=

    Nuclear Repulsion Energy =            235.2925072553980783
    One-Electron Energy =                -803.4524975436730756
    Two-Electron Energy =                 317.8975685957024098
    Total Energy =                       -250.2624216925726159
  Basis Set: (AUG-CC-PVTZ AUX)
    Blend: AUG-CC-PVTZ-RI
    Molecular point group: c1

    Geometry (in Angstrom), charge = 0, multiplicity = 1:

       Center              X                  Y                   Z               Mass
    ------------   -----------------  -----------------  -----------------  -----------------
         N           -1.422801749645     0.016230435578    -0.481771225614    14.003074004430
         C            1.946497250355    -0.264394564422     0.316131774386    12.000000000000
         C            0.758820250355    -1.036350564422    -0.275226225614    12.000000000000
         C            1.941954250355     1.209509435578    -0.079409225614    12.000000000000
         C           -0.560663149645    -0.541722864422     0.283939574386    12.000000000000
         C           -2.644854749645     0.467700435578     0.170726774386    12.000000000000
         H            1.932075250355    -0.357476564422     1.409568774386     1.007825032230
         H            2.877004250355    -0.735341564422    -0.020792225614     1.007825032230
         H            0.737547250355    -0.931622564422    -1.364758225614     1.007825032230
         H            0.864354250355    -2.103941564422    -0.040040225614     1.007825032230
         H            1.977600250355     1.316758435578    -1.167755225614     1.007825032230
         H            1.036012250355     1.711497435578     0.270715774386     1.007825032230
         H            2.805143250355     1.732973435578     0.341851774386     1.007825032230
         H           -0.706304749645    -0.673391564422     1.352169774386     1.007825032230
         H           -2.758469749645     1.542207435578     0.000971774386     1.007825032230
         H           -2.664140749645     0.271536435578     1.253586774386     1.007825032230
         H           -3.498631749645    -0.031010564422    -0.296798225614     1.007825032230

  Basis Set: AUG-CC-PVTZ
    Blend: AUG-CC-PVTZ
  Basis Set: (AUG-CC-PVTZ AUX)
    Blend: AUG-CC-PVTZ-JKFIT
	 Reference Energy          =    -250.2624216925726444 [Eh]
	 Singles Energy            =      -0.0000000000000000 [Eh]
	 Same-Spin Energy          =      -0.2616554129048311 [Eh]
	 Opposite-Spin Energy      =      -0.9359959177992039 [Eh]
	 Correlation Energy        =      -1.1976513307040348 [Eh]
	 Total Energy              =    -251.4600730232766921 [Eh]

	 ================> DF-SCS-MP2 Energies <==================
	-----------------------------------------------------------
	 SCS Same-Spin Scale       =       0.3333333333333333 [-]
	 SCS Opposite-Spin Scale   =       1.2000000000000000 [-]
	 SCS Same-Spin Energy      =      -0.0872184709682770 [Eh]
	 SCS Opposite-Spin Energy  =      -1.1231951013590447 [Eh]
	 SCS Correlation Energy    =      -1.2104135723273217 [Eh]
	 SCS Total Energy          =    -251.4728352648999703 [Eh]
	-----------------------------------------------------------

  Dipole Moment: [D]
     X:     0.3444      Y:    -0.3374      Z:     1.4699     Total:     1.5469

*** Psi4 exiting successfully. Buy a developer a beer!
