                               Psi4 1.4a3.dev225

  ==> Input File <==

--------------------------------------------------------------------------
#psi4
#
memory 32 gb

molecule  {
0 1
  N       -1.4513250    -0.0010140    -0.4975640
  C        1.9178130    -0.2820920     0.3002790
  C        0.7301270    -1.0540560    -0.2910000
  C        1.9134960     1.1918760    -0.0950710
  C       -0.5934384    -0.5558028     0.2576628
  C       -2.6734840     0.4500370     0.1549490
  H        1.9036020    -0.3753030     1.3937060
  H        2.8482930    -0.7529860    -0.0368320
  H        0.7089100    -0.9495730    -1.3805570
  H        0.8355610    -2.1216230    -0.0556080
  H        1.9497200     1.2992090    -1.1833850
  H        1.0073830     1.6938500     0.2545960
  H        2.7764960     1.7152480     0.3266950
  H       -0.7352490    -0.6914900     1.3362220
  H       -2.7876940     1.5244090    -0.0151890
  H       -2.6923780     0.2543160     1.2378980
  H       -3.5271550    -0.0493170    -0.3121090
units angstrom
no_reorient  #important for SAPT in psi4, default
symmetry c1  #important for SAPT in psi4, default
}

set PROPERTIES_ORIGIN ["COM"]
properties('MP2/aug-cc-pvtz', properties = ['dipole'])
--------------------------------------------------------------------------

    Molecular point group: c1
  Charge       = 0
  Multiplicity = 1
  Basis Set: AUG-CC-PVTZ
    Blend: AUG-CC-PVTZ
  Basis Set: (AUG-CC-PVTZ AUX)
    Blend: AUG-CC-PVTZ-JKFIT

    Orbital Energies [Eh]
    ---------------------

    Doubly Occupied:

       1A    -15.554417     2A    -11.271470     3A    -11.242828
       4A    -11.226280     5A    -11.225311     6A    -11.210971
       7A     -1.224176     8A     -1.068618     9A     -0.971589
      10A     -0.910871    11A     -0.814568    12A     -0.759454
      13A     -0.642975    14A     -0.632224    15A     -0.607730
      16A     -0.587331    17A     -0.579563    18A     -0.542865
      19A     -0.514818    20A     -0.489378    21A     -0.480572
      22A     -0.474136    23A     -0.402306    24A     -0.398413

  @DF-RHF Final Energy:  -250.26335153275423

   => Energetics <=

    Nuclear Repulsion Energy =            235.4111013384132320
    One-Electron Energy =                -803.6831834652314228
    Two-Electron Energy =                 318.0087305940639908
    Total Energy =                       -250.2633515327542000
  Basis Set: (AUG-CC-PVTZ AUX)
    Blend: AUG-CC-PVTZ-RI
    Molecular point group: c1

    Geometry (in Angstrom), charge = 0, multiplicity = 1:

       Center              X                  Y                   Z               Mass
    ------------   -----------------  -----------------  -----------------  -----------------
         N           -1.422138440691     0.016095225297    -0.480312666193    14.003074004430
         C            1.946999559309    -0.264982774703     0.317530333807    12.000000000000
         C            0.759313559309    -1.036946774703    -0.273748666193    12.000000000000
         C            1.942682559309     1.208985225297    -0.077819666193    12.000000000000
         C           -0.564251840691    -0.538693574703     0.274914133807    12.000000000000
         C           -2.644297440691     0.467146225297     0.172200333807    12.000000000000
         H            1.932788559309    -0.358193774703     1.410957333807     1.007825032230
         H            2.877479559309    -0.735876774703    -0.019580666193     1.007825032230
         H            0.738096559309    -0.932463774703    -1.363305666193     1.007825032230
         H            0.864747559309    -2.104513774703    -0.038356666193     1.007825032230
         H            1.978906559309     1.316318225297    -1.166133666193     1.007825032230
         H            1.036569559309     1.710959225297     0.271847333807     1.007825032230
         H            2.805682559309     1.732357225297     0.343946333807     1.007825032230
         H           -0.706062440691    -0.674380774703     1.353473333807     1.007825032230
         H           -2.758507440691     1.541518225297     0.002062333807     1.007825032230
         H           -2.663191440691     0.271425225297     1.255149333807     1.007825032230
         H           -3.497968440691    -0.032207774703    -0.294857666193     1.007825032230

  Basis Set: AUG-CC-PVTZ
    Blend: AUG-CC-PVTZ
  Basis Set: (AUG-CC-PVTZ AUX)
    Blend: AUG-CC-PVTZ-JKFIT
	 Reference Energy          =    -250.2633515327542284 [Eh]
	 Singles Energy            =      -0.0000000000000000 [Eh]
	 Same-Spin Energy          =      -0.2614781135521000 [Eh]
	 Opposite-Spin Energy      =      -0.9354807498323700 [Eh]
	 Correlation Energy        =      -1.1969588633844701 [Eh]
	 Total Energy              =    -251.4603103961387092 [Eh]

	 ================> DF-SCS-MP2 Energies <==================
	-----------------------------------------------------------
	 SCS Same-Spin Scale       =       0.3333333333333333 [-]
	 SCS Opposite-Spin Scale   =       1.2000000000000000 [-]
	 SCS Same-Spin Energy      =      -0.0871593711840333 [Eh]
	 SCS Opposite-Spin Energy  =      -1.1225768997988439 [Eh]
	 SCS Correlation Energy    =      -1.2097362709828772 [Eh]
	 SCS Total Energy          =    -251.4730878037371156 [Eh]
	-----------------------------------------------------------

  Dipole Moment: [D]
     X:     0.3349      Y:    -0.3289      Z:     1.4480     Total:     1.5222

*** Psi4 exiting successfully. Buy a developer a beer!
