                               Psi4 1.4a3.dev225

  ==> Input File <==

--------------------------------------------------------------------------
#psi4
#
memory 32 gb

molecule  {
0 1
  N       -1.4513250    -0.0010140    -0.4975640
  C        1.9178130    -0.2820920     0.3002790
  C        0.7301270    -1.0540560    -0.2910000
  C        1.9134960     1.1918760    -0.0950710
  C       -0.5759880    -0.5623720     0.2504290
  C       -2.7154245     0.4655156     0.1773411
  H        1.9036020    -0.3753030     1.3937060
  H        2.8482930    -0.7529860    -0.0368320
  H        0.7089100    -0.9495730    -1.3805570
  H        0.8355610    -2.1216230    -0.0556080
  H        1.9497200     1.2992090    -1.1833850
  H        1.0073830     1.6938500     0.2545960
  H        2.7764960     1.7152480     0.3266950
  H       -0.7352490    -0.6914900     1.3362220
  H       -2.7876940     1.5244090    -0.0151890
  H       -2.6923780     0.2543160     1.2378980
  H       -3.5271550    -0.0493170    -0.3121090
units angstrom
no_reorient  #important for SAPT in psi4, default
symmetry c1  #important for SAPT in psi4, default
}

set PROPERTIES_ORIGIN ["COM"]
properties('MP2/aug-cc-pvtz', properties = ['dipole'])
--------------------------------------------------------------------------

    Molecular point group: c1
  Charge       = 0
  Multiplicity = 1
  Basis Set: AUG-CC-PVTZ
    Blend: AUG-CC-PVTZ
  Basis Set: (AUG-CC-PVTZ AUX)
    Blend: AUG-CC-PVTZ-JKFIT

    Orbital Energies [Eh]
    ---------------------

    Doubly Occupied:

       1A    -15.555047     2A    -11.270929     3A    -11.241874
       4A    -11.226329     5A    -11.224612     6A    -11.210761
       7A     -1.209833     8A     -1.068814     9A     -0.971838
      10A     -0.913071    11A     -0.815622    12A     -0.755241
      13A     -0.634414    14A     -0.632321    15A     -0.606037
      16A     -0.588504    17A     -0.583065    18A     -0.540930
      19A     -0.520084    20A     -0.490415    21A     -0.481126
      22A     -0.475499    23A     -0.397760    24A     -0.396366

  @DF-RHF Final Energy:  -250.26062255861868

   => Energetics <=

    Nuclear Repulsion Energy =            234.7234852384932822
    One-Electron Energy =                -802.3472330312092708
    Two-Electron Energy =                 317.3631252340973106
    Total Energy =                       -250.2606225586187065
  Basis Set: (AUG-CC-PVTZ AUX)
    Blend: AUG-CC-PVTZ-RI
    Molecular point group: c1

    Geometry (in Angstrom), charge = 0, multiplicity = 1:

       Center              X                  Y                   Z               Mass
    ------------   -----------------  -----------------  -----------------  -----------------
         N           -1.418684637213     0.014838745466    -0.482450419377    14.003074004430
         C            1.950453362787    -0.266239254534     0.315392580623    12.000000000000
         C            0.762767362787    -1.038203254534    -0.275886419377    12.000000000000
         C            1.946136362787     1.207728745466    -0.079957419377    12.000000000000
         C           -0.543347637213    -0.546519254534     0.265542580623    12.000000000000
         C           -2.682784137213     0.481368345466     0.192454680623    12.000000000000
         H            1.936242362787    -0.359450254534     1.408819580623     1.007825032230
         H            2.880933362787    -0.737133254534    -0.021718419377     1.007825032230
         H            0.741550362787    -0.933720254534    -1.365443419377     1.007825032230
         H            0.868201362787    -2.105770254534    -0.040494419377     1.007825032230
         H            1.982360362787     1.315061745466    -1.168271419377     1.007825032230
         H            1.040023362787     1.709702745466     0.269709580623     1.007825032230
         H            2.809136362787     1.731100745466     0.341808580623     1.007825032230
         H           -0.702608637213    -0.675637254534     1.351335580623     1.007825032230
         H           -2.755053637213     1.540261745466    -0.000075419377     1.007825032230
         H           -2.659737637213     0.270168745466     1.253011580623     1.007825032230
         H           -3.494514637213    -0.033464254534    -0.296995419377     1.007825032230

  Basis Set: AUG-CC-PVTZ
    Blend: AUG-CC-PVTZ
  Basis Set: (AUG-CC-PVTZ AUX)
    Blend: AUG-CC-PVTZ-JKFIT
	 Reference Energy          =    -250.2606225586186781 [Eh]
	 Singles Energy            =      -0.0000000000000000 [Eh]
	 Same-Spin Energy          =      -0.2616936218629512 [Eh]
	 Opposite-Spin Energy      =      -0.9364267725874301 [Eh]
	 Correlation Energy        =      -1.1981203944503813 [Eh]
	 Total Energy              =    -251.4587429530690486 [Eh]

	 ================> DF-SCS-MP2 Energies <==================
	-----------------------------------------------------------
	 SCS Same-Spin Scale       =       0.3333333333333333 [-]
	 SCS Opposite-Spin Scale   =       1.2000000000000000 [-]
	 SCS Same-Spin Energy      =      -0.0872312072876504 [Eh]
	 SCS Opposite-Spin Energy  =      -1.1237121271049162 [Eh]
	 SCS Correlation Energy    =      -1.2109433343925666 [Eh]
	 SCS Total Energy          =    -251.4715658930112454 [Eh]
	-----------------------------------------------------------

  Dipole Moment: [D]
     X:     0.3264      Y:    -0.3236      Z:     1.4725     Total:     1.5425

*** Psi4 exiting successfully. Buy a developer a beer!
