                               Psi4 1.3.2 release

  ==> Input File <==

--------------------------------------------------------------------------
#psi4
#
memory 32 gb

molecule  {
0 1
  N       -1.4560734    -0.0250464    -0.4894135
  C        1.9178760    -0.2820330     0.3003480
  C        0.7301990    -1.0539890    -0.2910100
  C        1.9133330     1.1918710    -0.0951930
  C       -0.5758300    -0.5622950     0.2505430
  C       -2.6734760     0.4500620     0.1549430
  H        1.9034540    -0.3751150     1.3937850
  H        2.8483830    -0.7529800    -0.0365760
  H        0.7089260    -0.9492610    -1.3805420
  H        0.8357330    -2.1215800    -0.0558240
  H        1.9489790     1.2991200    -1.1835390
  H        1.0073910     1.6938590     0.2549320
  H        2.7765220     1.7153350     0.3260680
  H       -0.7349260    -0.6910300     1.3363860
  H       -2.7870910     1.5245690    -0.0148120
  H       -2.6927620     0.2538980     1.2378030
  H       -3.5272530    -0.0486490    -0.3125820
units angstrom
no_reorient  #important for SAPT in psi4, default
symmetry c1  #important for SAPT in psi4, default
}

set PROPERTIES_ORIGIN ["COM"]
properties('MP2/aug-cc-pvtz', properties = ['dipole'])
--------------------------------------------------------------------------

    Molecular point group: c1
  Charge       = 0
  Multiplicity = 1
  Basis Set: AUG-CC-PVTZ
    Blend: AUG-CC-PVTZ
  Basis Set: (AUG-CC-PVTZ AUX)
    Blend: AUG-CC-PVTZ-JKFIT

    Orbital Energies [Eh]
    ---------------------

    Doubly Occupied:

       1A    -15.552646     2A    -11.270733     3A    -11.243302
       4A    -11.226854     5A    -11.224971     6A    -11.211491
       7A     -1.223371     8A     -1.070677     9A     -0.973902
      10A     -0.912071    11A     -0.815746    12A     -0.756577
      13A     -0.643633    14A     -0.633570    15A     -0.608636
      16A     -0.587042    17A     -0.579461    18A     -0.543553
      19A     -0.517116    20A     -0.490699    21A     -0.481627
      22A     -0.475500    23A     -0.399425    24A     -0.397203

  @DF-RHF Final Energy:  -250.26393214549029

   => Energetics <=

    Nuclear Repulsion Energy =            235.6125901010116763
    One-Electron Energy =                -804.0734336840782817
    Two-Electron Energy =                 318.1969114375763752
    Total Energy =                       -250.2639321454902870
  Basis Set: (AUG-CC-PVTZ AUX)
    Blend: AUG-CC-PVTZ-RI
    Molecular point group: c1

    Geometry (in Angstrom), charge = 0, multiplicity = 1:

       Center              X                  Y                   Z               Mass
    ------------   -----------------  -----------------  -----------------  -----------------
         N           -1.428584290527    -0.003104070597    -0.472485659964    14.003074004430
         C            1.945365109473    -0.260090670597     0.317275840036    12.000000000000
         C            0.757688109473    -1.032046670597    -0.274082159964    12.000000000000
         C            1.940822109473     1.213813329403    -0.078265159964    12.000000000000
         C           -0.548340890527    -0.540352670597     0.267470840036    12.000000000000
         C           -2.645986890527     0.472004329403     0.171870840036    12.000000000000
         H            1.930943109473    -0.353172670597     1.410712840036     1.007825032230
         H            2.875872109473    -0.731037670597    -0.019648159964     1.007825032230
         H            0.736415109473    -0.927318670597    -1.363614159964     1.007825032230
         H            0.863222109473    -2.099637670597    -0.038896159964     1.007825032230
         H            1.976468109473     1.321062329403    -1.166611159964     1.007825032230
         H            1.034880109473     1.715801329403     0.271859840036     1.007825032230
         H            2.804011109473     1.737277329403     0.342995840036     1.007825032230
         H           -0.707436890527    -0.669087670597     1.353313840036     1.007825032230
         H           -2.759601890527     1.546511329403     0.002115840036     1.007825032230
         H           -2.665272890527     0.275840329403     1.254730840036     1.007825032230
         H           -3.499763890527    -0.026706670597    -0.295654159964     1.007825032230

  Basis Set: AUG-CC-PVTZ
    Blend: AUG-CC-PVTZ
  Basis Set: (AUG-CC-PVTZ AUX)
    Blend: AUG-CC-PVTZ-JKFIT
	 Reference Energy          =    -250.2639321454902870 [Eh]
	 Singles Energy            =      -0.0000000000000000 [Eh]
	 Same-Spin Energy          =      -0.2615807185150731 [Eh]
	 Opposite-Spin Energy      =      -0.9353202857131409 [Eh]
	 Correlation Energy        =      -1.1969010042282140 [Eh]
	 Total Energy              =    -251.4608331497184963 [Eh]

	 ================> DF-SCS-MP2 Energies <==================
	-----------------------------------------------------------
	 SCS Same-Spin Scale       =       0.3333333333333333 [-]
	 SCS Opposite-Spin Scale   =       1.2000000000000000 [-]
	 SCS Same-Spin Energy      =      -0.0871935728383577 [Eh]
	 SCS Opposite-Spin Energy  =      -1.1223843428557689 [Eh]
	 SCS Correlation Energy    =      -1.2095779156941266 [Eh]
	 SCS Total Energy          =    -251.4735100611844132 [Eh]
	-----------------------------------------------------------

  Dipole Moment: [D]
     X:     0.3854      Y:    -0.2953      Z:     1.4129     Total:     1.4940

*** Psi4 exiting successfully. Buy a developer a beer!
