                               Psi4 1.3.2 release

  ==> Input File <==

--------------------------------------------------------------------------
#psi4
#
memory 32 gb

molecule  {
0 1
  N       -1.4514230    -0.0014080    -0.4975550
  C        1.9345910    -0.2969984     0.2857067
  C        0.7301990    -1.0539890    -0.2910100
  C        1.9133330     1.1918710    -0.0951930
  C       -0.5758300    -0.5622950     0.2505430
  C       -2.6734760     0.4500620     0.1549430
  H        1.9034540    -0.3751150     1.3937850
  H        2.8483830    -0.7529800    -0.0365760
  H        0.7089260    -0.9492610    -1.3805420
  H        0.8357330    -2.1215800    -0.0558240
  H        1.9489790     1.2991200    -1.1835390
  H        1.0073910     1.6938590     0.2549320
  H        2.7765220     1.7153350     0.3260680
  H       -0.7349260    -0.6910300     1.3363860
  H       -2.7870910     1.5245690    -0.0148120
  H       -2.6927620     0.2538980     1.2378030
  H       -3.5272530    -0.0486490    -0.3125820
units angstrom
no_reorient  #important for SAPT in psi4, default
symmetry c1  #important for SAPT in psi4, default
}

set PROPERTIES_ORIGIN ["COM"]
properties('MP2/aug-cc-pvtz', properties = ['dipole'])
--------------------------------------------------------------------------

    Molecular point group: c1
  Charge       = 0
  Multiplicity = 1
  Basis Set: AUG-CC-PVTZ
    Blend: AUG-CC-PVTZ
  Basis Set: (AUG-CC-PVTZ AUX)
    Blend: AUG-CC-PVTZ-JKFIT

    Orbital Energies [Eh]
    ---------------------

    Doubly Occupied:

       1A    -15.555147     2A    -11.273281     3A    -11.242932
       4A    -11.226635     5A    -11.225288     6A    -11.211633
       7A     -1.219810     8A     -1.069820     9A     -0.972737
      10A     -0.910529    11A     -0.817678    12A     -0.757139
      13A     -0.642821    14A     -0.633636    15A     -0.607109
      16A     -0.587391    17A     -0.579360    18A     -0.542157
      19A     -0.517303    20A     -0.488393    21A     -0.485019
      22A     -0.472456    23A     -0.402219    24A     -0.395023

  @DF-RHF Final Energy:  -250.26221024984264

   => Energetics <=

    Nuclear Repulsion Energy =            235.2749373435997029
    One-Electron Energy =                -803.4032658772007380
    Two-Electron Energy =                 317.8661182837583397
    Total Energy =                       -250.2622102498426671
  Basis Set: (AUG-CC-PVTZ AUX)
    Blend: AUG-CC-PVTZ-RI
    Molecular point group: c1

    Geometry (in Angstrom), charge = 0, multiplicity = 1:

       Center              X                  Y                   Z               Mass
    ------------   -----------------  -----------------  -----------------  -----------------
         N           -1.427056496610     0.018754719833    -0.477222476415    14.003074004430
         C            1.958957503390    -0.276835680167     0.306039223585    12.000000000000
         C            0.754565503390    -1.033826280167    -0.270677476415    12.000000000000
         C            1.937699503390     1.212033719833    -0.074860476415    12.000000000000
         C           -0.551463496610    -0.542132280167     0.270875523585    12.000000000000
         C           -2.649109496610     0.470224719833     0.175275523585    12.000000000000
         H            1.927820503390    -0.354952280167     1.414117523585     1.007825032230
         H            2.872749503390    -0.732817280167    -0.016243476415     1.007825032230
         H            0.733292503390    -0.929098280167    -1.360209476415     1.007825032230
         H            0.860099503390    -2.101417280167    -0.035491476415     1.007825032230
         H            1.973345503390     1.319282719833    -1.163206476415     1.007825032230
         H            1.031757503390     1.714021719833     0.275264523585     1.007825032230
         H            2.800888503390     1.735497719833     0.346400523585     1.007825032230
         H           -0.710559496610    -0.670867280167     1.356718523585     1.007825032230
         H           -2.762724496610     1.544731719833     0.005520523585     1.007825032230
         H           -2.668395496610     0.274060719833     1.258135523585     1.007825032230
         H           -3.502886496610    -0.028486280167    -0.292249476415     1.007825032230

  Basis Set: AUG-CC-PVTZ
    Blend: AUG-CC-PVTZ
  Basis Set: (AUG-CC-PVTZ AUX)
    Blend: AUG-CC-PVTZ-JKFIT
	 Reference Energy          =    -250.2622102498426386 [Eh]
	 Singles Energy            =      -0.0000000000000000 [Eh]
	 Same-Spin Energy          =      -0.2617567635724761 [Eh]
	 Opposite-Spin Energy      =      -0.9359976452399179 [Eh]
	 Correlation Energy        =      -1.1977544088123939 [Eh]
	 Total Energy              =    -251.4599646586550250 [Eh]

	 ================> DF-SCS-MP2 Energies <==================
	-----------------------------------------------------------
	 SCS Same-Spin Scale       =       0.3333333333333333 [-]
	 SCS Opposite-Spin Scale   =       1.2000000000000000 [-]
	 SCS Same-Spin Energy      =      -0.0872522545241587 [Eh]
	 SCS Opposite-Spin Energy  =      -1.1231971742879014 [Eh]
	 SCS Correlation Energy    =      -1.2104494288120602 [Eh]
	 SCS Total Energy          =    -251.4726596786547077 [Eh]
	-----------------------------------------------------------

  Dipole Moment: [D]
     X:     0.3877      Y:    -0.3437      Z:     1.4261     Total:     1.5173

*** Psi4 exiting successfully. Buy a developer a beer!
