                               Psi4 1.3.2 release

  ==> Input File <==

--------------------------------------------------------------------------
#psi4
#
memory 32 gb

molecule  {
0 1
  N       -1.4514230    -0.0014080    -0.4975550
  C        1.9178760    -0.2820330     0.3003480
  C        0.7301990    -1.0539890    -0.2910100
  C        1.9133330     1.1918710    -0.0951930
  C       -0.5247195    -0.5723131     0.1778678
  C       -2.6734760     0.4500620     0.1549430
  H        1.9034540    -0.3751150     1.3937850
  H        2.8483830    -0.7529800    -0.0365760
  H        0.7089260    -0.9492610    -1.3805420
  H        0.8357330    -2.1215800    -0.0558240
  H        1.9489790     1.2991200    -1.1835390
  H        1.0073910     1.6938590     0.2549320
  H        2.7765220     1.7153350     0.3260680
  H       -0.7349260    -0.6910300     1.3363860
  H       -2.7870910     1.5245690    -0.0148120
  H       -2.6927620     0.2538980     1.2378030
  H       -3.5272530    -0.0486490    -0.3125820
units angstrom
no_reorient  #important for SAPT in psi4, default
symmetry c1  #important for SAPT in psi4, default
}

set PROPERTIES_ORIGIN ["COM"]
properties('MP2/aug-cc-pvtz', properties = ['dipole'])
--------------------------------------------------------------------------

    Molecular point group: c1
  Charge       = 0
  Multiplicity = 1
  Basis Set: AUG-CC-PVTZ
    Blend: AUG-CC-PVTZ
  Basis Set: (AUG-CC-PVTZ AUX)
    Blend: AUG-CC-PVTZ-JKFIT

    Orbital Energies [Eh]
    ---------------------

    Doubly Occupied:

       1A    -15.552797     2A    -11.277057     3A    -11.244746
       4A    -11.230243     5A    -11.224835     6A    -11.212985
       7A     -1.217588     8A     -1.080364     9A     -0.982268
      10A     -0.915272    11A     -0.822975    12A     -0.741234
      13A     -0.645910    14A     -0.637150    15A     -0.610782
      16A     -0.586381    17A     -0.578924    18A     -0.547644
      19A     -0.516599    20A     -0.495849    21A     -0.487308
      22A     -0.477021    23A     -0.392788    24A     -0.390437

  @DF-RHF Final Energy:  -250.25330098729114

   => Energetics <=

    Nuclear Repulsion Energy =            236.0648499238274383
    One-Electron Energy =                -804.8979887674864813
    Two-Electron Energy =                 318.5798378563679307
    Total Energy =                       -250.2533009872911407
  Basis Set: (AUG-CC-PVTZ AUX)
    Blend: AUG-CC-PVTZ-RI
    Molecular point group: c1

    Geometry (in Angstrom), charge = 0, multiplicity = 1:

       Center              X                  Y                   Z               Mass
    ------------   -----------------  -----------------  -----------------  -----------------
         N           -1.431907244362     0.018057009250    -0.469038039207    14.003074004430
         C            1.937391755638    -0.262567990750     0.328864960793    12.000000000000
         C            0.749714755638    -1.034523990750    -0.262493039207    12.000000000000
         C            1.932848755638     1.211336009250    -0.066676039207    12.000000000000
         C           -0.505203744362    -0.552848090750     0.206384760793    12.000000000000
         C           -2.653960244362     0.469527009250     0.183459960793    12.000000000000
         H            1.922969755638    -0.355649990750     1.422301960793     1.007825032230
         H            2.867898755638    -0.733514990750    -0.008059039207     1.007825032230
         H            0.728441755638    -0.929795990750    -1.352025039207     1.007825032230
         H            0.855248755638    -2.102114990750    -0.027307039207     1.007825032230
         H            1.968494755638     1.318585009250    -1.155022039207     1.007825032230
         H            1.026906755638     1.713324009250     0.283448960793     1.007825032230
         H            2.796037755638     1.734800009250     0.354584960793     1.007825032230
         H           -0.715410244362    -0.671564990750     1.364902960793     1.007825032230
         H           -2.767575244362     1.544034009250     0.013704960793     1.007825032230
         H           -2.673246244362     0.273363009250     1.266319960793     1.007825032230
         H           -3.507737244362    -0.029183990750    -0.284065039207     1.007825032230

  Basis Set: AUG-CC-PVTZ
    Blend: AUG-CC-PVTZ
  Basis Set: (AUG-CC-PVTZ AUX)
    Blend: AUG-CC-PVTZ-JKFIT
	 Reference Energy          =    -250.2533009872911407 [Eh]
	 Singles Energy            =      -0.0000000000000000 [Eh]
	 Same-Spin Energy          =      -0.2628950127034723 [Eh]
	 Opposite-Spin Energy      =      -0.9369682955953844 [Eh]
	 Correlation Energy        =      -1.1998633082988568 [Eh]
	 Total Energy              =    -251.4531642955899997 [Eh]

	 ================> DF-SCS-MP2 Energies <==================
	-----------------------------------------------------------
	 SCS Same-Spin Scale       =       0.3333333333333333 [-]
	 SCS Opposite-Spin Scale   =       1.2000000000000000 [-]
	 SCS Same-Spin Energy      =      -0.0876316709011574 [Eh]
	 SCS Opposite-Spin Energy  =      -1.1243619547144612 [Eh]
	 SCS Correlation Energy    =      -1.2119936256156187 [Eh]
	 SCS Total Energy          =    -251.4652946129067459 [Eh]
	-----------------------------------------------------------

  Dipole Moment: [D]
     X:     0.5579      Y:    -0.3423      Z:     1.2585     Total:     1.4185

*** Psi4 exiting successfully. Buy a developer a beer!
