                               Psi4 1.3.2 release

  ==> Input File <==

--------------------------------------------------------------------------
#psi4
#
memory 32 gb

molecule  {
0 1
  N       -1.4514230    -0.0014080    -0.4975550
  C        1.9007992    -0.2673028     0.3148092
  C        0.7301990    -1.0539890    -0.2910100
  C        1.9133330     1.1918710    -0.0951930
  C       -0.5758300    -0.5622950     0.2505430
  C       -2.6734760     0.4500620     0.1549430
  H        1.9034540    -0.3751150     1.3937850
  H        2.8483830    -0.7529800    -0.0365760
  H        0.7089260    -0.9492610    -1.3805420
  H        0.8357330    -2.1215800    -0.0558240
  H        1.9489790     1.2991200    -1.1835390
  H        1.0073910     1.6938590     0.2549320
  H        2.7765220     1.7153350     0.3260680
  H       -0.7349260    -0.6910300     1.3363860
  H       -2.7870910     1.5245690    -0.0148120
  H       -2.6927620     0.2538980     1.2378030
  H       -3.5272530    -0.0486490    -0.3125820
units angstrom
no_reorient  #important for SAPT in psi4, default
symmetry c1  #important for SAPT in psi4, default
}

set PROPERTIES_ORIGIN ["COM"]
properties('MP2/aug-cc-pvtz', properties = ['dipole'])
--------------------------------------------------------------------------

    Molecular point group: c1
  Charge       = 0
  Multiplicity = 1
  Basis Set: AUG-CC-PVTZ
    Blend: AUG-CC-PVTZ
  Basis Set: (AUG-CC-PVTZ AUX)
    Blend: AUG-CC-PVTZ-JKFIT

    Orbital Energies [Eh]
    ---------------------

    Doubly Occupied:

       1A    -15.554493     2A    -11.272501     3A    -11.242590
       4A    -11.227590     5A    -11.225609     6A    -11.211146
       7A     -1.219488     8A     -1.071986     9A     -0.974426
      10A     -0.910832    11A     -0.814483    12A     -0.758098
      13A     -0.642588    14A     -0.632651    15A     -0.609519
      16A     -0.586170    17A     -0.578462    18A     -0.544029
      19A     -0.516245    20A     -0.492940    21A     -0.483287
      22A     -0.471071    23A     -0.401280    24A     -0.394616

  @DF-RHF Final Energy:  -250.26191323801547

   => Energetics <=

    Nuclear Repulsion Energy =            235.6098980848025235
    One-Electron Energy =                -804.0714187276292932
    Two-Electron Energy =                 318.1996074048113314
    Total Energy =                       -250.2619132380154952
  Basis Set: (AUG-CC-PVTZ AUX)
    Blend: AUG-CC-PVTZ-RI
    Molecular point group: c1

    Geometry (in Angstrom), charge = 0, multiplicity = 1:

       Center              X                  Y                   Z               Mass
    ------------   -----------------  -----------------  -----------------  -----------------
         N           -1.422290887798     0.014566792198    -0.481326760012    14.003074004430
         C            1.929931312202    -0.251328007802     0.331037439988    12.000000000000
         C            0.759331112202    -1.038014207802    -0.274781760012    12.000000000000
         C            1.942465112202     1.207845792198    -0.078964760012    12.000000000000
         C           -0.546697887798    -0.546320207802     0.266771239988    12.000000000000
         C           -2.644343887798     0.466036792198     0.171171239988    12.000000000000
         H            1.932586112202    -0.359140207802     1.410013239988     1.007825032230
         H            2.877515112202    -0.737005207802    -0.020347760012     1.007825032230
         H            0.738058112202    -0.933286207802    -1.364313760012     1.007825032230
         H            0.864865112202    -2.105605207802    -0.039595760012     1.007825032230
         H            1.978111112202     1.315094792198    -1.167310760012     1.007825032230
         H            1.036523112202     1.709833792198     0.271160239988     1.007825032230
         H            2.805654112202     1.731309792198     0.342296239988     1.007825032230
         H           -0.705793887798    -0.675055207802     1.352614239988     1.007825032230
         H           -2.757958887798     1.540543792198     0.001416239988     1.007825032230
         H           -2.663629887798     0.269872792198     1.254031239988     1.007825032230
         H           -3.498120887798    -0.032674207802    -0.296353760012     1.007825032230

  Basis Set: AUG-CC-PVTZ
    Blend: AUG-CC-PVTZ
  Basis Set: (AUG-CC-PVTZ AUX)
    Blend: AUG-CC-PVTZ-JKFIT
	 Reference Energy          =    -250.2619132380154667 [Eh]
	 Singles Energy            =      -0.0000000000000000 [Eh]
	 Same-Spin Energy          =      -0.2619397751321554 [Eh]
	 Opposite-Spin Energy      =      -0.9361507084401325 [Eh]
	 Correlation Energy        =      -1.1980904835722879 [Eh]
	 Total Energy              =    -251.4600037215877535 [Eh]

	 ================> DF-SCS-MP2 Energies <==================
	-----------------------------------------------------------
	 SCS Same-Spin Scale       =       0.3333333333333333 [-]
	 SCS Opposite-Spin Scale   =       1.2000000000000000 [-]
	 SCS Same-Spin Energy      =      -0.0873132583773851 [Eh]
	 SCS Opposite-Spin Energy  =      -1.1233808501281590 [Eh]
	 SCS Correlation Energy    =      -1.2106941085055443 [Eh]
	 SCS Total Energy          =    -251.4726073465210163 [Eh]
	-----------------------------------------------------------

  Dipole Moment: [D]
     X:     0.3857      Y:    -0.3362      Z:     1.4422     Total:     1.5303

*** Psi4 exiting successfully. Buy a developer a beer!
