                               Psi4 1.4a3.dev225

  ==> Input File <==

--------------------------------------------------------------------------
#psi4
#
memory 32 gb

molecule  {
0 1
  N       -1.4513250    -0.0010140    -0.4975640
  C        1.9178130    -0.2820920     0.3002790
  C        0.7301270    -1.0540560    -0.2910000
  C        1.9134960     1.1918760    -0.0950710
  C       -0.6101555    -0.5404602     0.2212322
  C       -2.6734840     0.4500370     0.1549490
  H        1.9036020    -0.3753030     1.3937060
  H        2.8482930    -0.7529860    -0.0368320
  H        0.7089100    -0.9495730    -1.3805570
  H        0.8355610    -2.1216230    -0.0556080
  H        1.9497200     1.2992090    -1.1833850
  H        1.0073830     1.6938500     0.2545960
  H        2.7764960     1.7152480     0.3266950
  H       -0.7352490    -0.6914900     1.3362220
  H       -2.7876940     1.5244090    -0.0151890
  H       -2.6923780     0.2543160     1.2378980
  H       -3.5271550    -0.0493170    -0.3121090
units angstrom
no_reorient  #important for SAPT in psi4, default
symmetry c1  #important for SAPT in psi4, default
}

set PROPERTIES_ORIGIN ["COM"]
properties('MP2/aug-cc-pvtz', properties = ['dipole'])
--------------------------------------------------------------------------

    Molecular point group: c1
  Charge       = 0
  Multiplicity = 1
  Basis Set: AUG-CC-PVTZ
    Blend: AUG-CC-PVTZ
  Basis Set: (AUG-CC-PVTZ AUX)
    Blend: AUG-CC-PVTZ-JKFIT

    Orbital Energies [Eh]
    ---------------------

    Doubly Occupied:

       1A    -15.550178     2A    -11.268950     3A    -11.244742
       4A    -11.226106     5A    -11.224775     6A    -11.211050
       7A     -1.239524     8A     -1.067721     9A     -0.971780
      10A     -0.915433    11A     -0.814590    12A     -0.749729
      13A     -0.645910    14A     -0.632479    15A     -0.608668
      16A     -0.588441    17A     -0.581643    18A     -0.544662
      19A     -0.511635    20A     -0.489632    21A     -0.483326
      22A     -0.473091    23A     -0.410005    24A     -0.395871

  @DF-RHF Final Energy:  -250.26284144843899

   => Energetics <=

    Nuclear Repulsion Energy =            235.8621064240133762
    One-Electron Energy =                -804.5500118217782983
    Two-Electron Energy =                 318.4250639493259314
    Total Energy =                       -250.2628414484389623
  Basis Set: (AUG-CC-PVTZ AUX)
    Blend: AUG-CC-PVTZ-RI
    Molecular point group: c1

    Geometry (in Angstrom), charge = 0, multiplicity = 1:

       Center              X                  Y                   Z               Mass
    ------------   -----------------  -----------------  -----------------  -----------------
         N           -1.419780852191     0.013931480549    -0.475174911223    14.003074004430
         C            1.949357147809    -0.267146519451     0.322668088777    12.000000000000
         C            0.761671147809    -1.039110519451    -0.268610911223    12.000000000000
         C            1.945040147809     1.206821480549    -0.072681911223    12.000000000000
         C           -0.578611352191    -0.525514719451     0.243621288777    12.000000000000
         C           -2.641939852191     0.464982480549     0.177338088777    12.000000000000
         H            1.935146147809    -0.360357519451     1.416095088777     1.007825032230
         H            2.879837147809    -0.738040519451    -0.014442911223     1.007825032230
         H            0.740454147809    -0.934627519451    -1.358167911223     1.007825032230
         H            0.867105147809    -2.106677519451    -0.033218911223     1.007825032230
         H            1.981264147809     1.314154480549    -1.160995911223     1.007825032230
         H            1.038927147809     1.708795480549     0.276985088777     1.007825032230
         H            2.808040147809     1.730193480549     0.349084088777     1.007825032230
         H           -0.703704852191    -0.676544519451     1.358611088777     1.007825032230
         H           -2.756149852191     1.539354480549     0.007200088777     1.007825032230
         H           -2.660833852191     0.269261480549     1.260287088777     1.007825032230
         H           -3.495610852191    -0.034371519451    -0.289719911223     1.007825032230

  Basis Set: AUG-CC-PVTZ
    Blend: AUG-CC-PVTZ
  Basis Set: (AUG-CC-PVTZ AUX)
    Blend: AUG-CC-PVTZ-JKFIT
	 Reference Energy          =    -250.2628414484389907 [Eh]
	 Singles Energy            =      -0.0000000000000000 [Eh]
	 Same-Spin Energy          =      -0.2608921095589366 [Eh]
	 Opposite-Spin Energy      =      -0.9337590724381881 [Eh]
	 Correlation Energy        =      -1.1946511819971248 [Eh]
	 Total Energy              =    -251.4574926304361213 [Eh]

	 ================> DF-SCS-MP2 Energies <==================
	-----------------------------------------------------------
	 SCS Same-Spin Scale       =       0.3333333333333333 [-]
	 SCS Opposite-Spin Scale   =       1.2000000000000000 [-]
	 SCS Same-Spin Energy      =      -0.0869640365196455 [Eh]
	 SCS Opposite-Spin Energy  =      -1.1205108869258258 [Eh]
	 SCS Correlation Energy    =      -1.2074749234454714 [Eh]
	 SCS Total Energy          =    -251.4703163718844507 [Eh]
	-----------------------------------------------------------

  Dipole Moment: [D]
     X:     0.2853      Y:    -0.2859      Z:     1.3561     Total:     1.4150

*** Psi4 exiting successfully. Buy a developer a beer!
