                               Psi4 1.3.2 release

  ==> Input File <==

--------------------------------------------------------------------------
#psi4
#
memory 32 gb

molecule  {
0 1
  N       -1.4514230    -0.0014080    -0.4975550
  C        2.0125649    -0.3751905     0.2099562
  C        0.7301990    -1.0539890    -0.2910100
  C        1.9133330     1.1918710    -0.0951930
  C       -0.5758300    -0.5622950     0.2505430
  C       -2.6734760     0.4500620     0.1549430
  H        1.9034540    -0.3751150     1.3937850
  H        2.8483830    -0.7529800    -0.0365760
  H        0.7089260    -0.9492610    -1.3805420
  H        0.8357330    -2.1215800    -0.0558240
  H        1.9489790     1.2991200    -1.1835390
  H        1.0073910     1.6938590     0.2549320
  H        2.7765220     1.7153350     0.3260680
  H       -0.7349260    -0.6910300     1.3363860
  H       -2.7870910     1.5245690    -0.0148120
  H       -2.6927620     0.2538980     1.2378030
  H       -3.5272530    -0.0486490    -0.3125820
units angstrom
no_reorient  #important for SAPT in psi4, default
symmetry c1  #important for SAPT in psi4, default
}

set PROPERTIES_ORIGIN ["COM"]
properties('MP2/aug-cc-pvtz', properties = ['dipole'])
--------------------------------------------------------------------------

    Molecular point group: c1
  Charge       = 0
  Multiplicity = 1
  Basis Set: AUG-CC-PVTZ
    Blend: AUG-CC-PVTZ
  Basis Set: (AUG-CC-PVTZ AUX)
    Blend: AUG-CC-PVTZ-JKFIT

    Orbital Energies [Eh]
    ---------------------

    Doubly Occupied:

       1A    -15.557273     2A    -11.276013     3A    -11.244172
       4A    -11.227775     5A    -11.226604     6A    -11.214499
       7A     -1.221235     8A     -1.066345     9A     -0.969938
      10A     -0.910061    11A     -0.832201    12A     -0.756930
      13A     -0.646155    14A     -0.634378    15A     -0.609014
      16A     -0.588439    17A     -0.580641    18A     -0.540207
      19A     -0.523639    20A     -0.506569    21A     -0.475686
      22A     -0.444517    23A     -0.404986    24A     -0.395315

  @DF-RHF Final Energy:  -250.23120406794635

   => Energetics <=

    Nuclear Repulsion Energy =            234.4569499319932504
    One-Electron Energy =                -801.6711272094140668
    Two-Electron Energy =                 316.9829732094744941
    Total Energy =                       -250.2312040679463507
  Basis Set: (AUG-CC-PVTZ AUX)
    Blend: AUG-CC-PVTZ-RI
    Molecular point group: c1

    Geometry (in Angstrom), charge = 0, multiplicity = 1:

       Center              X                  Y                   Z               Mass
    ------------   -----------------  -----------------  -----------------  -----------------
         N           -1.438053043256     0.029782038910    -0.466539492664    14.003074004430
         C            2.025934856744    -0.344000461090     0.240971707336    12.000000000000
         C            0.743568956744    -1.022798961090    -0.259994492664    12.000000000000
         C            1.926702956744     1.223061038910    -0.064177492664    12.000000000000
         C           -0.562460043256    -0.531104961090     0.281558507336    12.000000000000
         C           -2.660106043256     0.481252038910     0.185958507336    12.000000000000
         H            1.916823956744    -0.343924961090     1.424800507336     1.007825032230
         H            2.861752956744    -0.721789961090    -0.005560492664     1.007825032230
         H            0.722295956744    -0.918070961090    -1.349526492664     1.007825032230
         H            0.849102956744    -2.090389961090    -0.024808492664     1.007825032230
         H            1.962348956744     1.330310038910    -1.152523492664     1.007825032230
         H            1.020760956744     1.725049038910     0.285947507336     1.007825032230
         H            2.789891956744     1.746525038910     0.357083507336     1.007825032230
         H           -0.721556043256    -0.659839961090     1.367401507336     1.007825032230
         H           -2.773721043256     1.555759038910     0.016203507336     1.007825032230
         H           -2.679392043256     0.285088038910     1.268818507336     1.007825032230
         H           -3.513883043256    -0.017458961090    -0.281566492664     1.007825032230

  Basis Set: AUG-CC-PVTZ
    Blend: AUG-CC-PVTZ
  Basis Set: (AUG-CC-PVTZ AUX)
    Blend: AUG-CC-PVTZ-JKFIT
	 Reference Energy          =    -250.2312040679463507 [Eh]
	 Singles Energy            =      -0.0000000000000000 [Eh]
	 Same-Spin Energy          =      -0.2618044383947313 [Eh]
	 Opposite-Spin Energy      =      -0.9371867171278558 [Eh]
	 Correlation Energy        =      -1.1989911555225872 [Eh]
	 Total Energy              =    -251.4301952234689281 [Eh]

	 ================> DF-SCS-MP2 Energies <==================
	-----------------------------------------------------------
	 SCS Same-Spin Scale       =       0.3333333333333333 [-]
	 SCS Opposite-Spin Scale   =       1.2000000000000000 [-]
	 SCS Same-Spin Energy      =      -0.0872681461315771 [Eh]
	 SCS Opposite-Spin Energy  =      -1.1246240605534270 [Eh]
	 SCS Correlation Energy    =      -1.2118922066850042 [Eh]
	 SCS Total Energy          =    -251.4430962746313583 [Eh]
	-----------------------------------------------------------

  Dipole Moment: [D]
     X:     0.3412      Y:    -0.3427      Z:     1.3695     Total:     1.4524

*** Psi4 exiting successfully. Buy a developer a beer!
