                               Psi4 1.4a3.dev225

  ==> Input File <==

--------------------------------------------------------------------------
#psi4
#
memory 32 gb

molecule  {
0 1
  N       -1.4513250    -0.0010140    -0.4975640
  C        1.9178130    -0.2820920     0.3002790
  C        0.7301270    -1.0540560    -0.2910000
  C        1.9134960     1.1918760    -0.0950710
  C       -0.5585376    -0.5689412     0.2431952
  C       -2.6734840     0.4500370     0.1549490
  H        1.9036020    -0.3753030     1.3937060
  H        2.8482930    -0.7529860    -0.0368320
  H        0.7089100    -0.9495730    -1.3805570
  H        0.8355610    -2.1216230    -0.0556080
  H        1.9497200     1.2992090    -1.1833850
  H        1.0073830     1.6938500     0.2545960
  H        2.7764960     1.7152480     0.3266950
  H       -0.7352490    -0.6914900     1.3362220
  H       -2.7876940     1.5244090    -0.0151890
  H       -2.6923780     0.2543160     1.2378980
  H       -3.5271550    -0.0493170    -0.3121090
units angstrom
no_reorient  #important for SAPT in psi4, default
symmetry c1  #important for SAPT in psi4, default
}

set PROPERTIES_ORIGIN ["COM"]
properties('MP2/aug-cc-pvtz', properties = ['dipole'])
--------------------------------------------------------------------------

    Molecular point group: c1
  Charge       = 0
  Multiplicity = 1
  Basis Set: AUG-CC-PVTZ
    Blend: AUG-CC-PVTZ
  Basis Set: (AUG-CC-PVTZ AUX)
    Blend: AUG-CC-PVTZ-JKFIT

    Orbital Energies [Eh]
    ---------------------

    Doubly Occupied:

       1A    -15.555199     2A    -11.274353     3A    -11.242681
       4A    -11.227780     5A    -11.225374     6A    -11.211696
       7A     -1.215267     8A     -1.073203     9A     -0.975635
      10A     -0.910375    11A     -0.817307    12A     -0.755735
      13A     -0.642482    14A     -0.634175    15A     -0.608559
      16A     -0.586285    17A     -0.578308    18A     -0.543125
      19A     -0.518429    20A     -0.491775    21A     -0.481695
      22A     -0.476506    23A     -0.400782    24A     -0.391246

  @DF-RHF Final Energy:  -250.26131389633809

   => Energetics <=

    Nuclear Repulsion Energy =            235.4764033853520004
    One-Electron Energy =                -803.7994882472643212
    Two-Electron Energy =                 318.0617709655742260
    Total Energy =                       -250.2613138963380948
  Basis Set: (AUG-CC-PVTZ AUX)
    Blend: AUG-CC-PVTZ-RI
    Molecular point group: c1

    Geometry (in Angstrom), charge = 0, multiplicity = 1:

       Center              X                  Y                   Z               Mass
    ------------   -----------------  -----------------  -----------------  -----------------
         N           -1.427060450173     0.017948114898    -0.478272321433    14.003074004430
         C            1.942077549827    -0.263129885102     0.319570678567    12.000000000000
         C            0.754391549827    -1.035093885102    -0.271708321433    12.000000000000
         C            1.937760549827     1.210838114898    -0.075779321433    12.000000000000
         C           -0.534273050173    -0.549979085102     0.262486878567    12.000000000000
         C           -2.649219450173     0.468999114898     0.174240678567    12.000000000000
         H            1.927866549827    -0.356340885102     1.412997678567     1.007825032230
         H            2.872557549827    -0.734023885102    -0.017540321433     1.007825032230
         H            0.733174549827    -0.930610885102    -1.361265321433     1.007825032230
         H            0.859825549827    -2.102660885102    -0.036316321433     1.007825032230
         H            1.973984549827     1.318171114898    -1.164093321433     1.007825032230
         H            1.031647549827     1.712812114898     0.273887678567     1.007825032230
         H            2.800760549827     1.734210114898     0.345986678567     1.007825032230
         H           -0.710984450173    -0.672527885102     1.355513678567     1.007825032230
         H           -2.763429450173     1.543371114898     0.004102678567     1.007825032230
         H           -2.668113450173     0.273278114898     1.257189678567     1.007825032230
         H           -3.502890450173    -0.030354885102    -0.292817321433     1.007825032230

  Basis Set: AUG-CC-PVTZ
    Blend: AUG-CC-PVTZ
  Basis Set: (AUG-CC-PVTZ AUX)
    Blend: AUG-CC-PVTZ-JKFIT
	 Reference Energy          =    -250.2613138963380948 [Eh]
	 Singles Energy            =      -0.0000000000000000 [Eh]
	 Same-Spin Energy          =      -0.2622359653506631 [Eh]
	 Opposite-Spin Energy      =      -0.9366605755351625 [Eh]
	 Correlation Energy        =      -1.1988965408858256 [Eh]
	 Total Energy              =    -251.4602104372239069 [Eh]

	 ================> DF-SCS-MP2 Energies <==================
	-----------------------------------------------------------
	 SCS Same-Spin Scale       =       0.3333333333333333 [-]
	 SCS Opposite-Spin Scale   =       1.2000000000000000 [-]
	 SCS Same-Spin Energy      =      -0.0874119884502210 [Eh]
	 SCS Opposite-Spin Energy  =      -1.1239926906421949 [Eh]
	 SCS Correlation Energy    =      -1.2114046790924160 [Eh]
	 SCS Total Energy          =    -251.4727185754305196 [Eh]
	-----------------------------------------------------------

  Dipole Moment: [D]
     X:     0.4402      Y:    -0.3541      Z:     1.4207     Total:     1.5289

*** Psi4 exiting successfully. Buy a developer a beer!
