                               Psi4 1.3.2 release

  ==> Input File <==

--------------------------------------------------------------------------
#psi4
#
memory 32 gb

molecule  {
0 1
  N       -1.4514230    -0.0014080    -0.4975550
  C        1.9178760    -0.2820330     0.3003480
  C        0.7301990    -1.0539890    -0.2910100
  C        1.9133330     1.1918710    -0.0951930
  C       -0.6604106    -0.5421631     0.3526163
  C       -2.6734760     0.4500620     0.1549430
  H        1.9034540    -0.3751150     1.3937850
  H        2.8483830    -0.7529800    -0.0365760
  H        0.7089260    -0.9492610    -1.3805420
  H        0.8357330    -2.1215800    -0.0558240
  H        1.9489790     1.2991200    -1.1835390
  H        1.0073910     1.6938590     0.2549320
  H        2.7765220     1.7153350     0.3260680
  H       -0.7349260    -0.6910300     1.3363860
  H       -2.7870910     1.5245690    -0.0148120
  H       -2.6927620     0.2538980     1.2378030
  H       -3.5272530    -0.0486490    -0.3125820
units angstrom
no_reorient  #important for SAPT in psi4, default
symmetry c1  #important for SAPT in psi4, default
}

set PROPERTIES_ORIGIN ["COM"]
properties('MP2/aug-cc-pvtz', properties = ['dipole'])
--------------------------------------------------------------------------

    Molecular point group: c1
  Charge       = 0
  Multiplicity = 1
  Basis Set: AUG-CC-PVTZ
    Blend: AUG-CC-PVTZ
  Basis Set: (AUG-CC-PVTZ AUX)
    Blend: AUG-CC-PVTZ-JKFIT

    Orbital Energies [Eh]
    ---------------------

    Doubly Occupied:

       1A    -15.560803     2A    -11.270218     3A    -11.241234
       4A    -11.225940     5A    -11.222494     6A    -11.208989
       7A     -1.225548     8A     -1.059874     9A     -0.962668
      10A     -0.904806    11A     -0.814963    12A     -0.783442
      13A     -0.642547    14A     -0.627583    15A     -0.604474
      16A     -0.588739    17A     -0.579926    18A     -0.541101
      19A     -0.508058    20A     -0.483272    21A     -0.476951
      22A     -0.465709    23A     -0.406947    24A     -0.399391

  @DF-RHF Final Energy:  -250.24297990899606

   => Energetics <=

    Nuclear Repulsion Energy =            234.5897774817445338
    One-Electron Energy =                -802.0541637765778660
    Two-Electron Energy =                 317.2214063858372128
    Total Energy =                       -250.2429799089960625
  Basis Set: (AUG-CC-PVTZ AUX)
    Blend: AUG-CC-PVTZ-RI
    Molecular point group: c1

    Geometry (in Angstrom), charge = 0, multiplicity = 1:

       Center              X                  Y                   Z               Mass
    ------------   -----------------  -----------------  -----------------  -----------------
         N           -1.412770924253     0.013804998239    -0.493682568102    14.003074004430
         C            1.956528075747    -0.266820001761     0.304220431898    12.000000000000
         C            0.768851075747    -1.038776001761    -0.287137568102    12.000000000000
         C            1.951985075747     1.207083998239    -0.091320568102    12.000000000000
         C           -0.621758524253    -0.526950101761     0.356488731898    12.000000000000
         C           -2.634823924253     0.465274998239     0.158815431898    12.000000000000
         H            1.942106075747    -0.359902001761     1.397657431898     1.007825032230
         H            2.887035075747    -0.737767001761    -0.032703568102     1.007825032230
         H            0.747578075747    -0.934048001761    -1.376669568102     1.007825032230
         H            0.874385075747    -2.106367001761    -0.051951568102     1.007825032230
         H            1.987631075747     1.314332998239    -1.179666568102     1.007825032230
         H            1.046043075747     1.709071998239     0.258804431898     1.007825032230
         H            2.815174075747     1.730547998239     0.329940431898     1.007825032230
         H           -0.696273924253    -0.675817001761     1.340258431898     1.007825032230
         H           -2.748438924253     1.539781998239    -0.010939568102     1.007825032230
         H           -2.654109924253     0.269110998239     1.241675431898     1.007825032230
         H           -3.488600924253    -0.033436001761    -0.308709568102     1.007825032230

  Basis Set: AUG-CC-PVTZ
    Blend: AUG-CC-PVTZ
  Basis Set: (AUG-CC-PVTZ AUX)
    Blend: AUG-CC-PVTZ-JKFIT
	 Reference Energy          =    -250.2429799089960625 [Eh]
	 Singles Energy            =      -0.0000000000000000 [Eh]
	 Same-Spin Energy          =      -0.2612949083653259 [Eh]
	 Opposite-Spin Energy      =      -0.9370252309868923 [Eh]
	 Correlation Energy        =      -1.1983201393522180 [Eh]
	 Total Energy              =    -251.4413000483482676 [Eh]

	 ================> DF-SCS-MP2 Energies <==================
	-----------------------------------------------------------
	 SCS Same-Spin Scale       =       0.3333333333333333 [-]
	 SCS Opposite-Spin Scale   =       1.2000000000000000 [-]
	 SCS Same-Spin Energy      =      -0.0870983027884420 [Eh]
	 SCS Opposite-Spin Energy  =      -1.1244302771842707 [Eh]
	 SCS Correlation Energy    =      -1.2115285799727127 [Eh]
	 SCS Total Energy          =    -251.4545084889687701 [Eh]
	-----------------------------------------------------------

  Dipole Moment: [D]
     X:     0.1106      Y:    -0.3045      Z:     1.6058     Total:     1.6382

*** Psi4 exiting successfully. Buy a developer a beer!
