                               Psi4 1.4a3.dev225

  ==> Input File <==

--------------------------------------------------------------------------
#psi4
#
memory 32 gb

molecule  {
0 1
  N       -1.4513250    -0.0010140    -0.4975640
  C        1.9178130    -0.2820920     0.3002790
  C        0.7301270    -1.0540560    -0.2910000
  C        1.9134960     1.1918760    -0.0950710
  C       -0.5323619    -0.5787949     0.2323445
  C       -2.6734840     0.4500370     0.1549490
  H        1.9036020    -0.3753030     1.3937060
  H        2.8482930    -0.7529860    -0.0368320
  H        0.7089100    -0.9495730    -1.3805570
  H        0.8355610    -2.1216230    -0.0556080
  H        1.9497200     1.2992090    -1.1833850
  H        1.0073830     1.6938500     0.2545960
  H        2.7764960     1.7152480     0.3266950
  H       -0.7352490    -0.6914900     1.3362220
  H       -2.7876940     1.5244090    -0.0151890
  H       -2.6923780     0.2543160     1.2378980
  H       -3.5271550    -0.0493170    -0.3121090
units angstrom
no_reorient  #important for SAPT in psi4, default
symmetry c1  #important for SAPT in psi4, default
}

set PROPERTIES_ORIGIN ["COM"]
properties('MP2/aug-cc-pvtz', properties = ['dipole'])
--------------------------------------------------------------------------

    Molecular point group: c1
  Charge       = 0
  Multiplicity = 1
  Basis Set: AUG-CC-PVTZ
    Blend: AUG-CC-PVTZ
  Basis Set: (AUG-CC-PVTZ AUX)
    Blend: AUG-CC-PVTZ-JKFIT

    Orbital Energies [Eh]
    ---------------------

    Doubly Occupied:

       1A    -15.555776     2A    -11.276714     3A    -11.242597
       4A    -11.229006     5A    -11.225174     6A    -11.212255
       7A     -1.208983     8A     -1.077001     9A     -0.978959
      10A     -0.909711    11A     -0.819526    12A     -0.753131
      13A     -0.642576    14A     -0.635759    15A     -0.609205
      16A     -0.585648    17A     -0.577370    18A     -0.543301
      19A     -0.520872    20A     -0.493679    21A     -0.482789
      22A     -0.478000    23A     -0.398697    24A     -0.385724

  @DF-RHF Final Energy:  -250.25692842452338

   => Energetics <=

    Nuclear Repulsion Energy =            235.5405718742037493
    One-Electron Energy =                -803.9100959461941329
    Two-Electron Energy =                 318.1125956474669465
    Total Energy =                       -250.2569284245233803
  Basis Set: (AUG-CC-PVTZ AUX)
    Blend: AUG-CC-PVTZ-RI
    Molecular point group: c1

    Geometry (in Angstrom), charge = 0, multiplicity = 1:

       Center              X                  Y                   Z               Mass
    ------------   -----------------  -----------------  -----------------  -----------------
         N           -1.430751971388     0.019337767996    -0.476742062863    14.003074004430
         C            1.938386028612    -0.261740232004     0.321100937137    12.000000000000
         C            0.750700028612    -1.033704232004    -0.270178062863    12.000000000000
         C            1.934069028612     1.212227767996    -0.074249062863    12.000000000000
         C           -0.511788871388    -0.558443132004     0.253166437137    12.000000000000
         C           -2.652910971388     0.470388767996     0.175770937137    12.000000000000
         H            1.924175028612    -0.354951232004     1.414527937137     1.007825032230
         H            2.868866028612    -0.732634232004    -0.016010062863     1.007825032230
         H            0.729483028612    -0.929221232004    -1.359735062863     1.007825032230
         H            0.856134028612    -2.101271232004    -0.034786062863     1.007825032230
         H            1.970293028612     1.319560767996    -1.162563062863     1.007825032230
         H            1.027956028612     1.714201767996     0.275417937137     1.007825032230
         H            2.797069028612     1.735599767996     0.347516937137     1.007825032230
         H           -0.714675971388    -0.671138232004     1.357043937137     1.007825032230
         H           -2.767120971388     1.544760767996     0.005632937137     1.007825032230
         H           -2.671804971388     0.274667767996     1.258719937137     1.007825032230
         H           -3.506581971388    -0.028965232004    -0.291287062863     1.007825032230

  Basis Set: AUG-CC-PVTZ
    Blend: AUG-CC-PVTZ
  Basis Set: (AUG-CC-PVTZ AUX)
    Blend: AUG-CC-PVTZ-JKFIT
	 Reference Energy          =    -250.2569284245233803 [Eh]
	 Singles Energy            =      -0.0000000000000000 [Eh]
	 Same-Spin Energy          =      -0.2629309152352429 [Eh]
	 Opposite-Spin Energy      =      -0.9377659252545059 [Eh]
	 Correlation Energy        =      -1.2006968404897487 [Eh]
	 Total Energy              =    -251.4576252650131210 [Eh]

	 ================> DF-SCS-MP2 Energies <==================
	-----------------------------------------------------------
	 SCS Same-Spin Scale       =       0.3333333333333333 [-]
	 SCS Opposite-Spin Scale   =       1.2000000000000000 [-]
	 SCS Same-Spin Energy      =      -0.0876436384117476 [Eh]
	 SCS Opposite-Spin Energy  =      -1.1253191103054070 [Eh]
	 SCS Correlation Energy    =      -1.2129627487171546 [Eh]
	 SCS Total Energy          =    -251.4698911732405406 [Eh]
	-----------------------------------------------------------

  Dipole Moment: [D]
     X:     0.5190      Y:    -0.3725      Z:     1.3998     Total:     1.5387

*** Psi4 exiting successfully. Buy a developer a beer!
