                               Psi4 1.3.2 release

  ==> Input File <==

--------------------------------------------------------------------------
#psi4
#
memory 32 gb

molecule  {
0 1
  N       -1.4514230    -0.0014080    -0.4975550
  C        1.9178760    -0.2820330     0.3003480
  C        0.7301990    -1.0539890    -0.2910100
  C        1.9133330     1.1918710    -0.0951930
  C       -0.5910536    -0.5517063     0.2016949
  C       -2.6734760     0.4500620     0.1549430
  H        1.9034540    -0.3751150     1.3937850
  H        2.8483830    -0.7529800    -0.0365760
  H        0.7089260    -0.9492610    -1.3805420
  H        0.8357330    -2.1215800    -0.0558240
  H        1.9489790     1.2991200    -1.1835390
  H        1.0073910     1.6938590     0.2549320
  H        2.7765220     1.7153350     0.3260680
  H       -0.7349260    -0.6910300     1.3363860
  H       -2.7870910     1.5245690    -0.0148120
  H       -2.6927620     0.2538980     1.2378030
  H       -3.5272530    -0.0486490    -0.3125820
units angstrom
no_reorient  #important for SAPT in psi4, default
symmetry c1  #important for SAPT in psi4, default
}

set PROPERTIES_ORIGIN ["COM"]
properties('MP2/aug-cc-pvtz', properties = ['dipole'])
--------------------------------------------------------------------------

    Molecular point group: c1
  Charge       = 0
  Multiplicity = 1
  Basis Set: AUG-CC-PVTZ
    Blend: AUG-CC-PVTZ
  Basis Set: (AUG-CC-PVTZ AUX)
    Blend: AUG-CC-PVTZ-JKFIT

    Orbital Energies [Eh]
    ---------------------

    Doubly Occupied:

       1A    -15.550215     2A    -11.270626     3A    -11.245078
       4A    -11.227269     5A    -11.224973     6A    -11.211607
       7A     -1.235717     8A     -1.070704     9A     -0.974539
      10A     -0.916521    11A     -0.816985    12A     -0.745392
      13A     -0.646002    14A     -0.633572    15A     -0.609526
      16A     -0.587795    17A     -0.581324    18A     -0.545815
      19A     -0.512767    20A     -0.491390    21A     -0.484849
      22A     -0.474112    23A     -0.407279    24A     -0.394136

  @DF-RHF Final Energy:  -250.26244972351100

   => Energetics <=

    Nuclear Repulsion Energy =            235.9616471285991963
    One-Electron Energy =                -804.7318111317193825
    Two-Electron Energy =                 318.5077142796091607
    Total Energy =                       -250.2624497235109970
  Basis Set: (AUG-CC-PVTZ AUX)
    Blend: AUG-CC-PVTZ-RI
    Molecular point group: c1

    Geometry (in Angstrom), charge = 0, multiplicity = 1:

       Center              X                  Y                   Z               Mass
    ------------   -----------------  -----------------  -----------------  -----------------
         N           -1.422552241921     0.015150861970    -0.472398340752    14.003074004430
         C            1.946746758079    -0.265474138030     0.325504659248    12.000000000000
         C            0.759069758079    -1.037430138030    -0.265853340752    12.000000000000
         C            1.942203758079     1.208429861970    -0.070036340752    12.000000000000
         C           -0.562182841921    -0.535147438030     0.226851559248    12.000000000000
         C           -2.644605241921     0.466620861970     0.180099659248    12.000000000000
         H            1.932324758079    -0.358556138030     1.418941659248     1.007825032230
         H            2.877253758079    -0.736421138030    -0.011419340752     1.007825032230
         H            0.737796758079    -0.932702138030    -1.355385340752     1.007825032230
         H            0.864603758079    -2.105021138030    -0.030667340752     1.007825032230
         H            1.977849758079     1.315678861970    -1.158382340752     1.007825032230
         H            1.036261758079     1.710417861970     0.280088659248     1.007825032230
         H            2.805392758079     1.731893861970     0.351224659248     1.007825032230
         H           -0.706055241921    -0.674471138030     1.361542659248     1.007825032230
         H           -2.758220241921     1.541127861970     0.010344659248     1.007825032230
         H           -2.663891241921     0.270456861970     1.262959659248     1.007825032230
         H           -3.498382241921    -0.032090138030    -0.287425340752     1.007825032230

  Basis Set: AUG-CC-PVTZ
    Blend: AUG-CC-PVTZ
  Basis Set: (AUG-CC-PVTZ AUX)
    Blend: AUG-CC-PVTZ-JKFIT
	 Reference Energy          =    -250.2624497235109970 [Eh]
	 Singles Energy            =      -0.0000000000000000 [Eh]
	 Same-Spin Energy          =      -0.2612390479157813 [Eh]
	 Opposite-Spin Energy      =      -0.9341756551861697 [Eh]
	 Correlation Energy        =      -1.1954147031019511 [Eh]
	 Total Energy              =    -251.4578644266129572 [Eh]

	 ================> DF-SCS-MP2 Energies <==================
	-----------------------------------------------------------
	 SCS Same-Spin Scale       =       0.3333333333333333 [-]
	 SCS Opposite-Spin Scale   =       1.2000000000000000 [-]
	 SCS Same-Spin Energy      =      -0.0870796826385938 [Eh]
	 SCS Opposite-Spin Energy  =      -1.1210107862234036 [Eh]
	 SCS Correlation Energy    =      -1.2080904688619973 [Eh]
	 SCS Total Energy          =    -251.4705401923729937 [Eh]
	-----------------------------------------------------------

  Dipole Moment: [D]
     X:     0.3545      Y:    -0.2917      Z:     1.3104     Total:     1.3885

*** Psi4 exiting successfully. Buy a developer a beer!
