                               Psi4 1.3.2 release

  ==> Input File <==

--------------------------------------------------------------------------
#psi4
#
memory 32 gb

molecule  {
0 1
  N       -1.4610947    -0.0485401    -0.4810757
  C        1.9178760    -0.2820330     0.3003480
  C        0.7301990    -1.0539890    -0.2910100
  C        1.9133330     1.1918710    -0.0951930
  C       -0.5758300    -0.5622950     0.2505430
  C       -2.6734760     0.4500620     0.1549430
  H        1.9034540    -0.3751150     1.3937850
  H        2.8483830    -0.7529800    -0.0365760
  H        0.7089260    -0.9492610    -1.3805420
  H        0.8357330    -2.1215800    -0.0558240
  H        1.9489790     1.2991200    -1.1835390
  H        1.0073910     1.6938590     0.2549320
  H        2.7765220     1.7153350     0.3260680
  H       -0.7349260    -0.6910300     1.3363860
  H       -2.7870910     1.5245690    -0.0148120
  H       -2.6927620     0.2538980     1.2378030
  H       -3.5272530    -0.0486490    -0.3125820
units angstrom
no_reorient  #important for SAPT in psi4, default
symmetry c1  #important for SAPT in psi4, default
}

set PROPERTIES_ORIGIN ["COM"]
properties('MP2/aug-cc-pvtz', properties = ['dipole'])
--------------------------------------------------------------------------

    Molecular point group: c1
  Charge       = 0
  Multiplicity = 1
  Basis Set: AUG-CC-PVTZ
    Blend: AUG-CC-PVTZ
  Basis Set: (AUG-CC-PVTZ AUX)
    Blend: AUG-CC-PVTZ-JKFIT

    Orbital Energies [Eh]
    ---------------------

    Doubly Occupied:

       1A    -15.550540     2A    -11.268718     3A    -11.243858
       4A    -11.226723     5A    -11.224578     6A    -11.211654
       7A     -1.227006     8A     -1.070528     9A     -0.974277
      10A     -0.913395    11A     -0.815615    12A     -0.755605
      13A     -0.644679    14A     -0.633956    15A     -0.609122
      16A     -0.587329    17A     -0.579859    18A     -0.544113
      19A     -0.517569    20A     -0.490880    21A     -0.482146
      22A     -0.475585    23A     -0.401766    24A     -0.394782

  @DF-RHF Final Energy:  -250.26438164770201

   => Energetics <=

    Nuclear Repulsion Energy =            235.7729355487273608
    One-Electron Energy =                -804.3860638427202048
    Two-Electron Energy =                 318.3487466462908628
    Total Energy =                       -250.2643816477020096
  Basis Set: (AUG-CC-PVTZ AUX)
    Blend: AUG-CC-PVTZ-RI
    Molecular point group: c1

    Geometry (in Angstrom), charge = 0, multiplicity = 1:

       Center              X                  Y                   Z               Mass
    ------------   -----------------  -----------------  -----------------  -----------------
         N           -1.432779237978    -0.022731425449    -0.465520007075    14.003074004430
         C            1.946191462022    -0.256224325449     0.315903692925    12.000000000000
         C            0.758514462022    -1.028180325449    -0.275454307075    12.000000000000
         C            1.941648462022     1.217679674551    -0.079637307075    12.000000000000
         C           -0.547514537978    -0.536486325449     0.266098692925    12.000000000000
         C           -2.645160537978     0.475870674551     0.170498692925    12.000000000000
         H            1.931769462022    -0.349306325449     1.409340692925     1.007825032230
         H            2.876698462022    -0.727171325449    -0.021020307075     1.007825032230
         H            0.737241462022    -0.923452325449    -1.364986307075     1.007825032230
         H            0.864048462022    -2.095771325449    -0.040268307075     1.007825032230
         H            1.977294462022     1.324928674551    -1.167983307075     1.007825032230
         H            1.035706462022     1.719667674551     0.270487692925     1.007825032230
         H            2.804837462022     1.741143674551     0.341623692925     1.007825032230
         H           -0.706610537978    -0.665221325449     1.351941692925     1.007825032230
         H           -2.758775537978     1.550377674551     0.000743692925     1.007825032230
         H           -2.664446537978     0.279706674551     1.253358692925     1.007825032230
         H           -3.498937537978    -0.022840325449    -0.297026307075     1.007825032230

  Basis Set: AUG-CC-PVTZ
    Blend: AUG-CC-PVTZ
  Basis Set: (AUG-CC-PVTZ AUX)
    Blend: AUG-CC-PVTZ-JKFIT
	 Reference Energy          =    -250.2643816477020096 [Eh]
	 Singles Energy            =      -0.0000000000000000 [Eh]
	 Same-Spin Energy          =      -0.2613597049422908 [Eh]
	 Opposite-Spin Energy      =      -0.9346833068596945 [Eh]
	 Correlation Energy        =      -1.1960430118019854 [Eh]
	 Total Energy              =    -251.4604246595039854 [Eh]

	 ================> DF-SCS-MP2 Energies <==================
	-----------------------------------------------------------
	 SCS Same-Spin Scale       =       0.3333333333333333 [-]
	 SCS Opposite-Spin Scale   =       1.2000000000000000 [-]
	 SCS Same-Spin Energy      =      -0.0871199016474303 [Eh]
	 SCS Opposite-Spin Energy  =      -1.1216199682316332 [Eh]
	 SCS Correlation Energy    =      -1.2087398698790635 [Eh]
	 SCS Total Energy          =    -251.4731215175810632 [Eh]
	-----------------------------------------------------------

  Dipole Moment: [D]
     X:     0.3836      Y:    -0.2499      Z:     1.3899     Total:     1.4634

*** Psi4 exiting successfully. Buy a developer a beer!
