                               Psi4 1.3.2 release

  ==> Input File <==

--------------------------------------------------------------------------
#psi4
#
memory 32 gb

molecule  {
0 1
  N       -1.4514230    -0.0014080    -0.4975550
  C        1.9178760    -0.2820330     0.3003480
  C        0.7301990    -1.0539890    -0.2910100
  C        1.9133330     1.1918710    -0.0951930
  C       -0.5497255    -0.5676490     0.2146392
  C       -2.6734760     0.4500620     0.1549430
  H        1.9034540    -0.3751150     1.3937850
  H        2.8483830    -0.7529800    -0.0365760
  H        0.7089260    -0.9492610    -1.3805420
  H        0.8357330    -2.1215800    -0.0558240
  H        1.9489790     1.2991200    -1.1835390
  H        1.0073910     1.6938590     0.2549320
  H        2.7765220     1.7153350     0.3260680
  H       -0.7349260    -0.6910300     1.3363860
  H       -2.7870910     1.5245690    -0.0148120
  H       -2.6927620     0.2538980     1.2378030
  H       -3.5272530    -0.0486490    -0.3125820
units angstrom
no_reorient  #important for SAPT in psi4, default
symmetry c1  #important for SAPT in psi4, default
}

set PROPERTIES_ORIGIN ["COM"]
properties('MP2/aug-cc-pvtz', properties = ['dipole'])
--------------------------------------------------------------------------

    Molecular point group: c1
  Charge       = 0
  Multiplicity = 1
  Basis Set: AUG-CC-PVTZ
    Blend: AUG-CC-PVTZ
  Basis Set: (AUG-CC-PVTZ AUX)
    Blend: AUG-CC-PVTZ-JKFIT

    Orbital Energies [Eh]
    ---------------------

    Doubly Occupied:

       1A    -15.553588     2A    -11.274734     3A    -11.243660
       4A    -11.228572     5A    -11.225098     6A    -11.212147
       7A     -1.218405     8A     -1.075355     9A     -0.977803
      10A     -0.912899    11A     -0.819211    12A     -0.748823
      13A     -0.643957    14A     -0.635099    15A     -0.609419
      16A     -0.586409    17A     -0.578856    18A     -0.544827
      19A     -0.517514    20A     -0.493143    21A     -0.484144
      22A     -0.476612    23A     -0.396755    24A     -0.393607

  @DF-RHF Final Energy:  -250.26031088725784

   => Energetics <=

    Nuclear Repulsion Energy =            235.7495684711830393
    One-Electron Energy =                -804.3184836631069174
    Two-Electron Energy =                 318.3086043046660620
    Total Energy =                       -250.2603108872578446
  Basis Set: (AUG-CC-PVTZ AUX)
    Blend: AUG-CC-PVTZ-RI
    Molecular point group: c1

    Geometry (in Angstrom), charge = 0, multiplicity = 1:

       Center              X                  Y                   Z               Mass
    ------------   -----------------  -----------------  -----------------  -----------------
         N           -1.428380684251     0.017399237955    -0.474223856710    14.003074004430
         C            1.940918315749    -0.263225762045     0.323679143290    12.000000000000
         C            0.753241315749    -1.035181762045    -0.267678856710    12.000000000000
         C            1.936375315749     1.210678237955    -0.071861856710    12.000000000000
         C           -0.526683184251    -0.548841762045     0.237970343290    12.000000000000
         C           -2.650433684251     0.468869237955     0.178274143290    12.000000000000
         H            1.926496315749    -0.356307762045     1.417116143290     1.007825032230
         H            2.871425315749    -0.734172762045    -0.013244856710     1.007825032230
         H            0.731968315749    -0.930453762045    -1.357210856710     1.007825032230
         H            0.858775315749    -2.102772762045    -0.032492856710     1.007825032230
         H            1.972021315749     1.317927237955    -1.160207856710     1.007825032230
         H            1.030433315749     1.712666237955     0.278263143290     1.007825032230
         H            2.799564315749     1.734142237955     0.349399143290     1.007825032230
         H           -0.711883684251    -0.672222762045     1.359717143290     1.007825032230
         H           -2.764048684251     1.543376237955     0.008519143290     1.007825032230
         H           -2.669719684251     0.272705237955     1.261134143290     1.007825032230
         H           -3.504210684251    -0.029841762045    -0.289250856710     1.007825032230

  Basis Set: AUG-CC-PVTZ
    Blend: AUG-CC-PVTZ
  Basis Set: (AUG-CC-PVTZ AUX)
    Blend: AUG-CC-PVTZ-JKFIT
	 Reference Energy          =    -250.2603108872578446 [Eh]
	 Singles Energy            =      -0.0000000000000000 [Eh]
	 Same-Spin Energy          =      -0.2622969162179608 [Eh]
	 Opposite-Spin Energy      =      -0.9363444606839721 [Eh]
	 Correlation Energy        =      -1.1986413769019331 [Eh]
	 Total Energy              =    -251.4589522641597910 [Eh]

	 ================> DF-SCS-MP2 Energies <==================
	-----------------------------------------------------------
	 SCS Same-Spin Scale       =       0.3333333333333333 [-]
	 SCS Opposite-Spin Scale   =       1.2000000000000000 [-]
	 SCS Same-Spin Energy      =      -0.0874323054059869 [Eh]
	 SCS Opposite-Spin Energy  =      -1.1236133528207666 [Eh]
	 SCS Correlation Energy    =      -1.2110456582267535 [Eh]
	 SCS Total Energy          =    -251.4713565454846105 [Eh]
	-----------------------------------------------------------

  Dipole Moment: [D]
     X:     0.4738      Y:    -0.3437      Z:     1.3541     Total:     1.4752

*** Psi4 exiting successfully. Buy a developer a beer!
