                               Psi4 1.3.2 release

  ==> Input File <==

--------------------------------------------------------------------------
#psi4
#
memory 32 gb

molecule  {
0 1
  N       -1.4514230    -0.0014080    -0.4975550
  C        1.9178760    -0.2820330     0.3003480
  C        0.7301990    -1.0539890    -0.2910100
  C        1.9133330     1.1918710    -0.0951930
  C       -0.4885820    -0.5951422     0.2143651
  C       -2.6734760     0.4500620     0.1549430
  H        1.9034540    -0.3751150     1.3937850
  H        2.8483830    -0.7529800    -0.0365760
  H        0.7089260    -0.9492610    -1.3805420
  H        0.8357330    -2.1215800    -0.0558240
  H        1.9489790     1.2991200    -1.1835390
  H        1.0073910     1.6938590     0.2549320
  H        2.7765220     1.7153350     0.3260680
  H       -0.7349260    -0.6910300     1.3363860
  H       -2.7870910     1.5245690    -0.0148120
  H       -2.6927620     0.2538980     1.2378030
  H       -3.5272530    -0.0486490    -0.3125820
units angstrom
no_reorient  #important for SAPT in psi4, default
symmetry c1  #important for SAPT in psi4, default
}

set PROPERTIES_ORIGIN ["COM"]
properties('MP2/aug-cc-pvtz', properties = ['dipole'])
--------------------------------------------------------------------------

    Molecular point group: c1
  Charge       = 0
  Multiplicity = 1
  Basis Set: AUG-CC-PVTZ
    Blend: AUG-CC-PVTZ
  Basis Set: (AUG-CC-PVTZ AUX)
    Blend: AUG-CC-PVTZ-JKFIT

    Orbital Energies [Eh]
    ---------------------

    Doubly Occupied:

       1A    -15.556593     2A    -11.280892     3A    -11.242442
       4A    -11.231253     5A    -11.224493     6A    -11.213246
       7A     -1.199477     8A     -1.084025     9A     -0.984950
      10A     -0.908003    11A     -0.823433    12A     -0.749263
      13A     -0.643777    14A     -0.638498    15A     -0.610455
      16A     -0.584936    17A     -0.575782    18A     -0.543805
      19A     -0.523780    20A     -0.497079    21A     -0.485003
      22A     -0.479809    23A     -0.393804    24A     -0.376265

  @DF-RHF Final Energy:  -250.24375985987550

   => Energetics <=

    Nuclear Repulsion Energy =            235.6817741621593143
    One-Electron Energy =                -804.1489416060974236
    Two-Electron Energy =                 318.2234075840626133
    Total Energy =                       -250.2437598598755244
  Basis Set: (AUG-CC-PVTZ AUX)
    Blend: AUG-CC-PVTZ-RI
    Molecular point group: c1

    Geometry (in Angstrom), charge = 0, multiplicity = 1:

       Center              X                  Y                   Z               Mass
    ------------   -----------------  -----------------  -----------------  -----------------
         N           -1.437003663862     0.021276564294    -0.474185200782    14.003074004430
         C            1.932295336138    -0.259348435706     0.323717799218    12.000000000000
         C            0.744618336138    -1.031304435706    -0.267640200782    12.000000000000
         C            1.927752336138     1.214555564294    -0.071823200782    12.000000000000
         C           -0.474162663862    -0.572457635706     0.237734899218    12.000000000000
         C           -2.659056663862     0.472746564294     0.178312799218    12.000000000000
         H            1.917873336138    -0.352430435706     1.417154799218     1.007825032230
         H            2.862802336138    -0.730295435706    -0.013206200782     1.007825032230
         H            0.723345336138    -0.926576435706    -1.357172200782     1.007825032230
         H            0.850152336138    -2.098895435706    -0.032454200782     1.007825032230
         H            1.963398336138     1.321804564294    -1.160169200782     1.007825032230
         H            1.021810336138     1.716543564294     0.278301799218     1.007825032230
         H            2.790941336138     1.738019564294     0.349437799218     1.007825032230
         H           -0.720506663862    -0.668345435706     1.359755799218     1.007825032230
         H           -2.772671663862     1.547253564294     0.008557799218     1.007825032230
         H           -2.678342663862     0.276582564294     1.261172799218     1.007825032230
         H           -3.512833663862    -0.025964435706    -0.289212200782     1.007825032230

  Basis Set: AUG-CC-PVTZ
    Blend: AUG-CC-PVTZ
  Basis Set: (AUG-CC-PVTZ AUX)
    Blend: AUG-CC-PVTZ-JKFIT
	 Reference Energy          =    -250.2437598598754960 [Eh]
	 Singles Energy            =      -0.0000000000000000 [Eh]
	 Same-Spin Energy          =      -0.2643402328461377 [Eh]
	 Opposite-Spin Energy      =      -0.9400431206525718 [Eh]
	 Correlation Energy        =      -1.2043833534987094 [Eh]
	 Total Energy              =    -251.4481432133742089 [Eh]

	 ================> DF-SCS-MP2 Energies <==================
	-----------------------------------------------------------
	 SCS Same-Spin Scale       =       0.3333333333333333 [-]
	 SCS Opposite-Spin Scale   =       1.2000000000000000 [-]
	 SCS Same-Spin Energy      =      -0.0881134109487126 [Eh]
	 SCS Opposite-Spin Energy  =      -1.1280517447830860 [Eh]
	 SCS Correlation Energy    =      -1.2161651557317985 [Eh]
	 SCS Total Energy          =    -251.4599250156072969 [Eh]
	-----------------------------------------------------------

  Dipole Moment: [D]
     X:     0.6533      Y:    -0.4017      Z:     1.3636     Total:     1.5645

*** Psi4 exiting successfully. Buy a developer a beer!
