                               Psi4 1.3.2 release

  ==> Input File <==

--------------------------------------------------------------------------
#psi4
#
memory 32 gb

molecule  {
0 1
  N       -1.3672707    -0.0224388    -0.5998009
  C        1.9178760    -0.2820330     0.3003480
  C        0.7301990    -1.0539890    -0.2910100
  C        1.9133330     1.1918710    -0.0951930
  C       -0.5758300    -0.5622950     0.2505430
  C       -2.6734760     0.4500620     0.1549430
  H        1.9034540    -0.3751150     1.3937850
  H        2.8483830    -0.7529800    -0.0365760
  H        0.7089260    -0.9492610    -1.3805420
  H        0.8357330    -2.1215800    -0.0558240
  H        1.9489790     1.2991200    -1.1835390
  H        1.0073910     1.6938590     0.2549320
  H        2.7765220     1.7153350     0.3260680
  H       -0.7349260    -0.6910300     1.3363860
  H       -2.7870910     1.5245690    -0.0148120
  H       -2.6927620     0.2538980     1.2378030
  H       -3.5272530    -0.0486490    -0.3125820
units angstrom
no_reorient  #important for SAPT in psi4, default
symmetry c1  #important for SAPT in psi4, default
}

set PROPERTIES_ORIGIN ["COM"]
properties('MP2/aug-cc-pvtz', properties = ['dipole'])
--------------------------------------------------------------------------

    Molecular point group: c1
  Charge       = 0
  Multiplicity = 1
  Basis Set: AUG-CC-PVTZ
    Blend: AUG-CC-PVTZ
  Basis Set: (AUG-CC-PVTZ AUX)
    Blend: AUG-CC-PVTZ-JKFIT

    Orbital Energies [Eh]
    ---------------------

    Doubly Occupied:

       1A    -15.565700     2A    -11.272703     3A    -11.249222
       4A    -11.224792     5A    -11.220491     6A    -11.210103
       7A     -1.207950     8A     -1.064632     9A     -0.964005
      10A     -0.907133    11A     -0.815300    12A     -0.760512
      13A     -0.631583    14A     -0.625984    15A     -0.603707
      16A     -0.581130    17A     -0.570507    18A     -0.536278
      19A     -0.512677    20A     -0.489688    21A     -0.479737
      22A     -0.473878    23A     -0.407777    24A     -0.400852

  @DF-RHF Final Energy:  -250.24809931590730

   => Energetics <=

    Nuclear Repulsion Energy =            234.5956018725024421
    One-Electron Energy =                -802.1347146045580985
    Two-Electron Energy =                 317.2910134161483597
    Total Energy =                       -250.2480993159072682
  Basis Set: (AUG-CC-PVTZ AUX)
    Blend: AUG-CC-PVTZ-RI
    Molecular point group: c1

    Geometry (in Angstrom), charge = 0, multiplicity = 1:

       Center              X                  Y                   Z               Mass
    ------------   -----------------  -----------------  -----------------  -----------------
         N           -1.354395801496    -0.000925601879    -0.564706666916    14.003074004430
         C            1.930750898504    -0.260519801879     0.335442233084    12.000000000000
         C            0.743073898504    -1.032475801879    -0.255915766916    12.000000000000
         C            1.926207898504     1.213384198121    -0.060098766916    12.000000000000
         C           -0.562955101496    -0.540781801879     0.285637233084    12.000000000000
         C           -2.660601101496     0.471575198121     0.190037233084    12.000000000000
         H            1.916328898504    -0.353601801879     1.428879233084     1.007825032230
         H            2.861257898504    -0.731466801879    -0.001481766916     1.007825032230
         H            0.721800898504    -0.927747801879    -1.345447766916     1.007825032230
         H            0.848607898504    -2.100066801879    -0.020729766916     1.007825032230
         H            1.961853898504     1.320633198121    -1.148444766916     1.007825032230
         H            1.020265898504     1.715372198121     0.290026233084     1.007825032230
         H            2.789396898504     1.736848198121     0.361162233084     1.007825032230
         H           -0.722051101496    -0.669516801879     1.371480233084     1.007825032230
         H           -2.774216101496     1.546082198121     0.020282233084     1.007825032230
         H           -2.679887101496     0.275411198121     1.272897233084     1.007825032230
         H           -3.514378101496    -0.027135801879    -0.277487766916     1.007825032230

  Basis Set: AUG-CC-PVTZ
    Blend: AUG-CC-PVTZ
  Basis Set: (AUG-CC-PVTZ AUX)
    Blend: AUG-CC-PVTZ-JKFIT
	 Reference Energy          =    -250.2480993159072966 [Eh]
	 Singles Energy            =      -0.0000000000000000 [Eh]
	 Same-Spin Energy          =      -0.2623195838225756 [Eh]
	 Opposite-Spin Energy      =      -0.9392060708545444 [Eh]
	 Correlation Energy        =      -1.2015256546771200 [Eh]
	 Total Energy              =    -251.4496249705844093 [Eh]

	 ================> DF-SCS-MP2 Energies <==================
	-----------------------------------------------------------
	 SCS Same-Spin Scale       =       0.3333333333333333 [-]
	 SCS Opposite-Spin Scale   =       1.2000000000000000 [-]
	 SCS Same-Spin Energy      =      -0.0874398612741919 [Eh]
	 SCS Opposite-Spin Energy  =      -1.1270472850254534 [Eh]
	 SCS Correlation Energy    =      -1.2144871462996452 [Eh]
	 SCS Total Energy          =    -251.4625864622069287 [Eh]
	-----------------------------------------------------------

  Dipole Moment: [D]
     X:     0.2502      Y:    -0.3398      Z:     1.6585     Total:     1.7113

*** Psi4 exiting successfully. Buy a developer a beer!
