                               Psi4 1.4a3.dev225

  ==> Input File <==

--------------------------------------------------------------------------
#psi4
#
memory 32 gb

molecule  {
0 1
  N       -1.4513250    -0.0010140    -0.4975640
  C        1.9178130    -0.2820920     0.3002790
  C        0.7301270    -1.0540560    -0.2910000
  C        1.9134960     1.1918760    -0.0950710
  C       -0.5623210    -0.5711367     0.2621077
  C       -2.6734840     0.4500370     0.1549490
  H        1.9036020    -0.3753030     1.3937060
  H        2.8482930    -0.7529860    -0.0368320
  H        0.7089100    -0.9495730    -1.3805570
  H        0.8355610    -2.1216230    -0.0556080
  H        1.9497200     1.2992090    -1.1833850
  H        1.0073830     1.6938500     0.2545960
  H        2.7764960     1.7152480     0.3266950
  H       -0.7352490    -0.6914900     1.3362220
  H       -2.7876940     1.5244090    -0.0151890
  H       -2.6923780     0.2543160     1.2378980
  H       -3.5271550    -0.0493170    -0.3121090
units angstrom
no_reorient  #important for SAPT in psi4, default
symmetry c1  #important for SAPT in psi4, default
}

set PROPERTIES_ORIGIN ["COM"]
properties('MP2/aug-cc-pvtz', properties = ['dipole'])
--------------------------------------------------------------------------

    Molecular point group: c1
  Charge       = 0
  Multiplicity = 1
  Basis Set: AUG-CC-PVTZ
    Blend: AUG-CC-PVTZ
  Basis Set: (AUG-CC-PVTZ AUX)
    Blend: AUG-CC-PVTZ-JKFIT

    Orbital Energies [Eh]
    ---------------------

    Doubly Occupied:

       1A    -15.556530     2A    -11.274421     3A    -11.242048
       4A    -11.227369     5A    -11.225628     6A    -11.211443
       7A     -1.212466     8A     -1.072117     9A     -0.974476
      10A     -0.908634    11A     -0.816333    12A     -0.760644
      13A     -0.641525    14A     -0.633718    15A     -0.608075
      16A     -0.586148    17A     -0.577866    18A     -0.542277
      19A     -0.518924    20A     -0.491019    21A     -0.480223
      22A     -0.476257    23A     -0.403255    24A     -0.389047

  @DF-RHF Final Energy:  -250.26051834925289

   => Energetics <=

    Nuclear Repulsion Energy =            235.2878391127889586
    One-Electron Energy =                -803.4358295171862210
    Two-Electron Energy =                 317.8874720551443147
    Total Energy =                       -250.2605183492528909
  Basis Set: (AUG-CC-PVTZ AUX)
    Blend: AUG-CC-PVTZ-RI
    Molecular point group: c1

    Geometry (in Angstrom), charge = 0, multiplicity = 1:

       Center              X                  Y                   Z               Mass
    ------------   -----------------  -----------------  -----------------  -----------------
         N           -1.426526882729     0.018257743096    -0.480939524028    14.003074004430
         C            1.942611117271    -0.262820256904     0.316903475972    12.000000000000
         C            0.754925117271    -1.034784256904    -0.274375524028    12.000000000000
         C            1.938294117271     1.211147743096    -0.078446524028    12.000000000000
         C           -0.537522882729    -0.551864956904     0.278732175972    12.000000000000
         C           -2.648685882729     0.469308743096     0.171573475972    12.000000000000
         H            1.928400117271    -0.356031256904     1.410330475972     1.007825032230
         H            2.873091117271    -0.733714256904    -0.020207524028     1.007825032230
         H            0.733708117271    -0.930301256904    -1.363932524028     1.007825032230
         H            0.860359117271    -2.102351256904    -0.038983524028     1.007825032230
         H            1.974518117271     1.318480743096    -1.166760524028     1.007825032230
         H            1.032181117271     1.713121743096     0.271220475972     1.007825032230
         H            2.801294117271     1.734519743096     0.343319475972     1.007825032230
         H           -0.710450882729    -0.672218256904     1.352846475972     1.007825032230
         H           -2.762895882729     1.543680743096     0.001435475972     1.007825032230
         H           -2.667579882729     0.273587743096     1.254522475972     1.007825032230
         H           -3.502356882729    -0.030045256904    -0.295484524028     1.007825032230

  Basis Set: AUG-CC-PVTZ
    Blend: AUG-CC-PVTZ
  Basis Set: (AUG-CC-PVTZ AUX)
    Blend: AUG-CC-PVTZ-JKFIT
	 Reference Energy          =    -250.2605183492528909 [Eh]
	 Singles Energy            =      -0.0000000000000000 [Eh]
	 Same-Spin Energy          =      -0.2622892321802236 [Eh]
	 Opposite-Spin Energy      =      -0.9370721500224904 [Eh]
	 Correlation Energy        =      -1.1993613822027140 [Eh]
	 Total Energy              =    -251.4598797314556009 [Eh]

	 ================> DF-SCS-MP2 Energies <==================
	-----------------------------------------------------------
	 SCS Same-Spin Scale       =       0.3333333333333333 [-]
	 SCS Opposite-Spin Scale   =       1.2000000000000000 [-]
	 SCS Same-Spin Energy      =      -0.0874297440600745 [Eh]
	 SCS Opposite-Spin Energy  =      -1.1244865800269885 [Eh]
	 SCS Correlation Energy    =      -1.2119163240870630 [Eh]
	 SCS Total Energy          =    -251.4724346733399614 [Eh]
	-----------------------------------------------------------

  Dipole Moment: [D]
     X:     0.4235      Y:    -0.3606      Z:     1.4600     Total:     1.5624

*** Psi4 exiting successfully. Buy a developer a beer!
