                               Psi4 1.3.2 release

  ==> Input File <==

--------------------------------------------------------------------------
#psi4
#
memory 32 gb

molecule  {
0 1
  N       -1.4647493     0.0010587    -0.4797741
  C        1.9178760    -0.2820330     0.3003480
  C        0.7301990    -1.0539890    -0.2910100
  C        1.9133330     1.1918710    -0.0951930
  C       -0.5758300    -0.5622950     0.2505430
  C       -2.6734760     0.4500620     0.1549430
  H        1.9034540    -0.3751150     1.3937850
  H        2.8483830    -0.7529800    -0.0365760
  H        0.7089260    -0.9492610    -1.3805420
  H        0.8357330    -2.1215800    -0.0558240
  H        1.9489790     1.2991200    -1.1835390
  H        1.0073910     1.6938590     0.2549320
  H        2.7765220     1.7153350     0.3260680
  H       -0.7349260    -0.6910300     1.3363860
  H       -2.7870910     1.5245690    -0.0148120
  H       -2.6927620     0.2538980     1.2378030
  H       -3.5272530    -0.0486490    -0.3125820
units angstrom
no_reorient  #important for SAPT in psi4, default
symmetry c1  #important for SAPT in psi4, default
}

set PROPERTIES_ORIGIN ["COM"]
properties('MP2/aug-cc-pvtz', properties = ['dipole'])
--------------------------------------------------------------------------

    Molecular point group: c1
  Charge       = 0
  Multiplicity = 1
  Basis Set: AUG-CC-PVTZ
    Blend: AUG-CC-PVTZ
  Basis Set: (AUG-CC-PVTZ AUX)
    Blend: AUG-CC-PVTZ-JKFIT

    Orbital Energies [Eh]
    ---------------------

    Doubly Occupied:

       1A    -15.552985     2A    -11.273098     3A    -11.241606
       4A    -11.227408     5A    -11.226244     6A    -11.211571
       7A     -1.222325     8A     -1.071941     9A     -0.975292
      10A     -0.911514    11A     -0.816009    12A     -0.757151
      13A     -0.645024    14A     -0.634262    15A     -0.609012
      16A     -0.587752    17A     -0.580562    18A     -0.544455
      19A     -0.517316    20A     -0.490744    21A     -0.481759
      22A     -0.475694    23A     -0.398991    24A     -0.393754

  @DF-RHF Final Energy:  -250.26314320146309

   => Energetics <=

    Nuclear Repulsion Energy =            235.6037657062645394
    One-Electron Energy =                -804.0408776097433474
    Two-Electron Energy =                 318.1739687020157135
    Total Energy =                       -250.2631432014630946
  Basis Set: (AUG-CC-PVTZ AUX)
    Blend: AUG-CC-PVTZ-RI
    Molecular point group: c1

    Geometry (in Angstrom), charge = 0, multiplicity = 1:

       Center              X                  Y                   Z               Mass
    ------------   -----------------  -----------------  -----------------  -----------------
         N           -1.435832402488     0.018704927610    -0.464432610663    14.003074004430
         C            1.946792897512    -0.264386772390     0.315689489337    12.000000000000
         C            0.759115897512    -1.036342772390    -0.275668510663    12.000000000000
         C            1.942249897512     1.209517227610    -0.079851510663    12.000000000000
         C           -0.546913102488    -0.544648772390     0.265884489337    12.000000000000
         C           -2.644559102488     0.467708227610     0.170284489337    12.000000000000
         H            1.932370897512    -0.357468772390     1.409126489337     1.007825032230
         H            2.877299897512    -0.735333772390    -0.021234510663     1.007825032230
         H            0.737842897512    -0.931614772390    -1.365200510663     1.007825032230
         H            0.864649897512    -2.103933772390    -0.040482510663     1.007825032230
         H            1.977895897512     1.316766227610    -1.168197510663     1.007825032230
         H            1.036307897512     1.711505227610     0.270273489337     1.007825032230
         H            2.805438897512     1.732981227610     0.341409489337     1.007825032230
         H           -0.706009102488    -0.673383772390     1.351727489337     1.007825032230
         H           -2.758174102488     1.542215227610     0.000529489337     1.007825032230
         H           -2.663845102488     0.271544227610     1.253144489337     1.007825032230
         H           -3.498336102488    -0.031002772390    -0.297240510663     1.007825032230

  Basis Set: AUG-CC-PVTZ
    Blend: AUG-CC-PVTZ
  Basis Set: (AUG-CC-PVTZ AUX)
    Blend: AUG-CC-PVTZ-JKFIT
	 Reference Energy          =    -250.2631432014630946 [Eh]
	 Singles Energy            =      -0.0000000000000000 [Eh]
	 Same-Spin Energy          =      -0.2618671624122600 [Eh]
	 Opposite-Spin Energy      =      -0.9357044425751112 [Eh]
	 Correlation Energy        =      -1.1975716049873713 [Eh]
	 Total Energy              =    -251.4607148064504543 [Eh]

	 ================> DF-SCS-MP2 Energies <==================
	-----------------------------------------------------------
	 SCS Same-Spin Scale       =       0.3333333333333333 [-]
	 SCS Opposite-Spin Scale   =       1.2000000000000000 [-]
	 SCS Same-Spin Energy      =      -0.0872890541374200 [Eh]
	 SCS Opposite-Spin Energy  =      -1.1228453310901334 [Eh]
	 SCS Correlation Energy    =      -1.2101343852275535 [Eh]
	 SCS Total Energy          =    -251.4732775866906422 [Eh]
	-----------------------------------------------------------

  Dipole Moment: [D]
     X:     0.4157      Y:    -0.3395      Z:     1.3865     Total:     1.4867

*** Psi4 exiting successfully. Buy a developer a beer!
