                               Psi4 1.3.2 release

  ==> Input File <==

--------------------------------------------------------------------------
#psi4
#
memory 32 gb

molecule  {
0 1
  S        0.8137250     0.0000590     0.8799220
  F        1.3317230     1.0914540    -1.4540400
  F        2.9966120    -0.0000550    -0.5541220
  F        1.3316930    -1.0916270    -1.4539100
  O        1.1778114     1.2358855     1.5755305
  O        1.1369560    -1.2874430     1.4976250
  C       -0.8817330     0.0000240     0.3730510
  C        1.6764180    -0.0000490    -0.7553320
  C       -1.5228280    -1.2242020     0.1676730
  C       -1.5228330     1.2242230     0.1675260
  C       -2.8546580    -1.2129640    -0.2466500
  C       -2.8546630     1.2129290    -0.2467960
  C       -3.5156380    -0.0000320    -0.4592530
  H       -0.9944820    -2.1545490     0.3558040
  H       -0.9944910     2.1545950     0.3555450
  H       -3.3764830    -2.1529200    -0.4053950
  H       -3.3764920     2.1528630    -0.4056540
  H       -4.5535710    -0.0000530    -0.7823510
units angstrom
no_reorient  #important for SAPT in psi4, default
symmetry c1  #important for SAPT in psi4, default
}

set PROPERTIES_ORIGIN ["COM"]
properties('MP2/aug-cc-pvtz', properties = ['dipole'])
--------------------------------------------------------------------------

    Molecular point group: c1
  Charge       = 0
  Multiplicity = 1
  Basis Set: AUG-CC-PVTZ
    Blend: AUG-CC-PVTZ
  Basis Set: (AUG-CC-PVTZ AUX)
    Blend: AUG-CC-PVTZ-JKFIT

    Orbital Energies [Eh]
    ---------------------

    Doubly Occupied:

       1A    -92.218428     2A    -26.375937     3A    -26.375805
       4A    -26.372575     5A    -20.576517     6A    -20.571211
       7A    -11.555329     8A    -11.302534     9A    -11.289528
      10A    -11.289081    11A    -11.283794    12A    -11.274319
      13A    -11.274175    14A     -9.187406    15A     -6.872253
      16A     -6.871452    17A     -6.871258    18A     -1.761060
      19A     -1.669607    20A     -1.668186    21A     -1.467811
      22A     -1.355760    23A     -1.200567    24A     -1.088391
      25A     -1.059473    26A     -1.033624    27A     -0.939166
      28A     -0.873730    29A     -0.871950    30A     -0.854778
      31A     -0.852876    32A     -0.803100    33A     -0.750665
      34A     -0.740524    35A     -0.736729    36A     -0.700066
      37A     -0.699137    38A     -0.688625    39A     -0.682189
      40A     -0.677732    41A     -0.670358    42A     -0.652630
      43A     -0.643392    44A     -0.631253    45A     -0.563841
      46A     -0.548480    47A     -0.539066    48A     -0.521077
      49A     -0.518785    50A     -0.495117    51A     -0.472483
      52A     -0.390327    53A     -0.376411

  @DF-RHF Final Energy: -1113.77838417373277

   => Energetics <=

    Nuclear Repulsion Energy =            996.5019129709909294
    One-Electron Energy =               -3517.0394610165703853
    Two-Electron Energy =                1406.7591638718467948
    Total Energy =                      -1113.7783841737327748
  Basis Set: (AUG-CC-PVTZ AUX)
    Blend: AUG-CC-PVTZ-RI
    Molecular point group: c1

    Geometry (in Angstrom), charge = 0, multiplicity = 1:

       Center              X                  Y                   Z               Mass
    ------------   -----------------  -----------------  -----------------  -----------------
         S            0.721048588304     0.004002021144     0.886457241284    31.972071174400
         F            1.239046588304     1.095397021144    -1.447504758716    18.998403162730
         F            2.903935588304     0.003888021144    -0.547586758716    18.998403162730
         F            1.239016588304    -1.087683978856    -1.447374758716    18.998403162730
         O            1.085134988304     1.239828521144     1.582065741284    15.994914619570
         O            1.044279588304    -1.283499978856     1.504160241284    15.994914619570
         C           -0.974409411696     0.003967021144     0.379586241284    12.000000000000
         C            1.583741588304     0.003894021144    -0.748796758716    12.000000000000
         C           -1.615504411696    -1.220258978856     0.174208241284    12.000000000000
         C           -1.615509411696     1.228166021144     0.174061241284    12.000000000000
         C           -2.947334411696    -1.209020978856    -0.240114758716    12.000000000000
         C           -2.947339411696     1.216872021144    -0.240260758716    12.000000000000
         C           -3.608314411696     0.003911021144    -0.452717758716    12.000000000000
         H           -1.087158411696    -2.150605978856     0.362339241284     1.007825032230
         H           -1.087167411696     2.158538021144     0.362080241284     1.007825032230
         H           -3.469159411696    -2.148976978856    -0.398859758716     1.007825032230
         H           -3.469168411696     2.156806021144    -0.399118758716     1.007825032230
         H           -4.646247411696     0.003890021144    -0.775815758716     1.007825032230

  Basis Set: AUG-CC-PVTZ
    Blend: AUG-CC-PVTZ
  Basis Set: (AUG-CC-PVTZ AUX)
    Blend: AUG-CC-PVTZ-JKFIT
	 Reference Energy          =   -1113.7783841737327748 [Eh]
	 Singles Energy            =      -0.0000000000000000 [Eh]
	 Same-Spin Energy          =      -0.7256273274303736 [Eh]
	 Opposite-Spin Energy      =      -2.0865674676656498 [Eh]
	 Correlation Energy        =      -2.8121947950960235 [Eh]
	 Total Energy              =   -1116.5905789688288223 [Eh]

	 ================> DF-SCS-MP2 Energies <==================
	-----------------------------------------------------------
	 SCS Same-Spin Scale       =       0.3333333333333333 [-]
	 SCS Opposite-Spin Scale   =       1.2000000000000000 [-]
	 SCS Same-Spin Energy      =      -0.2418757758101245 [Eh]
	 SCS Opposite-Spin Energy  =      -2.5038809611987798 [Eh]
	 SCS Correlation Energy    =      -2.7457567370089042 [Eh]
	 SCS Total Energy          =   -1116.5241409107416075 [Eh]
	-----------------------------------------------------------

  Dipole Moment: [D]
     X:    -4.7332      Y:     0.1049      Z:    -2.5038     Total:     5.3557

*** Psi4 exiting successfully. Buy a developer a beer!
