                               Psi4 1.3.2 release

  ==> Input File <==

--------------------------------------------------------------------------
#psi4
#
memory 32 gb

molecule  {
0 1
  S        0.7995757     0.0279954     0.8721372
  F        1.3317230     1.0914540    -1.4540400
  F        2.9966120    -0.0000550    -0.5541220
  F        1.3316930    -1.0916270    -1.4539100
  O        1.1369530     1.2876430     1.4974560
  O        1.1369560    -1.2874430     1.4976250
  C       -0.8817330     0.0000240     0.3730510
  C        1.6764180    -0.0000490    -0.7553320
  C       -1.5228280    -1.2242020     0.1676730
  C       -1.5228330     1.2242230     0.1675260
  C       -2.8546580    -1.2129640    -0.2466500
  C       -2.8546630     1.2129290    -0.2467960
  C       -3.5156380    -0.0000320    -0.4592530
  H       -0.9944820    -2.1545490     0.3558040
  H       -0.9944910     2.1545950     0.3555450
  H       -3.3764830    -2.1529200    -0.4053950
  H       -3.3764920     2.1528630    -0.4056540
  H       -4.5535710    -0.0000530    -0.7823510
units angstrom
no_reorient  #important for SAPT in psi4, default
symmetry c1  #important for SAPT in psi4, default
}

set PROPERTIES_ORIGIN ["COM"]
properties('MP2/aug-cc-pvtz', properties = ['dipole'])
--------------------------------------------------------------------------

    Molecular point group: c1
  Charge       = 0
  Multiplicity = 1
  Basis Set: AUG-CC-PVTZ
    Blend: AUG-CC-PVTZ
  Basis Set: (AUG-CC-PVTZ AUX)
    Blend: AUG-CC-PVTZ-JKFIT

    Orbital Energies [Eh]
    ---------------------

    Doubly Occupied:

       1A    -92.219017     2A    -26.373958     3A    -26.373796
       4A    -26.371609     5A    -20.581076     6A    -20.570152
       7A    -11.553234     8A    -11.300852     9A    -11.289426
      10A    -11.289252    11A    -11.284224    12A    -11.274040
      13A    -11.273959    14A     -9.188027    15A     -6.872845
      16A     -6.872202    17A     -6.871732    18A     -1.759445
      19A     -1.667819    20A     -1.666796    21A     -1.467841
      22A     -1.353567    23A     -1.200824    24A     -1.089002
      25A     -1.059411    26A     -1.032153    27A     -0.939227
      28A     -0.873835    29A     -0.871940    30A     -0.853111
      31A     -0.851629    32A     -0.803456    33A     -0.750860
      34A     -0.739176    35A     -0.735651    36A     -0.698907
      37A     -0.697586    38A     -0.688540    39A     -0.680779
      40A     -0.678641    41A     -0.669002    42A     -0.652498
      43A     -0.643820    44A     -0.631232    45A     -0.563021
      46A     -0.548439    47A     -0.539050    48A     -0.523312
      49A     -0.517708    50A     -0.495500    51A     -0.471217
      52A     -0.390708    53A     -0.376239

  @DF-RHF Final Energy: -1113.77633682225360

   => Energetics <=

    Nuclear Repulsion Energy =            997.6396122843010517
    One-Electron Energy =               -3519.3492071255241171
    Two-Electron Energy =                1407.9332580189693545
    Total Energy =                      -1113.7763368222535973
  Basis Set: (AUG-CC-PVTZ AUX)
    Blend: AUG-CC-PVTZ-RI
    Molecular point group: c1

    Geometry (in Angstrom), charge = 0, multiplicity = 1:

       Center              X                  Y                   Z               Mass
    ------------   -----------------  -----------------  -----------------  -----------------
         S            0.712165616274     0.023742839152     0.885804431725    31.972071174400
         F            1.244312916274     1.087201439152    -1.440372768275    18.998403162730
         F            2.909201916274    -0.004307560848    -0.540454768275    18.998403162730
         F            1.244282916274    -1.095879560848    -1.440242768275    18.998403162730
         O            1.049542916274     1.283390439152     1.511123231725    15.994914619570
         O            1.049545916274    -1.291695560848     1.511292231725    15.994914619570
         C           -0.969143083726    -0.004228560848     0.386718231725    12.000000000000
         C            1.589007916274    -0.004301560848    -0.741664768275    12.000000000000
         C           -1.610238083726    -1.228454560848     0.181340231725    12.000000000000
         C           -1.610243083726     1.219970439152     0.181193231725    12.000000000000
         C           -2.942068083726    -1.217216560848    -0.232982768275    12.000000000000
         C           -2.942073083726     1.208676439152    -0.233128768275    12.000000000000
         C           -3.603048083726    -0.004284560848    -0.445585768275    12.000000000000
         H           -1.081892083726    -2.158801560848     0.369471231725     1.007825032230
         H           -1.081901083726     2.150342439152     0.369212231725     1.007825032230
         H           -3.463893083726    -2.157172560848    -0.391727768275     1.007825032230
         H           -3.463902083726     2.148610439152    -0.391986768275     1.007825032230
         H           -4.640981083726    -0.004305560848    -0.768683768275     1.007825032230

  Basis Set: AUG-CC-PVTZ
    Blend: AUG-CC-PVTZ
  Basis Set: (AUG-CC-PVTZ AUX)
    Blend: AUG-CC-PVTZ-JKFIT
	 Reference Energy          =   -1113.7763368222535973 [Eh]
	 Singles Energy            =      -0.0000000000000000 [Eh]
	 Same-Spin Energy          =      -0.7260823294480448 [Eh]
	 Opposite-Spin Energy      =      -2.0872969171038194 [Eh]
	 Correlation Energy        =      -2.8133792465518641 [Eh]
	 Total Energy              =   -1116.5897160688055010 [Eh]

	 ================> DF-SCS-MP2 Energies <==================
	-----------------------------------------------------------
	 SCS Same-Spin Scale       =       0.3333333333333333 [-]
	 SCS Opposite-Spin Scale   =       1.2000000000000000 [-]
	 SCS Same-Spin Energy      =      -0.2420274431493483 [Eh]
	 SCS Opposite-Spin Energy  =      -2.5047563005245830 [Eh]
	 SCS Correlation Energy    =      -2.7467837436739311 [Eh]
	 SCS Total Energy          =   -1116.5231205659274565 [Eh]
	-----------------------------------------------------------

  Dipole Moment: [D]
     X:    -4.7673      Y:     0.2191      Z:    -2.3941     Total:     5.3392

*** Psi4 exiting successfully. Buy a developer a beer!
