                               Psi4 1.3.2 release

  ==> Input File <==

--------------------------------------------------------------------------
#psi4
#
memory 32 gb

molecule  {
0 1
  S        0.8137250     0.0000590     0.8799220
  F        1.3317230     1.0914540    -1.4540400
  F        2.9966120    -0.0000550    -0.5541220
  F        1.3316930    -1.0916270    -1.4539100
  O        1.1369530     1.2876430     1.4974560
  O        1.1369560    -1.2874430     1.4976250
  C       -0.8983897     0.0000279     0.4325304
  C        1.6764180    -0.0000490    -0.7553320
  C       -1.5228280    -1.2242020     0.1676730
  C       -1.5228330     1.2242230     0.1675260
  C       -2.8546580    -1.2129640    -0.2466500
  C       -2.8546630     1.2129290    -0.2467960
  C       -3.5156380    -0.0000320    -0.4592530
  H       -0.9944820    -2.1545490     0.3558040
  H       -0.9944910     2.1545950     0.3555450
  H       -3.3764830    -2.1529200    -0.4053950
  H       -3.3764920     2.1528630    -0.4056540
  H       -4.5535710    -0.0000530    -0.7823510
units angstrom
no_reorient  #important for SAPT in psi4, default
symmetry c1  #important for SAPT in psi4, default
}

set PROPERTIES_ORIGIN ["COM"]
properties('MP2/aug-cc-pvtz', properties = ['dipole'])
--------------------------------------------------------------------------

    Molecular point group: c1
  Charge       = 0
  Multiplicity = 1
  Basis Set: AUG-CC-PVTZ
    Blend: AUG-CC-PVTZ
  Basis Set: (AUG-CC-PVTZ AUX)
    Blend: AUG-CC-PVTZ-JKFIT

    Orbital Energies [Eh]
    ---------------------

    Doubly Occupied:

       1A    -92.219117     2A    -26.375050     3A    -26.375029
       4A    -26.373128     5A    -20.575839     6A    -20.575820
       7A    -11.555264     8A    -11.300625     9A    -11.288010
      10A    -11.287939    11A    -11.283023    12A    -11.273064
      13A    -11.272983    14A     -9.187914    15A     -6.872717
      16A     -6.872106    17A     -6.871710    18A     -1.760663
      19A     -1.668765    20A     -1.668250    21A     -1.468422
      22A     -1.360777    23A     -1.198413    24A     -1.085185
      25A     -1.057907    26A     -1.032876    27A     -0.937431
      28A     -0.873990    29A     -0.870087    30A     -0.854285
      31A     -0.852719    32A     -0.802773    33A     -0.750740
      34A     -0.740017    35A     -0.736306    36A     -0.699622
      37A     -0.698566    38A     -0.688278    39A     -0.681806
      40A     -0.677347    41A     -0.669943    42A     -0.651594
      43A     -0.645478    44A     -0.629891    45A     -0.562109
      46A     -0.546917    47A     -0.537592    48A     -0.525261
      49A     -0.517374    50A     -0.499252    51A     -0.470959
      52A     -0.389042    53A     -0.375082

  @DF-RHF Final Energy: -1113.77760486340276

   => Energetics <=

    Nuclear Repulsion Energy =            996.9862977318264257
    One-Electron Energy =               -3518.0376920154371874
    Two-Electron Energy =                1407.2737894202077769
    Total Energy =                      -1113.7776048634027575
  Basis Set: (AUG-CC-PVTZ AUX)
    Blend: AUG-CC-PVTZ-RI
    Molecular point group: c1

    Geometry (in Angstrom), charge = 0, multiplicity = 1:

       Center              X                  Y                   Z               Mass
    ------------   -----------------  -----------------  -----------------  -----------------
         S            0.725112504113     0.000059552398     0.889005106779    31.972071174400
         F            1.243110504113     1.091454552398    -1.444956893221    18.998403162730
         F            2.907999504113    -0.000054447602    -0.545038893221    18.998403162730
         F            1.243080504113    -1.091626447602    -1.444826893221    18.998403162730
         O            1.048340504113     1.287643552398     1.506539106779    15.994914619570
         O            1.048343504113    -1.287442447602     1.506708106779    15.994914619570
         C           -0.987002195887     0.000028452398     0.441613506779    12.000000000000
         C            1.587805504113    -0.000048447602    -0.746248893221    12.000000000000
         C           -1.611440495887    -1.224201447602     0.176756106779    12.000000000000
         C           -1.611445495887     1.224223552398     0.176609106779    12.000000000000
         C           -2.943270495887    -1.212963447602    -0.237566893221    12.000000000000
         C           -2.943275495887     1.212929552398    -0.237712893221    12.000000000000
         C           -3.604250495887    -0.000031447602    -0.450169893221    12.000000000000
         H           -1.083094495887    -2.154548447602     0.364887106779     1.007825032230
         H           -1.083103495887     2.154595552398     0.364628106779     1.007825032230
         H           -3.465095495887    -2.152919447602    -0.396311893221     1.007825032230
         H           -3.465104495887     2.152863552398    -0.396570893221     1.007825032230
         H           -4.642183495887    -0.000052447602    -0.773267893221     1.007825032230

  Basis Set: AUG-CC-PVTZ
    Blend: AUG-CC-PVTZ
  Basis Set: (AUG-CC-PVTZ AUX)
    Blend: AUG-CC-PVTZ-JKFIT
	 Reference Energy          =   -1113.7776048634027575 [Eh]
	 Singles Energy            =      -0.0000000000000000 [Eh]
	 Same-Spin Energy          =      -0.7258015754897160 [Eh]
	 Opposite-Spin Energy      =      -2.0869345033352946 [Eh]
	 Correlation Energy        =      -2.8127360788250106 [Eh]
	 Total Energy              =   -1116.5903409422278401 [Eh]

	 ================> DF-SCS-MP2 Energies <==================
	-----------------------------------------------------------
	 SCS Same-Spin Scale       =       0.3333333333333333 [-]
	 SCS Opposite-Spin Scale   =       1.2000000000000000 [-]
	 SCS Same-Spin Energy      =      -0.2419338584965720 [Eh]
	 SCS Opposite-Spin Energy  =      -2.5043214040023534 [Eh]
	 SCS Correlation Energy    =      -2.7462552624989254 [Eh]
	 SCS Total Energy          =   -1116.5238601259015923 [Eh]
	-----------------------------------------------------------

  Dipole Moment: [D]
     X:    -4.6153      Y:    -0.0002      Z:    -2.3719     Total:     5.1891

*** Psi4 exiting successfully. Buy a developer a beer!
