                               Psi4 1.3.2 release

  ==> Input File <==

--------------------------------------------------------------------------
#psi4
#
memory 32 gb

molecule  {
0 1
  S        0.8137250     0.0000590     0.8799220
  F        1.3317230     1.0914540    -1.4540400
  F        2.9966120    -0.0000550    -0.5541220
  F        1.3316930    -1.0916270    -1.4539100
  O        1.1919858     1.3096950     1.4142155
  O        1.1369560    -1.2874430     1.4976250
  C       -0.8817330     0.0000240     0.3730510
  C        1.6764180    -0.0000490    -0.7553320
  C       -1.5228280    -1.2242020     0.1676730
  C       -1.5228330     1.2242230     0.1675260
  C       -2.8546580    -1.2129640    -0.2466500
  C       -2.8546630     1.2129290    -0.2467960
  C       -3.5156380    -0.0000320    -0.4592530
  H       -0.9944820    -2.1545490     0.3558040
  H       -0.9944910     2.1545950     0.3555450
  H       -3.3764830    -2.1529200    -0.4053950
  H       -3.3764920     2.1528630    -0.4056540
  H       -4.5535710    -0.0000530    -0.7823510
units angstrom
no_reorient  #important for SAPT in psi4, default
symmetry c1  #important for SAPT in psi4, default
}

set PROPERTIES_ORIGIN ["COM"]
properties('MP2/aug-cc-pvtz', properties = ['dipole'])
--------------------------------------------------------------------------

    Molecular point group: c1
  Charge       = 0
  Multiplicity = 1
  Basis Set: AUG-CC-PVTZ
    Blend: AUG-CC-PVTZ
  Basis Set: (AUG-CC-PVTZ AUX)
    Blend: AUG-CC-PVTZ-JKFIT

    Orbital Energies [Eh]
    ---------------------

    Doubly Occupied:

       1A    -92.219943     2A    -26.370334     3A    -26.369866
       4A    -26.368135     5A    -20.580133     6A    -20.577215
       7A    -11.547610     8A    -11.301875     9A    -11.288833
      10A    -11.288677    11A    -11.283597    12A    -11.273795
      13A    -11.273668    14A     -9.188605    15A     -6.873475
      16A     -6.872775    17A     -6.872395    18A     -1.755872
      19A     -1.664117    20A     -1.663492    21A     -1.469763
      22A     -1.364400    23A     -1.199889    24A     -1.085839
      25A     -1.058975    26A     -1.028677    27A     -0.936060
      28A     -0.871586    29A     -0.871143    30A     -0.849575
      31A     -0.848207    32A     -0.803514    33A     -0.750793
      34A     -0.735835    35A     -0.733015    36A     -0.696707
      37A     -0.694339    38A     -0.687024    39A     -0.678873
      40A     -0.677046    41A     -0.668264    42A     -0.652589
      43A     -0.647637    44A     -0.630942    45A     -0.563206
      46A     -0.547841    47A     -0.538695    48A     -0.528544
      49A     -0.518474    50A     -0.502718    51A     -0.469537
      52A     -0.390059    53A     -0.375917

  @DF-RHF Final Energy: -1113.77772042920787

   => Energetics <=

    Nuclear Repulsion Energy =            998.1562989008639306
    One-Electron Energy =               -3520.4478544856615372
    Two-Electron Energy =                1408.5138351555897316
    Total Energy =                      -1113.7777204292078750
  Basis Set: (AUG-CC-PVTZ AUX)
    Blend: AUG-CC-PVTZ-RI
    Molecular point group: c1

    Geometry (in Angstrom), charge = 0, multiplicity = 1:

       Center              X                  Y                   Z               Mass
    ------------   -----------------  -----------------  -----------------  -----------------
         S            0.719968957911    -0.001619873221     0.898744221815    31.972071174400
         F            1.237966957911     1.089775126779    -1.435217778185    18.998403162730
         F            2.902855957911    -0.001733873221    -0.535299778185    18.998403162730
         F            1.237936957911    -1.093305873221    -1.435087778185    18.998403162730
         O            1.098229757911     1.308016126779     1.433037721815    15.994914619570
         O            1.043199957911    -1.289121873221     1.516447221815    15.994914619570
         C           -0.975489042089    -0.001654873221     0.391873221815    12.000000000000
         C            1.582661957911    -0.001727873221    -0.736509778185    12.000000000000
         C           -1.616584042089    -1.225880873221     0.186495221815    12.000000000000
         C           -1.616589042089     1.222544126779     0.186348221815    12.000000000000
         C           -2.948414042089    -1.214642873221    -0.227827778185    12.000000000000
         C           -2.948419042089     1.211250126779    -0.227973778185    12.000000000000
         C           -3.609394042089    -0.001710873221    -0.440430778185    12.000000000000
         H           -1.088238042089    -2.156227873221     0.374626221815     1.007825032230
         H           -1.088247042089     2.152916126779     0.374367221815     1.007825032230
         H           -3.470239042089    -2.154598873221    -0.386572778185     1.007825032230
         H           -3.470248042089     2.151184126779    -0.386831778185     1.007825032230
         H           -4.647327042089    -0.001731873221    -0.763528778185     1.007825032230

  Basis Set: AUG-CC-PVTZ
    Blend: AUG-CC-PVTZ
  Basis Set: (AUG-CC-PVTZ AUX)
    Blend: AUG-CC-PVTZ-JKFIT
	 Reference Energy          =   -1113.7777204292078750 [Eh]
	 Singles Energy            =      -0.0000000000000000 [Eh]
	 Same-Spin Energy          =      -0.7259919932203431 [Eh]
	 Opposite-Spin Energy      =      -2.0871233651621899 [Eh]
	 Correlation Energy        =      -2.8131153583825332 [Eh]
	 Total Energy              =   -1116.5908357875903221 [Eh]

	 ================> DF-SCS-MP2 Energies <==================
	-----------------------------------------------------------
	 SCS Same-Spin Scale       =       0.3333333333333333 [-]
	 SCS Opposite-Spin Scale   =       1.2000000000000000 [-]
	 SCS Same-Spin Energy      =      -0.2419973310734477 [Eh]
	 SCS Opposite-Spin Energy  =      -2.5045480381946277 [Eh]
	 SCS Correlation Energy    =      -2.7465453692680755 [Eh]
	 SCS Total Energy          =   -1116.5242657984758807 [Eh]
	-----------------------------------------------------------

  Dipole Moment: [D]
     X:    -4.7833      Y:    -0.0511      Z:    -2.1183     Total:     5.2316

*** Psi4 exiting successfully. Buy a developer a beer!
