                               Psi4 1.3.2 release

  ==> Input File <==

--------------------------------------------------------------------------
#psi4
#
memory 32 gb

molecule  {
0 1
  S        0.8137250     0.0000590     0.8799220
  F        1.3317230     1.0914540    -1.4540400
  F        2.9966120    -0.0000550    -0.5541220
  F        1.3316930    -1.0916270    -1.4539100
  O        1.1159205     1.3111840     1.4572662
  O        1.1369560    -1.2874430     1.4976250
  C       -0.8817330     0.0000240     0.3730510
  C        1.6764180    -0.0000490    -0.7553320
  C       -1.5228280    -1.2242020     0.1676730
  C       -1.5228330     1.2242230     0.1675260
  C       -2.8546580    -1.2129640    -0.2466500
  C       -2.8546630     1.2129290    -0.2467960
  C       -3.5156380    -0.0000320    -0.4592530
  H       -0.9944820    -2.1545490     0.3558040
  H       -0.9944910     2.1545950     0.3555450
  H       -3.3764830    -2.1529200    -0.4053950
  H       -3.3764920     2.1528630    -0.4056540
  H       -4.5535710    -0.0000530    -0.7823510
units angstrom
no_reorient  #important for SAPT in psi4, default
symmetry c1  #important for SAPT in psi4, default
}

set PROPERTIES_ORIGIN ["COM"]
properties('MP2/aug-cc-pvtz', properties = ['dipole'])
--------------------------------------------------------------------------

    Molecular point group: c1
  Charge       = 0
  Multiplicity = 1
  Basis Set: AUG-CC-PVTZ
    Blend: AUG-CC-PVTZ
  Basis Set: (AUG-CC-PVTZ AUX)
    Blend: AUG-CC-PVTZ-JKFIT

    Orbital Energies [Eh]
    ---------------------

    Doubly Occupied:

       1A    -92.220217     2A    -26.373350     3A    -26.373273
       4A    -26.371257     5A    -20.580428     6A    -20.577783
       7A    -11.552279     8A    -11.299110     9A    -11.286851
      10A    -11.286611    11A    -11.281920    12A    -11.272234
      13A    -11.272131    14A     -9.188919    15A     -6.873778
      16A     -6.873099    17A     -6.872710    18A     -1.758982
      19A     -1.667107    20A     -1.666620    21A     -1.470099
      22A     -1.364725    23A     -1.197965    24A     -1.084712
      25A     -1.057264    26A     -1.031348    27A     -0.936792
      28A     -0.872256    29A     -0.869706    30A     -0.852596
      31A     -0.850989    32A     -0.802713    33A     -0.751122
      34A     -0.738522    35A     -0.735127    36A     -0.698361
      37A     -0.697117    38A     -0.687331    39A     -0.680315
      40A     -0.677679    41A     -0.670084    42A     -0.651401
      43A     -0.647414    44A     -0.629423    45A     -0.561571
      46A     -0.546111    47A     -0.537153    48A     -0.528607
      49A     -0.519093    50A     -0.502993    51A     -0.470580
      52A     -0.388182    53A     -0.374323

  @DF-RHF Final Energy: -1113.77806382598305

   => Energetics <=

    Nuclear Repulsion Energy =            997.9050951638580500
    One-Electron Energy =               -3519.9016484021258293
    Two-Electron Energy =                1408.2184894122844980
    Total Energy =                      -1113.7780638259830539
  Basis Set: (AUG-CC-PVTZ AUX)
    Blend: AUG-CC-PVTZ-RI
    Molecular point group: c1

    Geometry (in Angstrom), charge = 0, multiplicity = 1:

       Center              X                  Y                   Z               Mass
    ------------   -----------------  -----------------  -----------------  -----------------
         S            0.725762671207    -0.001733286816     0.895465152214    31.972071174400
         F            1.243760671207     1.089661713184    -1.438496847786    18.998403162730
         F            2.908649671207    -0.001847286816    -0.538578847786    18.998403162730
         F            1.243730671207    -1.093419286816    -1.438366847786    18.998403162730
         O            1.027958171207     1.309391713184     1.472809352214    15.994914619570
         O            1.048993671207    -1.289235286816     1.513168152214    15.994914619570
         C           -0.969695328793    -0.001768286816     0.388594152214    12.000000000000
         C            1.588455671207    -0.001841286816    -0.739788847786    12.000000000000
         C           -1.610790328793    -1.225994286816     0.183216152214    12.000000000000
         C           -1.610795328793     1.222430713184     0.183069152214    12.000000000000
         C           -2.942620328793    -1.214756286816    -0.231106847786    12.000000000000
         C           -2.942625328793     1.211136713184    -0.231252847786    12.000000000000
         C           -3.603600328793    -0.001824286816    -0.443709847786    12.000000000000
         H           -1.082444328793    -2.156341286816     0.371347152214     1.007825032230
         H           -1.082453328793     2.152802713184     0.371088152214     1.007825032230
         H           -3.464445328793    -2.154712286816    -0.389851847786     1.007825032230
         H           -3.464454328793     2.151070713184    -0.390110847786     1.007825032230
         H           -4.641533328793    -0.001845286816    -0.766807847786     1.007825032230

  Basis Set: AUG-CC-PVTZ
    Blend: AUG-CC-PVTZ
  Basis Set: (AUG-CC-PVTZ AUX)
    Blend: AUG-CC-PVTZ-JKFIT
	 Reference Energy          =   -1113.7780638259830539 [Eh]
	 Singles Energy            =      -0.0000000000000000 [Eh]
	 Same-Spin Energy          =      -0.7260400431672627 [Eh]
	 Opposite-Spin Energy      =      -2.0872216273184749 [Eh]
	 Correlation Energy        =      -2.8132616704857378 [Eh]
	 Total Energy              =   -1116.5913254964686985 [Eh]

	 ================> DF-SCS-MP2 Energies <==================
	-----------------------------------------------------------
	 SCS Same-Spin Scale       =       0.3333333333333333 [-]
	 SCS Opposite-Spin Scale   =       1.2000000000000000 [-]
	 SCS Same-Spin Energy      =      -0.2420133477224209 [Eh]
	 SCS Opposite-Spin Energy  =      -2.5046659527821697 [Eh]
	 SCS Correlation Energy    =      -2.7466793005045904 [Eh]
	 SCS Total Energy          =   -1116.5247431264876923 [Eh]
	-----------------------------------------------------------

  Dipole Moment: [D]
     X:    -4.5330      Y:    -0.0477      Z:    -2.2123     Total:     5.0442

*** Psi4 exiting successfully. Buy a developer a beer!
