                               Psi4 1.3.2 release

  ==> Input File <==

--------------------------------------------------------------------------
#psi4
#
memory 32 gb

molecule  {
0 1
  S        0.8137250     0.0000590     0.8799220
  F        1.3317230     1.0914540    -1.4540400
  F        2.9966120    -0.0000550    -0.5541220
  F        1.3316930    -1.0916270    -1.4539100
  O        1.1608735     1.2795292     1.5013245
  O        1.1369560    -1.2874430     1.4976250
  C       -0.8817330     0.0000240     0.3730510
  C        1.6764180    -0.0000490    -0.7553320
  C       -1.5228280    -1.2242020     0.1676730
  C       -1.5228330     1.2242230     0.1675260
  C       -2.8546580    -1.2129640    -0.2466500
  C       -2.8546630     1.2129290    -0.2467960
  C       -3.5156380    -0.0000320    -0.4592530
  H       -0.9944820    -2.1545490     0.3558040
  H       -0.9944910     2.1545950     0.3555450
  H       -3.3764830    -2.1529200    -0.4053950
  H       -3.3764920     2.1528630    -0.4056540
  H       -4.5535710    -0.0000530    -0.7823510
units angstrom
no_reorient  #important for SAPT in psi4, default
symmetry c1  #important for SAPT in psi4, default
}

set PROPERTIES_ORIGIN ["COM"]
properties('MP2/aug-cc-pvtz', properties = ['dipole'])
--------------------------------------------------------------------------

    Molecular point group: c1
  Charge       = 0
  Multiplicity = 1
  Basis Set: AUG-CC-PVTZ
    Blend: AUG-CC-PVTZ
  Basis Set: (AUG-CC-PVTZ AUX)
    Blend: AUG-CC-PVTZ-JKFIT

    Orbital Energies [Eh]
    ---------------------

    Doubly Occupied:

       1A    -92.219418     2A    -26.373862     3A    -26.373723
       4A    -26.371180     5A    -20.577191     6A    -20.576361
       7A    -11.552638     8A    -11.301257     9A    -11.288409
      10A    -11.288295    11A    -11.283147    12A    -11.273507
      13A    -11.273422    14A     -9.188218    15A     -6.873077
      16A     -6.872336    17A     -6.872042    18A     -1.759256
      19A     -1.667597    20A     -1.666666    21A     -1.468974
      22A     -1.360821    23A     -1.199574    24A     -1.086623
      25A     -1.058647    26A     -1.031830    27A     -0.937694
      28A     -0.872723    29A     -0.871114    30A     -0.852937
      31A     -0.851255    32A     -0.803047    33A     -0.750805
      34A     -0.738851    35A     -0.735432    36A     -0.698734
      37A     -0.697432    38A     -0.687923    39A     -0.680561
      40A     -0.677844    41A     -0.669849    42A     -0.652224
      43A     -0.645842    44A     -0.630593    45A     -0.562945
      46A     -0.547564    47A     -0.538338    48A     -0.525380
      49A     -0.518894    50A     -0.499726    51A     -0.471313
      52A     -0.389583    53A     -0.375627

  @DF-RHF Final Energy: -1113.77895265818711

   => Energetics <=

    Nuclear Repulsion Energy =            997.2946915445893410
    One-Electron Energy =               -3518.6626869167703262
    Two-Electron Energy =                1407.5890427139941039
    Total Energy =                      -1113.7789526581871087
  Basis Set: (AUG-CC-PVTZ AUX)
    Blend: AUG-CC-PVTZ-RI
    Molecular point group: c1

    Geometry (in Angstrom), charge = 0, multiplicity = 1:

       Center              X                  Y                   Z               Mass
    ------------   -----------------  -----------------  -----------------  -----------------
         S            0.722338707931     0.000677784141     0.892109336113    31.972071174400
         F            1.240336707931     1.092072784141    -1.441852663887    18.998403162730
         F            2.905225707931     0.000563784141    -0.541934663887    18.998403162730
         F            1.240306707931    -1.091008215859    -1.441722663887    18.998403162730
         O            1.069487207931     1.280147984141     1.513511836113    15.994914619570
         O            1.045569707931    -1.286824215859     1.509812336113    15.994914619570
         C           -0.973119292069     0.000642784141     0.385238336113    12.000000000000
         C            1.585031707931     0.000569784141    -0.743144663887    12.000000000000
         C           -1.614214292069    -1.223583215859     0.179860336113    12.000000000000
         C           -1.614219292069     1.224841784141     0.179713336113    12.000000000000
         C           -2.946044292069    -1.212345215859    -0.234462663887    12.000000000000
         C           -2.946049292069     1.213547784141    -0.234608663887    12.000000000000
         C           -3.607024292069     0.000586784141    -0.447065663887    12.000000000000
         H           -1.085868292069    -2.153930215859     0.367991336113     1.007825032230
         H           -1.085877292069     2.155213784141     0.367732336113     1.007825032230
         H           -3.467869292069    -2.152301215859    -0.393207663887     1.007825032230
         H           -3.467878292069     2.153481784141    -0.393466663887     1.007825032230
         H           -4.644957292069     0.000565784141    -0.770163663887     1.007825032230

  Basis Set: AUG-CC-PVTZ
    Blend: AUG-CC-PVTZ
  Basis Set: (AUG-CC-PVTZ AUX)
    Blend: AUG-CC-PVTZ-JKFIT
	 Reference Energy          =   -1113.7789526581871087 [Eh]
	 Singles Energy            =      -0.0000000000000000 [Eh]
	 Same-Spin Energy          =      -0.7258023342809405 [Eh]
	 Opposite-Spin Energy      =      -2.0868173692772336 [Eh]
	 Correlation Energy        =      -2.8126197035581741 [Eh]
	 Total Energy              =   -1116.5915723617451931 [Eh]

	 ================> DF-SCS-MP2 Energies <==================
	-----------------------------------------------------------
	 SCS Same-Spin Scale       =       0.3333333333333333 [-]
	 SCS Opposite-Spin Scale   =       1.2000000000000000 [-]
	 SCS Same-Spin Energy      =      -0.2419341114269802 [Eh]
	 SCS Opposite-Spin Energy  =      -2.5041808431326804 [Eh]
	 SCS Correlation Energy    =      -2.7461149545596606 [Eh]
	 SCS Total Energy          =   -1116.5250676127468523 [Eh]
	-----------------------------------------------------------

  Dipole Moment: [D]
     X:    -4.6794      Y:     0.0149      Z:    -2.3243     Total:     5.2248

*** Psi4 exiting successfully. Buy a developer a beer!
