                               Psi4 1.3.2 release

  ==> Input File <==

--------------------------------------------------------------------------
#psi4
#
memory 32 gb

molecule  {
0 1
  S        0.8137250     0.0000590     0.8799220
  F        1.3317230     1.0914540    -1.4540400
  F        2.9966120    -0.0000550    -0.5541220
  F        1.3316930    -1.0916270    -1.4539100
  O        0.9916192     1.3280114     1.4703399
  O        1.1369560    -1.2874430     1.4976250
  C       -0.8817330     0.0000240     0.3730510
  C        1.6764180    -0.0000490    -0.7553320
  C       -1.5228280    -1.2242020     0.1676730
  C       -1.5228330     1.2242230     0.1675260
  C       -2.8546580    -1.2129640    -0.2466500
  C       -2.8546630     1.2129290    -0.2467960
  C       -3.5156380    -0.0000320    -0.4592530
  H       -0.9944820    -2.1545490     0.3558040
  H       -0.9944910     2.1545950     0.3555450
  H       -3.3764830    -2.1529200    -0.4053950
  H       -3.3764920     2.1528630    -0.4056540
  H       -4.5535710    -0.0000530    -0.7823510
units angstrom
no_reorient  #important for SAPT in psi4, default
symmetry c1  #important for SAPT in psi4, default
}

set PROPERTIES_ORIGIN ["COM"]
properties('MP2/aug-cc-pvtz', properties = ['dipole'])
--------------------------------------------------------------------------

    Molecular point group: c1
  Charge       = 0
  Multiplicity = 1
  Basis Set: AUG-CC-PVTZ
    Blend: AUG-CC-PVTZ
  Basis Set: (AUG-CC-PVTZ AUX)
    Blend: AUG-CC-PVTZ-JKFIT

    Orbital Energies [Eh]
    ---------------------

    Doubly Occupied:

       1A    -92.221006     2A    -26.376974     3A    -26.376200
       4A    -26.374790     5A    -20.583750     6A    -20.578573
       7A    -11.557374     8A    -11.294169     9A    -11.283194
      10A    -11.282629    11A    -11.278830    12A    -11.269310
      13A    -11.269196    14A     -9.189750    15A     -6.874596
      16A     -6.873983    17A     -6.873495    18A     -1.762292
      19A     -1.670317    20A     -1.669901    21A     -1.471517
      22A     -1.367871    23A     -1.194299    24A     -1.081946
      25A     -1.054053    26A     -1.033761    27A     -0.937132
      28A     -0.872788    29A     -0.866505    30A     -0.855765
      31A     -0.853777    32A     -0.801573    33A     -0.752002
      34A     -0.741324    35A     -0.737102    36A     -0.700513
      37A     -0.700039    38A     -0.686707    39A     -0.683357
      40A     -0.676666    41A     -0.672151    42A     -0.649440
      43A     -0.647649    44A     -0.626622    45A     -0.558506
      46A     -0.543107    47A     -0.534794    48A     -0.530118
      49A     -0.520082    50A     -0.505234    51A     -0.470241
      52A     -0.384582    53A     -0.371308

  @DF-RHF Final Energy: -1113.77446835403043

   => Energetics <=

    Nuclear Repulsion Energy =            998.2567453067963470
    One-Electron Energy =               -3520.5767108367213041
    Two-Electron Energy =                1408.5454971758945248
    Total Energy =                      -1113.7744683540304322
  Basis Set: (AUG-CC-PVTZ AUX)
    Blend: AUG-CC-PVTZ-RI
    Molecular point group: c1

    Geometry (in Angstrom), charge = 0, multiplicity = 1:

       Center              X                  Y                   Z               Mass
    ------------   -----------------  -----------------  -----------------  -----------------
         S            0.735230406092    -0.003014989920     0.894469359526    31.972071174400
         F            1.253228406092     1.088380010080    -1.439492640474    18.998403162730
         F            2.918117406092    -0.003128989920    -0.539574640474    18.998403162730
         F            1.253198406092    -1.094700989920    -1.439362640474    18.998403162730
         O            0.913124606092     1.324937410080     1.484887259526    15.994914619570
         O            1.058461406092    -1.290516989920     1.512172359526    15.994914619570
         C           -0.960227593908    -0.003049989920     0.387598359526    12.000000000000
         C            1.597923406092    -0.003122989920    -0.740784640474    12.000000000000
         C           -1.601322593908    -1.227275989920     0.182220359526    12.000000000000
         C           -1.601327593908     1.221149010080     0.182073359526    12.000000000000
         C           -2.933152593908    -1.216037989920    -0.232102640474    12.000000000000
         C           -2.933157593908     1.209855010080    -0.232248640474    12.000000000000
         C           -3.594132593908    -0.003105989920    -0.444705640474    12.000000000000
         H           -1.072976593908    -2.157622989920     0.370351359526     1.007825032230
         H           -1.072985593908     2.151521010080     0.370092359526     1.007825032230
         H           -3.454977593908    -2.155993989920    -0.390847640474     1.007825032230
         H           -3.454986593908     2.149789010080    -0.391106640474     1.007825032230
         H           -4.632065593908    -0.003126989920    -0.767803640474     1.007825032230

  Basis Set: AUG-CC-PVTZ
    Blend: AUG-CC-PVTZ
  Basis Set: (AUG-CC-PVTZ AUX)
    Blend: AUG-CC-PVTZ-JKFIT
	 Reference Energy          =   -1113.7744683540304322 [Eh]
	 Singles Energy            =      -0.0000000000000000 [Eh]
	 Same-Spin Energy          =      -0.7264634404364545 [Eh]
	 Opposite-Spin Energy      =      -2.0880068971845831 [Eh]
	 Correlation Energy        =      -2.8144703376210378 [Eh]
	 Total Energy              =   -1116.5889386916514923 [Eh]

	 ================> DF-SCS-MP2 Energies <==================
	-----------------------------------------------------------
	 SCS Same-Spin Scale       =       0.3333333333333333 [-]
	 SCS Opposite-Spin Scale   =       1.2000000000000000 [-]
	 SCS Same-Spin Energy      =      -0.2421544801454848 [Eh]
	 SCS Opposite-Spin Energy  =      -2.5056082766214995 [Eh]
	 SCS Correlation Energy    =      -2.7477627567669844 [Eh]
	 SCS Total Energy          =   -1116.5222311107975202 [Eh]
	-----------------------------------------------------------

  Dipole Moment: [D]
     X:    -4.1161      Y:    -0.0726      Z:    -2.2224     Total:     4.6783

*** Psi4 exiting successfully. Buy a developer a beer!
