                               Psi4 1.3.2 release

  ==> Input File <==

--------------------------------------------------------------------------
#psi4
#
memory 32 gb

molecule  {
0 1
  S        0.8137250     0.0000590     0.8799220
  F        1.3317230     1.0914540    -1.4540400
  F        2.9966120    -0.0000550    -0.5541220
  F        1.3316930    -1.0916270    -1.4539100
  O        1.1646832     1.2994605     1.4561868
  O        1.1369560    -1.2874430     1.4976250
  C       -0.8817330     0.0000240     0.3730510
  C        1.6764180    -0.0000490    -0.7553320
  C       -1.5228280    -1.2242020     0.1676730
  C       -1.5228330     1.2242230     0.1675260
  C       -2.8546580    -1.2129640    -0.2466500
  C       -2.8546630     1.2129290    -0.2467960
  C       -3.5156380    -0.0000320    -0.4592530
  H       -0.9944820    -2.1545490     0.3558040
  H       -0.9944910     2.1545950     0.3555450
  H       -3.3764830    -2.1529200    -0.4053950
  H       -3.3764920     2.1528630    -0.4056540
  H       -4.5535710    -0.0000530    -0.7823510
units angstrom
no_reorient  #important for SAPT in psi4, default
symmetry c1  #important for SAPT in psi4, default
}

set PROPERTIES_ORIGIN ["COM"]
properties('MP2/aug-cc-pvtz', properties = ['dipole'])
--------------------------------------------------------------------------

    Molecular point group: c1
  Charge       = 0
  Multiplicity = 1
  Basis Set: AUG-CC-PVTZ
    Blend: AUG-CC-PVTZ
  Basis Set: (AUG-CC-PVTZ AUX)
    Blend: AUG-CC-PVTZ-JKFIT

    Orbital Energies [Eh]
    ---------------------

    Doubly Occupied:

       1A    -92.219819     2A    -26.372291     3A    -26.372064
       4A    -26.369945     5A    -20.578799     6A    -20.577353
       7A    -11.550489     8A    -11.301067     9A    -11.288243
      10A    -11.288139    11A    -11.283088    12A    -11.273363
      13A    -11.273266    14A     -9.188535    15A     -6.873399
      16A     -6.872689    17A     -6.872340    18A     -1.757808
      19A     -1.666063    20A     -1.665355    21A     -1.469526
      22A     -1.363157    23A     -1.199378    24A     -1.085896
      25A     -1.058502    26A     -1.030454    27A     -0.936819
      28A     -0.872059    29A     -0.870952    30A     -0.851484
      31A     -0.849954    32A     -0.803166    33A     -0.750843
      34A     -0.737542    35A     -0.734394    36A     -0.697770
      37A     -0.696091    38A     -0.687487    39A     -0.679363
      40A     -0.677944    41A     -0.669252    42A     -0.652212
      43A     -0.646961    44A     -0.630501    45A     -0.562768
      46A     -0.547376    47A     -0.538238    48A     -0.527413
      49A     -0.518767    50A     -0.501717    51A     -0.470493
      52A     -0.389507    53A     -0.375483

  @DF-RHF Final Energy: -1113.77853449667759

   => Energetics <=

    Nuclear Repulsion Energy =            997.7651274826464487
    One-Electron Energy =               -3519.6321480143819826
    Two-Electron Energy =                1408.0884860350581675
    Total Energy =                      -1113.7785344966775938
  Basis Set: (AUG-CC-PVTZ AUX)
    Blend: AUG-CC-PVTZ-RI
    Molecular point group: c1

    Geometry (in Angstrom), charge = 0, multiplicity = 1:

       Center              X                  Y                   Z               Mass
    ------------   -----------------  -----------------  -----------------  -----------------
         S            0.722048532127    -0.000840335656     0.895547367549    31.972071174400
         F            1.240046532127     1.090554664344    -1.438414632451    18.998403162730
         F            2.904935532127    -0.000954335656    -0.538496632451    18.998403162730
         F            1.240016532127    -1.092526335656    -1.438284632451    18.998403162730
         O            1.073006732127     1.298561164344     1.471812167549    15.994914619570
         O            1.045279532127    -1.288342335656     1.513250367549    15.994914619570
         C           -0.973409467873    -0.000875335656     0.388676367549    12.000000000000
         C            1.584741532127    -0.000948335656    -0.739706632451    12.000000000000
         C           -1.614504467873    -1.225101335656     0.183298367549    12.000000000000
         C           -1.614509467873     1.223323664344     0.183151367549    12.000000000000
         C           -2.946334467873    -1.213863335656    -0.231024632451    12.000000000000
         C           -2.946339467873     1.212029664344    -0.231170632451    12.000000000000
         C           -3.607314467873    -0.000931335656    -0.443627632451    12.000000000000
         H           -1.086158467873    -2.155448335656     0.371429367549     1.007825032230
         H           -1.086167467873     2.153695664344     0.371170367549     1.007825032230
         H           -3.468159467873    -2.153819335656    -0.389769632451     1.007825032230
         H           -3.468168467873     2.151963664344    -0.390028632451     1.007825032230
         H           -4.645247467873    -0.000952335656    -0.766725632451     1.007825032230

  Basis Set: AUG-CC-PVTZ
    Blend: AUG-CC-PVTZ
  Basis Set: (AUG-CC-PVTZ AUX)
    Blend: AUG-CC-PVTZ-JKFIT
	 Reference Energy          =   -1113.7785344966775938 [Eh]
	 Singles Energy            =      -0.0000000000000000 [Eh]
	 Same-Spin Energy          =      -0.7259160079166388 [Eh]
	 Opposite-Spin Energy      =      -2.0869973965621820 [Eh]
	 Correlation Energy        =      -2.8129134044788207 [Eh]
	 Total Energy              =   -1116.5914479011564708 [Eh]

	 ================> DF-SCS-MP2 Energies <==================
	-----------------------------------------------------------
	 SCS Same-Spin Scale       =       0.3333333333333333 [-]
	 SCS Opposite-Spin Scale   =       1.2000000000000000 [-]
	 SCS Same-Spin Energy      =      -0.2419720026388796 [Eh]
	 SCS Opposite-Spin Energy  =      -2.5043968758746185 [Eh]
	 SCS Correlation Energy    =      -2.7463688785134979 [Eh]
	 SCS Total Energy          =   -1116.5249033751911156 [Eh]
	-----------------------------------------------------------

  Dipole Moment: [D]
     X:    -4.6929      Y:    -0.0272      Z:    -2.2164     Total:     5.1900

*** Psi4 exiting successfully. Buy a developer a beer!
