                               Psi4 1.3.2 release

  ==> Input File <==

--------------------------------------------------------------------------
#psi4
#
memory 32 gb

molecule  {
0 1
  S        0.8137250     0.0000590     0.8799220
  F        1.3317230     1.0914540    -1.4540400
  F        2.9966120    -0.0000550    -0.5541220
  F        1.3316930    -1.0916270    -1.4539100
  O        1.1975876     1.2077320     1.6133200
  O        1.1369560    -1.2874430     1.4976250
  C       -0.8817330     0.0000240     0.3730510
  C        1.6764180    -0.0000490    -0.7553320
  C       -1.5228280    -1.2242020     0.1676730
  C       -1.5228330     1.2242230     0.1675260
  C       -2.8546580    -1.2129640    -0.2466500
  C       -2.8546630     1.2129290    -0.2467960
  C       -3.5156380    -0.0000320    -0.4592530
  H       -0.9944820    -2.1545490     0.3558040
  H       -0.9944910     2.1545950     0.3555450
  H       -3.3764830    -2.1529200    -0.4053950
  H       -3.3764920     2.1528630    -0.4056540
  H       -4.5535710    -0.0000530    -0.7823510
units angstrom
no_reorient  #important for SAPT in psi4, default
symmetry c1  #important for SAPT in psi4, default
}

set PROPERTIES_ORIGIN ["COM"]
properties('MP2/aug-cc-pvtz', properties = ['dipole'])
--------------------------------------------------------------------------

    Molecular point group: c1
  Charge       = 0
  Multiplicity = 1
  Basis Set: AUG-CC-PVTZ
    Blend: AUG-CC-PVTZ
  Basis Set: (AUG-CC-PVTZ AUX)
    Blend: AUG-CC-PVTZ-JKFIT

    Orbital Energies [Eh]
    ---------------------

    Doubly Occupied:

       1A    -92.217741     2A    -26.376768     3A    -26.376579
       4A    -26.372995     5A    -20.575939     6A    -20.567976
       7A    -11.556327     8A    -11.303630     9A    -11.290432
      10A    -11.289773    11A    -11.284381    12A    -11.274984
      13A    -11.274791    14A     -9.186836    15A     -6.871673
      16A     -6.870851    17A     -6.870687    18A     -1.761719
      19A     -1.670402    20A     -1.668671    21A     -1.467109
      22A     -1.352501    23A     -1.201377    24A     -1.089539
      25A     -1.060161    26A     -1.034348    27A     -0.939930
      28A     -0.874211    29A     -0.872639    30A     -0.855468
      31A     -0.853473    32A     -0.803246    33A     -0.750541
      34A     -0.741159    35A     -0.737226    36A     -0.700594
      37A     -0.699780    38A     -0.688996    39A     -0.682785
      40A     -0.677819    41A     -0.670380    42A     -0.653012
      43A     -0.641777    44A     -0.631817    45A     -0.564564
      46A     -0.549219    47A     -0.539698    48A     -0.518645
      49A     -0.518279    50A     -0.491981    51A     -0.473002
      52A     -0.390995    53A     -0.377058

  @DF-RHF Final Energy: -1113.77724860973876

   => Energetics <=

    Nuclear Repulsion Energy =            996.0947383350361406
    One-Electron Energy =               -3516.2110064599178259
    Two-Electron Energy =                1406.3390195151428088
    Total Energy =                      -1113.7772486097387628
  Basis Set: (AUG-CC-PVTZ AUX)
    Blend: AUG-CC-PVTZ-RI
    Molecular point group: c1

    Geometry (in Angstrom), charge = 0, multiplicity = 1:

       Center              X                  Y                   Z               Mass
    ------------   -----------------  -----------------  -----------------  -----------------
         S            0.719542282106     0.006146406393     0.883578904794    31.972071174400
         F            1.237540282106     1.097541406393    -1.450383095206    18.998403162730
         F            2.902429282106     0.006032406393    -0.550465095206    18.998403162730
         F            1.237510282106    -1.085539593607    -1.450253095206    18.998403162730
         O            1.103404882106     1.213819406393     1.616976904794    15.994914619570
         O            1.042773282106    -1.281355593607     1.501281904794    15.994914619570
         C           -0.975915717894     0.006111406393     0.376707904794    12.000000000000
         C            1.582235282106     0.006038406393    -0.751675095206    12.000000000000
         C           -1.617010717894    -1.218114593607     0.171329904794    12.000000000000
         C           -1.617015717894     1.230310406393     0.171182904794    12.000000000000
         C           -2.948840717894    -1.206876593607    -0.242993095206    12.000000000000
         C           -2.948845717894     1.219016406393    -0.243139095206    12.000000000000
         C           -3.609820717894     0.006055406393    -0.455596095206    12.000000000000
         H           -1.088664717894    -2.148461593607     0.359460904794     1.007825032230
         H           -1.088673717894     2.160682406393     0.359201904794     1.007825032230
         H           -3.470665717894    -2.146832593607    -0.401738095206     1.007825032230
         H           -3.470674717894     2.158950406393    -0.401997095206     1.007825032230
         H           -4.647753717894     0.006034406393    -0.778694095206     1.007825032230

  Basis Set: AUG-CC-PVTZ
    Blend: AUG-CC-PVTZ
  Basis Set: (AUG-CC-PVTZ AUX)
    Blend: AUG-CC-PVTZ-JKFIT
	 Reference Energy          =   -1113.7772486097387628 [Eh]
	 Singles Energy            =      -0.0000000000000000 [Eh]
	 Same-Spin Energy          =      -0.7255569475116210 [Eh]
	 Opposite-Spin Energy      =      -2.0864843510597630 [Eh]
	 Correlation Energy        =      -2.8120412985713843 [Eh]
	 Total Energy              =   -1116.5892899083100929 [Eh]

	 ================> DF-SCS-MP2 Energies <==================
	-----------------------------------------------------------
	 SCS Same-Spin Scale       =       0.3333333333333333 [-]
	 SCS Opposite-Spin Scale   =       1.2000000000000000 [-]
	 SCS Same-Spin Energy      =      -0.2418523158372070 [Eh]
	 SCS Opposite-Spin Energy  =      -2.5037812212717157 [Eh]
	 SCS Correlation Energy    =      -2.7456335371089224 [Eh]
	 SCS Total Energy          =   -1116.5228821468476781 [Eh]
	-----------------------------------------------------------

  Dipole Moment: [D]
     X:    -4.7962      Y:     0.1621      Z:    -2.5963     Total:     5.4562

*** Psi4 exiting successfully. Buy a developer a beer!
