                               Psi4 1.4a3.dev225

  ==> Input File <==

--------------------------------------------------------------------------
#psi4
#
memory 32 gb

molecule  {
0 1
  S        0.8137250     0.0000590     0.8799220
  F        1.3317230     1.0914540    -1.4540400
  F        2.9966120    -0.0000550    -0.5541220
  F        1.3316930    -1.0916270    -1.4539100
  O        1.1369530     1.2876430     1.4974560
  O        1.1369560    -1.2874430     1.4976250
  C       -0.8817330     0.0000240     0.3730510
  C        1.6857501    -0.0000502    -0.7730213
  C       -1.5228280    -1.2242020     0.1676730
  C       -1.5228330     1.2242230     0.1675260
  C       -2.8546580    -1.2129640    -0.2466500
  C       -2.8546630     1.2129290    -0.2467960
  C       -3.5156380    -0.0000320    -0.4592530
  H       -0.9944820    -2.1545490     0.3558040
  H       -0.9944910     2.1545950     0.3555450
  H       -3.3764830    -2.1529200    -0.4053950
  H       -3.3764920     2.1528630    -0.4056540
  H       -4.5535710    -0.0000530    -0.7823510
units angstrom
no_reorient  #important for SAPT in psi4, default
symmetry c1  #important for SAPT in psi4, default
}

set PROPERTIES_ORIGIN ["COM"]
properties('MP2/aug-cc-pvtz', properties = ['dipole'])
--------------------------------------------------------------------------

    Molecular point group: c1
  Charge       = 0
  Multiplicity = 1
  Basis Set: AUG-CC-PVTZ
    Blend: AUG-CC-PVTZ
  Basis Set: (AUG-CC-PVTZ AUX)
    Blend: AUG-CC-PVTZ-JKFIT

    Orbital Energies [Eh]
    ---------------------

    Doubly Occupied:

       1A    -92.217093     2A    -26.376264     3A    -26.376242
       4A    -26.373684     5A    -20.575819     6A    -20.575800
       7A    -11.553369     8A    -11.299342     9A    -11.286816
      10A    -11.286743    11A    -11.281836    12A    -11.272348
      13A    -11.272263    14A     -9.185846    15A     -6.870631
      16A     -6.869978    17A     -6.869674    18A     -1.764160
      19A     -1.672418    20A     -1.671576    21A     -1.467120
      22A     -1.360132    23A     -1.198030    24A     -1.084015
      25A     -1.057333    26A     -1.029723    27A     -0.938015
      28A     -0.872788    29A     -0.869753    30A     -0.857803
      31A     -0.855726    32A     -0.803011    33A     -0.750865
      34A     -0.741524    35A     -0.737295    36A     -0.701825
      37A     -0.701332    38A     -0.687410    39A     -0.683451
      40A     -0.676879    41A     -0.668015    42A     -0.651069
      43A     -0.644898    44A     -0.629381    45A     -0.561476
      46A     -0.546126    47A     -0.537073    48A     -0.524609
      49A     -0.516591    50A     -0.499163    51A     -0.467243
      52A     -0.388003    53A     -0.374434

  @DF-RHF Final Energy: -1113.77940189161745

   => Energetics <=

    Nuclear Repulsion Energy =            997.1959165403900442
    One-Electron Energy =               -3518.4826053116053117
    Two-Electron Energy =                1407.5072868795978138
    Total Energy =                      -1113.7794018916174537
  Basis Set: (AUG-CC-PVTZ AUX)
    Blend: AUG-CC-PVTZ-RI
    Molecular point group: c1

    Geometry (in Angstrom), charge = 0, multiplicity = 1:

       Center              X                  Y                   Z               Mass
    ------------   -----------------  -----------------  -----------------  -----------------
         S            0.723627403202     0.000059843832     0.893414825838    31.972071174400
         F            1.241625403202     1.091454843832    -1.440547174162    18.998403162730
         F            2.906514403202    -0.000054156168    -0.540629174162    18.998403162730
         F            1.241595403202    -1.091626156168    -1.440417174162    18.998403162730
         O            1.046855403202     1.287643843832     1.510948825838    15.994914619570
         O            1.046858403202    -1.287442156168     1.511117825838    15.994914619570
         C           -0.971830596798     0.000024843832     0.386543825838    12.000000000000
         C            1.595652503202    -0.000049356168    -0.759528474162    12.000000000000
         C           -1.612925596798    -1.224201156168     0.181165825838    12.000000000000
         C           -1.612930596798     1.224223843832     0.181018825838    12.000000000000
         C           -2.944755596798    -1.212963156168    -0.233157174162    12.000000000000
         C           -2.944760596798     1.212929843832    -0.233303174162    12.000000000000
         C           -3.605735596798    -0.000031156168    -0.445760174162    12.000000000000
         H           -1.084579596798    -2.154548156168     0.369296825838     1.007825032230
         H           -1.084588596798     2.154595843832     0.369037825838     1.007825032230
         H           -3.466580596798    -2.152919156168    -0.391902174162     1.007825032230
         H           -3.466589596798     2.152863843832    -0.392161174162     1.007825032230
         H           -4.643668596798    -0.000052156168    -0.768858174162     1.007825032230

  Basis Set: AUG-CC-PVTZ
    Blend: AUG-CC-PVTZ
  Basis Set: (AUG-CC-PVTZ AUX)
    Blend: AUG-CC-PVTZ-JKFIT
	 Reference Energy          =   -1113.7794018916174537 [Eh]
	 Singles Energy            =      -0.0000000000000000 [Eh]
	 Same-Spin Energy          =      -0.7257831632861764 [Eh]
	 Opposite-Spin Energy      =      -2.0864982789439210 [Eh]
	 Correlation Energy        =      -2.8122814422300975 [Eh]
	 Total Energy              =   -1116.5916833338476408 [Eh]

	 ================> DF-SCS-MP2 Energies <==================
	-----------------------------------------------------------
	 SCS Same-Spin Scale       =       0.3333333333333333 [-]
	 SCS Opposite-Spin Scale   =       1.2000000000000000 [-]
	 SCS Same-Spin Energy      =      -0.2419277210953921 [Eh]
	 SCS Opposite-Spin Energy  =      -2.5037979347327051 [Eh]
	 SCS Correlation Energy    =      -2.7457256558280974 [Eh]
	 SCS Total Energy          =   -1116.5251275474456634 [Eh]
	-----------------------------------------------------------

  Dipole Moment: [D]
     X:    -4.5019      Y:    -0.0002      Z:    -2.4236     Total:     5.1128

*** Psi4 exiting successfully. Buy a developer a beer!
