                               Psi4 1.3.2 release

  ==> Input File <==

--------------------------------------------------------------------------
#psi4
#
memory 32 gb

molecule  {
0 1
  S        0.8137250     0.0000590     0.8799220
  F        1.3317230     1.0914540    -1.4540400
  F        2.9966120    -0.0000550    -0.5541220
  F        1.3316930    -1.0916270    -1.4539100
  O        1.0727771     1.3534470     1.3748261
  O        1.1369560    -1.2874430     1.4976250
  C       -0.8817330     0.0000240     0.3730510
  C        1.6764180    -0.0000490    -0.7553320
  C       -1.5228280    -1.2242020     0.1676730
  C       -1.5228330     1.2242230     0.1675260
  C       -2.8546580    -1.2129640    -0.2466500
  C       -2.8546630     1.2129290    -0.2467960
  C       -3.5156380    -0.0000320    -0.4592530
  H       -0.9944820    -2.1545490     0.3558040
  H       -0.9944910     2.1545950     0.3555450
  H       -3.3764830    -2.1529200    -0.4053950
  H       -3.3764920     2.1528630    -0.4056540
  H       -4.5535710    -0.0000530    -0.7823510
units angstrom
no_reorient  #important for SAPT in psi4, default
symmetry c1  #important for SAPT in psi4, default
}

set PROPERTIES_ORIGIN ["COM"]
properties('MP2/aug-cc-pvtz', properties = ['dipole'])
--------------------------------------------------------------------------

    Molecular point group: c1
  Charge       = 0
  Multiplicity = 1
  Basis Set: AUG-CC-PVTZ
    Blend: AUG-CC-PVTZ
  Basis Set: (AUG-CC-PVTZ AUX)
    Blend: AUG-CC-PVTZ-JKFIT

    Orbital Energies [Eh]
    ---------------------

    Doubly Occupied:

       1A    -92.221184     2A    -26.371617     3A    -26.371367
       4A    -26.370338     5A    -20.586149     6A    -20.578237
       7A    -11.550216     8A    -11.296733     9A    -11.285223
      10A    -11.284521    11A    -11.280581    12A    -11.270799
      13A    -11.270596    14A     -9.189760    15A     -6.874616
      16A     -6.874027    17A     -6.873493    18A     -1.757528
      19A     -1.665663    20A     -1.665192    21A     -1.471727
      22A     -1.370082    23A     -1.196098    24A     -1.082066
      25A     -1.055680    26A     -1.029764    27A     -0.935153
      28A     -0.871262    29A     -0.868084    30A     -0.851067
      31A     -0.849664    32A     -0.802520    33A     -0.751491
      34A     -0.737126    35A     -0.733992    36A     -0.697143
      37A     -0.695714    38A     -0.686373    39A     -0.679106
      40A     -0.677740    41A     -0.669703    42A     -0.650788
      43A     -0.649116    44A     -0.628125    45A     -0.560071
      46A     -0.544440    47A     -0.536365    48A     -0.532550
      49A     -0.518941    50A     -0.506876    51A     -0.469067
      52A     -0.386642    53A     -0.372821

  @DF-RHF Final Energy: -1113.77473172358191

   => Energetics <=

    Nuclear Repulsion Energy =            998.9929362931792411
    One-Electron Energy =               -3522.1249464563807123
    Two-Electron Energy =                1409.3572784396194493
    Total Energy =                      -1113.7747317235819082
  Basis Set: (AUG-CC-PVTZ AUX)
    Blend: AUG-CC-PVTZ-RI
    Molecular point group: c1

    Geometry (in Angstrom), charge = 0, multiplicity = 1:

       Center              X                  Y                   Z               Mass
    ------------   -----------------  -----------------  -----------------  -----------------
         S            0.729048801547    -0.004952359178     0.901744418889    31.972071174400
         F            1.247046801547     1.086442640822    -1.432217581111    18.998403162730
         F            2.911935801547    -0.005066359178    -0.532299581111    18.998403162730
         F            1.247016801547    -1.096638359178    -1.432087581111    18.998403162730
         O            0.988100901547     1.348435640822     1.396648518889    15.994914619570
         O            1.052279801547    -1.292454359178     1.519447418889    15.994914619570
         C           -0.966409198453    -0.004987359178     0.394873418889    12.000000000000
         C            1.591741801547    -0.005060359178    -0.733509581111    12.000000000000
         C           -1.607504198453    -1.229213359178     0.189495418889    12.000000000000
         C           -1.607509198453     1.219211640822     0.189348418889    12.000000000000
         C           -2.939334198453    -1.217975359178    -0.224827581111    12.000000000000
         C           -2.939339198453     1.207917640822    -0.224973581111    12.000000000000
         C           -3.600314198453    -0.005043359178    -0.437430581111    12.000000000000
         H           -1.079158198453    -2.159560359178     0.377626418889     1.007825032230
         H           -1.079167198453     2.149583640822     0.377367418889     1.007825032230
         H           -3.461159198453    -2.157931359178    -0.383572581111     1.007825032230
         H           -3.461168198453     2.147851640822    -0.383831581111     1.007825032230
         H           -4.638247198453    -0.005064359178    -0.760528581111     1.007825032230

  Basis Set: AUG-CC-PVTZ
    Blend: AUG-CC-PVTZ
  Basis Set: (AUG-CC-PVTZ AUX)
    Blend: AUG-CC-PVTZ-JKFIT
	 Reference Energy          =   -1113.7747317235819082 [Eh]
	 Singles Energy            =      -0.0000000000000000 [Eh]
	 Same-Spin Energy          =      -0.7264828357120310 [Eh]
	 Opposite-Spin Energy      =      -2.0880048583978539 [Eh]
	 Correlation Energy        =      -2.8144876941098849 [Eh]
	 Total Energy              =   -1116.5892194176917656 [Eh]

	 ================> DF-SCS-MP2 Energies <==================
	-----------------------------------------------------------
	 SCS Same-Spin Scale       =       0.3333333333333333 [-]
	 SCS Opposite-Spin Scale   =       1.2000000000000000 [-]
	 SCS Same-Spin Energy      =      -0.2421609452373437 [Eh]
	 SCS Opposite-Spin Energy  =      -2.5056058300774247 [Eh]
	 SCS Correlation Energy    =      -2.7477667753147683 [Eh]
	 SCS Total Energy          =   -1116.5224984988967663 [Eh]
	-----------------------------------------------------------

  Dipole Moment: [D]
     X:    -4.3912      Y:    -0.1320      Z:    -2.0086     Total:     4.8306

*** Psi4 exiting successfully. Buy a developer a beer!
