                               Psi4 1.3.2 release

  ==> Input File <==

--------------------------------------------------------------------------
#psi4
#
memory 32 gb

molecule  {
0 1
  S        0.8137250     0.0000590     0.8799220
  F        1.3317230     1.0914540    -1.4540400
  F        2.9966120    -0.0000550    -0.5541220
  F        1.3316930    -1.0916270    -1.4539100
  O        1.1369530     1.2876430     1.4974560
  O        1.1369560    -1.2874430     1.4976250
  C       -0.8817330     0.0000240     0.3730510
  C        1.7697395    -0.0000607    -0.9322249
  C       -1.5228280    -1.2242020     0.1676730
  C       -1.5228330     1.2242230     0.1675260
  C       -2.8546580    -1.2129640    -0.2466500
  C       -2.8546630     1.2129290    -0.2467960
  C       -3.5156380    -0.0000320    -0.4592530
  H       -0.9944820    -2.1545490     0.3558040
  H       -0.9944910     2.1545950     0.3555450
  H       -3.3764830    -2.1529200    -0.4053950
  H       -3.3764920     2.1528630    -0.4056540
  H       -4.5535710    -0.0000530    -0.7823510
units angstrom
no_reorient  #important for SAPT in psi4, default
symmetry c1  #important for SAPT in psi4, default
}

set PROPERTIES_ORIGIN ["COM"]
properties('MP2/aug-cc-pvtz', properties = ['dipole'])
--------------------------------------------------------------------------

    Molecular point group: c1
  Charge       = 0
  Multiplicity = 1
  Basis Set: AUG-CC-PVTZ
    Blend: AUG-CC-PVTZ
  Basis Set: (AUG-CC-PVTZ AUX)
    Blend: AUG-CC-PVTZ-JKFIT

    Orbital Energies [Eh]
    ---------------------

    Doubly Occupied:

       1A    -92.186066     2A    -26.399985     3A    -26.399963
       4A    -26.396823     5A    -20.558103     6A    -20.558083
       7A    -11.567960     8A    -11.289147     9A    -11.277886
      10A    -11.277807    11A    -11.274131    12A    -11.266110
      13A    -11.266012    14A     -9.156105    15A     -6.840392
      16A     -6.839928    17A     -6.839927    18A     -1.803818
      19A     -1.713839    20A     -1.712325    21A     -1.445921
      22A     -1.342010    23A     -1.189486    24A     -1.069620
      25A     -1.049995    26A     -1.024535    27A     -0.935139
      28A     -0.898231    29A     -0.897755    30A     -0.872817
      31A     -0.862031    32A     -0.801965    33A     -0.764522
      34A     -0.764016    35A     -0.741886    36A     -0.736066
      37A     -0.729623    38A     -0.709738    39A     -0.677340
      40A     -0.667306    41A     -0.646292    42A     -0.642652
      43A     -0.630361    44A     -0.622222    45A     -0.552441
      46A     -0.537749    47A     -0.529730    48A     -0.508041
      49A     -0.495785    50A     -0.483381    51A     -0.420050
      52A     -0.376983    53A     -0.367967

  @DF-RHF Final Energy: -1113.75175609151484

   => Energetics <=

    Nuclear Repulsion Energy =            995.1173414383266618
    One-Electron Energy =               -3514.5020610580340872
    Two-Electron Energy =                1405.6329635281927040
    Total Energy =                      -1113.7517560915148351
  Basis Set: (AUG-CC-PVTZ AUX)
    Blend: AUG-CC-PVTZ-RI
    Molecular point group: c1

    Geometry (in Angstrom), charge = 0, multiplicity = 1:

       Center              X                  Y                   Z               Mass
    ------------   -----------------  -----------------  -----------------  -----------------
         S            0.718827922870     0.000060443843     0.902512337512    31.972071174400
         F            1.236825922870     1.091455443843    -1.431449662488    18.998403162730
         F            2.901714922870    -0.000053556157    -0.531531662488    18.998403162730
         F            1.236795922870    -1.091625556157    -1.431319662488    18.998403162730
         O            1.042055922870     1.287644443843     1.520046337512    15.994914619570
         O            1.042058922870    -1.287441556157     1.520215337512    15.994914619570
         C           -0.976630077130     0.000025443843     0.395641337512    12.000000000000
         C            1.674842422870    -0.000059256157    -0.909634562488    12.000000000000
         C           -1.617725077130    -1.224200556157     0.190263337512    12.000000000000
         C           -1.617730077130     1.224224443843     0.190116337512    12.000000000000
         C           -2.949555077130    -1.212962556157    -0.224059662488    12.000000000000
         C           -2.949560077130     1.212930443843    -0.224205662488    12.000000000000
         C           -3.610535077130    -0.000030556157    -0.436662662488    12.000000000000
         H           -1.089379077130    -2.154547556157     0.378394337512     1.007825032230
         H           -1.089388077130     2.154596443843     0.378135337512     1.007825032230
         H           -3.471380077130    -2.152918556157    -0.382804662488     1.007825032230
         H           -3.471389077130     2.152864443843    -0.383063662488     1.007825032230
         H           -4.648468077130    -0.000051556157    -0.759760662488     1.007825032230

  Basis Set: AUG-CC-PVTZ
    Blend: AUG-CC-PVTZ
  Basis Set: (AUG-CC-PVTZ AUX)
    Blend: AUG-CC-PVTZ-JKFIT
	 Reference Energy          =   -1113.7517560915148351 [Eh]
	 Singles Energy            =      -0.0000000000000000 [Eh]
	 Same-Spin Energy          =      -0.7265488514849210 [Eh]
	 Opposite-Spin Energy      =      -2.0860186712736342 [Eh]
	 Correlation Energy        =      -2.8125675227585551 [Eh]
	 Total Energy              =   -1116.5643236142734622 [Eh]

	 ================> DF-SCS-MP2 Energies <==================
	-----------------------------------------------------------
	 SCS Same-Spin Scale       =       0.3333333333333333 [-]
	 SCS Opposite-Spin Scale   =       1.2000000000000000 [-]
	 SCS Same-Spin Energy      =      -0.2421829504949737 [Eh]
	 SCS Opposite-Spin Energy  =      -2.5032224055283607 [Eh]
	 SCS Correlation Energy    =      -2.7454053560233342 [Eh]
	 SCS Total Energy          =   -1116.4971614475382466 [Eh]
	-----------------------------------------------------------

  Dipole Moment: [D]
     X:    -3.4721      Y:    -0.0002      Z:    -3.5966     Total:     4.9992

*** Psi4 exiting successfully. Buy a developer a beer!
