                               Psi4 1.3.2 release

  ==> Input File <==

--------------------------------------------------------------------------
#psi4
#
memory 32 gb

molecule  {
0 1
  S        0.8137250     0.0000590     0.8799220
  F        1.3317230     1.0914540    -1.4540400
  F        2.9966120    -0.0000550    -0.5541220
  F        1.3316930    -1.0916270    -1.4539100
  O        1.2319717     1.2528598     1.5117899
  O        1.1369560    -1.2874430     1.4976250
  C       -0.8817330     0.0000240     0.3730510
  C        1.6764180    -0.0000490    -0.7553320
  C       -1.5228280    -1.2242020     0.1676730
  C       -1.5228330     1.2242230     0.1675260
  C       -2.8546580    -1.2129640    -0.2466500
  C       -2.8546630     1.2129290    -0.2467960
  C       -3.5156380    -0.0000320    -0.4592530
  H       -0.9944820    -2.1545490     0.3558040
  H       -0.9944910     2.1545950     0.3555450
  H       -3.3764830    -2.1529200    -0.4053950
  H       -3.3764920     2.1528630    -0.4056540
  H       -4.5535710    -0.0000530    -0.7823510
units angstrom
no_reorient  #important for SAPT in psi4, default
symmetry c1  #important for SAPT in psi4, default
}

set PROPERTIES_ORIGIN ["COM"]
properties('MP2/aug-cc-pvtz', properties = ['dipole'])
--------------------------------------------------------------------------

    Molecular point group: c1
  Charge       = 0
  Multiplicity = 1
  Basis Set: AUG-CC-PVTZ
    Blend: AUG-CC-PVTZ
  Basis Set: (AUG-CC-PVTZ AUX)
    Blend: AUG-CC-PVTZ-JKFIT

    Orbital Energies [Eh]
    ---------------------

    Doubly Occupied:

       1A    -92.218633     2A    -26.372890     3A    -26.372327
       4A    -26.369588     5A    -20.576353     6A    -20.573090
       7A    -11.550666     8A    -11.304145     9A    -11.290643
      10A    -11.290288    11A    -11.284827    12A    -11.275161
      13A    -11.275069    14A     -9.187505    15A     -6.872365
      16A     -6.871580    17A     -6.871339    18A     -1.757957
      19A     -1.666551    20A     -1.665144    21A     -1.468016
      22A     -1.357594    23A     -1.201638    24A     -1.088505
      25A     -1.060452    26A     -1.030929    27A     -0.938010
      28A     -0.872953    29A     -0.872592    30A     -0.851733
      31A     -0.850094    32A     -0.803695    33A     -0.750394
      34A     -0.737796    35A     -0.734681    36A     -0.698182
      37A     -0.696322    38A     -0.688193    39A     -0.679574
      40A     -0.678253    41A     -0.668716    42A     -0.653394
      43A     -0.644531    44A     -0.632159    45A     -0.564705
      46A     -0.549443    47A     -0.540007    48A     -0.522722
      49A     -0.518373    50A     -0.496815    51A     -0.471269
      52A     -0.391475    53A     -0.377313

  @DF-RHF Final Energy: -1113.77854021388498

   => Energetics <=

    Nuclear Repulsion Energy =            997.0066824053222945
    One-Electron Energy =               -3518.0971522554145849
    Two-Electron Energy =                1407.3119296362071964
    Total Energy =                      -1113.7785402138849804
  Basis Set: (AUG-CC-PVTZ AUX)
    Blend: AUG-CC-PVTZ-RI
    Molecular point group: c1

    Geometry (in Angstrom), charge = 0, multiplicity = 1:

       Center              X                  Y                   Z               Mass
    ------------   -----------------  -----------------  -----------------  -----------------
         S            0.716923326849     0.002709129016     0.891312211443    31.972071174400
         F            1.234921326849     1.094104129016    -1.442649788557    18.998403162730
         F            2.899810326849     0.002595129016    -0.542731788557    18.998403162730
         F            1.234891326849    -1.088976870984    -1.442519788557    18.998403162730
         O            1.135170026849     1.255509929016     1.523180111443    15.994914619570
         O            1.040154326849    -1.284792870984     1.509015211443    15.994914619570
         C           -0.978534673151     0.002674129016     0.384441211443    12.000000000000
         C            1.579616326849     0.002601129016    -0.743941788557    12.000000000000
         C           -1.619629673151    -1.221551870984     0.179063211443    12.000000000000
         C           -1.619634673151     1.226873129016     0.178916211443    12.000000000000
         C           -2.951459673151    -1.210313870984    -0.235259788557    12.000000000000
         C           -2.951464673151     1.215579129016    -0.235405788557    12.000000000000
         C           -3.612439673151     0.002618129016    -0.447862788557    12.000000000000
         H           -1.091283673151    -2.151898870984     0.367194211443     1.007825032230
         H           -1.091292673151     2.157245129016     0.366935211443     1.007825032230
         H           -3.473284673151    -2.150269870984    -0.394004788557     1.007825032230
         H           -3.473293673151     2.155513129016    -0.394263788557     1.007825032230
         H           -4.650372673151     0.002597129016    -0.770960788557     1.007825032230

  Basis Set: AUG-CC-PVTZ
    Blend: AUG-CC-PVTZ
  Basis Set: (AUG-CC-PVTZ AUX)
    Blend: AUG-CC-PVTZ-JKFIT
	 Reference Energy          =   -1113.7785402138849804 [Eh]
	 Singles Energy            =      -0.0000000000000000 [Eh]
	 Same-Spin Energy          =      -0.7256549632396023 [Eh]
	 Opposite-Spin Energy      =      -2.0865632505858427 [Eh]
	 Correlation Energy        =      -2.8122182138254450 [Eh]
	 Total Energy              =   -1116.5907584277103979 [Eh]

	 ================> DF-SCS-MP2 Energies <==================
	-----------------------------------------------------------
	 SCS Same-Spin Scale       =       0.3333333333333333 [-]
	 SCS Opposite-Spin Scale   =       1.2000000000000000 [-]
	 SCS Same-Spin Energy      =      -0.2418849877465341 [Eh]
	 SCS Opposite-Spin Energy  =      -2.5038759007030111 [Eh]
	 SCS Correlation Energy    =      -2.7457608884495452 [Eh]
	 SCS Total Energy          =   -1116.5243011023344479 [Eh]
	-----------------------------------------------------------

  Dipole Moment: [D]
     X:    -4.9072      Y:     0.0647      Z:    -2.3588     Total:     5.4450

*** Psi4 exiting successfully. Buy a developer a beer!
