                               Psi4 1.3.2 release

  ==> Input File <==

--------------------------------------------------------------------------
#psi4
#
memory 32 gb

molecule  {
0 1
  S        0.8137250     0.0000590     0.8799220
  F        1.3317230     1.0914540    -1.4540400
  F        2.9966120    -0.0000550    -0.5541220
  F        1.3316930    -1.0916270    -1.4539100
  O        1.2188276     1.3183338     1.3715933
  O        1.1369560    -1.2874430     1.4976250
  C       -0.8817330     0.0000240     0.3730510
  C        1.6764180    -0.0000490    -0.7553320
  C       -1.5228280    -1.2242020     0.1676730
  C       -1.5228330     1.2242230     0.1675260
  C       -2.8546580    -1.2129640    -0.2466500
  C       -2.8546630     1.2129290    -0.2467960
  C       -3.5156380    -0.0000320    -0.4592530
  H       -0.9944820    -2.1545490     0.3558040
  H       -0.9944910     2.1545950     0.3555450
  H       -3.3764830    -2.1529200    -0.4053950
  H       -3.3764920     2.1528630    -0.4056540
  H       -4.5535710    -0.0000530    -0.7823510
units angstrom
no_reorient  #important for SAPT in psi4, default
symmetry c1  #important for SAPT in psi4, default
}

set PROPERTIES_ORIGIN ["COM"]
properties('MP2/aug-cc-pvtz', properties = ['dipole'])
--------------------------------------------------------------------------

    Molecular point group: c1
  Charge       = 0
  Multiplicity = 1
  Basis Set: AUG-CC-PVTZ
    Blend: AUG-CC-PVTZ
  Basis Set: (AUG-CC-PVTZ AUX)
    Blend: AUG-CC-PVTZ-JKFIT

    Orbital Energies [Eh]
    ---------------------

    Doubly Occupied:

       1A    -92.220037     2A    -26.368318     3A    -26.367592
       4A    -26.366275     5A    -20.581438     6A    -20.577022
       7A    -11.544673     8A    -11.302693     9A    -11.289413
      10A    -11.289206    11A    -11.284089    12A    -11.274224
      13A    -11.274063    14A     -9.188658    15A     -6.873533
      16A     -6.872839    17A     -6.872429    18A     -1.753884
      19A     -1.662114    20A     -1.661580    21A     -1.470024
      22A     -1.365598    23A     -1.200392    24A     -1.085806
      25A     -1.059441    26A     -1.026793    27A     -0.935321
      28A     -0.871977    29A     -0.870404    30A     -0.847616
      31A     -0.846394    32A     -0.803875    33A     -0.750796
      34A     -0.734087    35A     -0.731558    36A     -0.695797
      37A     -0.692555    38A     -0.686362    39A     -0.679152
      40A     -0.675287    41A     -0.667256    42A     -0.652945
      43A     -0.648246    44A     -0.631373    45A     -0.563650
      46A     -0.548318    47A     -0.539145    48A     -0.529610
      49A     -0.518190    50A     -0.503630    51A     -0.468383
      52A     -0.390573    53A     -0.376344

  @DF-RHF Final Energy: -1113.77632623098270

   => Energetics <=

    Nuclear Repulsion Energy =            998.5814790505006613
    One-Electron Energy =               -3521.3336616044484799
    Two-Electron Energy =                1408.9758563229652282
    Total Energy =                      -1113.7763262309827041
  Basis Set: (AUG-CC-PVTZ AUX)
    Blend: AUG-CC-PVTZ-RI
    Molecular point group: c1

    Geometry (in Angstrom), charge = 0, multiplicity = 1:

       Center              X                  Y                   Z               Mass
    ------------   -----------------  -----------------  -----------------  -----------------
         S            0.717924481737    -0.002277870106     0.901990653589    31.972071174400
         F            1.235922481737     1.089117129894    -1.431971346411    18.998403162730
         F            2.900811481737    -0.002391870106    -0.532053346411    18.998403162730
         F            1.235892481737    -1.093963870106    -1.431841346411    18.998403162730
         O            1.123027081737     1.315996929894     1.393661953589    15.994914619570
         O            1.041155481737    -1.289779870106     1.519693653589    15.994914619570
         C           -0.977533518263    -0.002312870106     0.395119653589    12.000000000000
         C            1.580617481737    -0.002385870106    -0.733263346411    12.000000000000
         C           -1.618628518263    -1.226538870106     0.189741653589    12.000000000000
         C           -1.618633518263     1.221886129894     0.189594653589    12.000000000000
         C           -2.950458518263    -1.215300870106    -0.224581346411    12.000000000000
         C           -2.950463518263     1.210592129894    -0.224727346411    12.000000000000
         C           -3.611438518263    -0.002368870106    -0.437184346411    12.000000000000
         H           -1.090282518263    -2.156885870106     0.377872653589     1.007825032230
         H           -1.090291518263     2.152258129894     0.377613653589     1.007825032230
         H           -3.472283518263    -2.155256870106    -0.383326346411     1.007825032230
         H           -3.472292518263     2.150526129894    -0.383585346411     1.007825032230
         H           -4.649371518263    -0.002389870106    -0.760282346411     1.007825032230

  Basis Set: AUG-CC-PVTZ
    Blend: AUG-CC-PVTZ
  Basis Set: (AUG-CC-PVTZ AUX)
    Blend: AUG-CC-PVTZ-JKFIT
	 Reference Energy          =   -1113.7763262309827041 [Eh]
	 Singles Energy            =      -0.0000000000000000 [Eh]
	 Same-Spin Energy          =      -0.7260978816637886 [Eh]
	 Opposite-Spin Energy      =      -2.0873141854573314 [Eh]
	 Correlation Energy        =      -2.8134120671211198 [Eh]
	 Total Energy              =   -1116.5897382981038390 [Eh]

	 ================> DF-SCS-MP2 Energies <==================
	-----------------------------------------------------------
	 SCS Same-Spin Scale       =       0.3333333333333333 [-]
	 SCS Opposite-Spin Scale   =       1.2000000000000000 [-]
	 SCS Same-Spin Energy      =      -0.2420326272212629 [Eh]
	 SCS Opposite-Spin Energy  =      -2.5047770225487977 [Eh]
	 SCS Correlation Energy    =      -2.7468096497700607 [Eh]
	 SCS Total Energy          =   -1116.5231358807527613 [Eh]
	-----------------------------------------------------------

  Dipole Moment: [D]
     X:    -4.8725      Y:    -0.0716      Z:    -2.0175     Total:     5.2742

*** Psi4 exiting successfully. Buy a developer a beer!
