                               Psi4 1.3.2 release

  ==> Input File <==

--------------------------------------------------------------------------
#psi4
#
memory 32 gb

molecule  {
0 1
  S        0.8092130     0.1234931     0.8799562
  F        1.3317230     1.0914540    -1.4540400
  F        2.9966120    -0.0000550    -0.5541220
  F        1.3316930    -1.0916270    -1.4539100
  O        1.1369530     1.2876430     1.4974560
  O        1.1369560    -1.2874430     1.4976250
  C       -0.8817330     0.0000240     0.3730510
  C        1.6764180    -0.0000490    -0.7553320
  C       -1.5228280    -1.2242020     0.1676730
  C       -1.5228330     1.2242230     0.1675260
  C       -2.8546580    -1.2129640    -0.2466500
  C       -2.8546630     1.2129290    -0.2467960
  C       -3.5156380    -0.0000320    -0.4592530
  H       -0.9944820    -2.1545490     0.3558040
  H       -0.9944910     2.1545950     0.3555450
  H       -3.3764830    -2.1529200    -0.4053950
  H       -3.3764920     2.1528630    -0.4056540
  H       -4.5535710    -0.0000530    -0.7823510
units angstrom
no_reorient  #important for SAPT in psi4, default
symmetry c1  #important for SAPT in psi4, default
}

set PROPERTIES_ORIGIN ["COM"]
properties('MP2/aug-cc-pvtz', properties = ['dipole'])
--------------------------------------------------------------------------

    Molecular point group: c1
  Charge       = 0
  Multiplicity = 1
  Basis Set: AUG-CC-PVTZ
    Blend: AUG-CC-PVTZ
  Basis Set: (AUG-CC-PVTZ AUX)
    Blend: AUG-CC-PVTZ-JKFIT

    Orbital Energies [Eh]
    ---------------------

    Doubly Occupied:

       1A    -92.214146     2A    -26.373866     3A    -26.373119
       4A    -26.371045     5A    -20.600262     6A    -20.552778
       7A    -11.552636     8A    -11.300693     9A    -11.288048
      10A    -11.287366    11A    -11.282588    12A    -11.273083
      13A    -11.272988    14A     -9.185742    15A     -6.870588
      16A     -6.869983    17A     -6.868949    18A     -1.759034
      19A     -1.667875    20A     -1.665961    21A     -1.518128
      22A     -1.321184    23A     -1.198745    24A     -1.085894
      25A     -1.057991    26A     -1.030722    27A     -0.937489
      28A     -0.874435    29A     -0.869451    30A     -0.852541
      31A     -0.850677    32A     -0.804199    33A     -0.754377
      34A     -0.739326    35A     -0.735080    36A     -0.700850
      37A     -0.697883    38A     -0.693000    39A     -0.683946
      40A     -0.680236    41A     -0.678759    42A     -0.654751
      43A     -0.650327    44A     -0.629655    45A     -0.569825
      46A     -0.549537    47A     -0.538785    48A     -0.527269
      49A     -0.514533    50A     -0.478765    51A     -0.458465
      52A     -0.388731    53A     -0.375074

  @DF-RHF Final Energy: -1113.75167301373131

   => Energetics <=

    Nuclear Repulsion Energy =            997.6321860772812897
    One-Electron Energy =               -3519.3049591687463362
    Two-Electron Energy =                1407.9211000777336267
    Total Energy =                      -1113.7516730137313061
  Basis Set: (AUG-CC-PVTZ AUX)
    Blend: AUG-CC-PVTZ-RI
    Molecular point group: c1

    Geometry (in Angstrom), charge = 0, multiplicity = 1:

       Center              X                  Y                   Z               Mass
    ------------   -----------------  -----------------  -----------------  -----------------
         S            0.720335630722     0.104700948666     0.892432983599    31.972071174400
         F            1.242845630722     1.072661848666    -1.441563216401    18.998403162730
         F            2.907734630722    -0.018847151334    -0.541645216401    18.998403162730
         F            1.242815630722    -1.110419151334    -1.441433216401    18.998403162730
         O            1.048075630722     1.268850848666     1.509932783599    15.994914619570
         O            1.048078630722    -1.306235151334     1.510101783599    15.994914619570
         C           -0.970610369278    -0.018768151334     0.385527783599    12.000000000000
         C            1.587540630722    -0.018841151334    -0.742855216401    12.000000000000
         C           -1.611705369278    -1.242994151334     0.180149783599    12.000000000000
         C           -1.611710369278     1.205430848666     0.180002783599    12.000000000000
         C           -2.943535369278    -1.231756151334    -0.234173216401    12.000000000000
         C           -2.943540369278     1.194136848666    -0.234319216401    12.000000000000
         C           -3.604515369278    -0.018824151334    -0.446776216401    12.000000000000
         H           -1.083359369278    -2.173341151334     0.368280783599     1.007825032230
         H           -1.083368369278     2.135802848666     0.368021783599     1.007825032230
         H           -3.465360369278    -2.171712151334    -0.392918216401     1.007825032230
         H           -3.465369369278     2.134070848666    -0.393177216401     1.007825032230
         H           -4.642448369278    -0.018845151334    -0.769874216401     1.007825032230

  Basis Set: AUG-CC-PVTZ
    Blend: AUG-CC-PVTZ
  Basis Set: (AUG-CC-PVTZ AUX)
    Blend: AUG-CC-PVTZ-JKFIT
	 Reference Energy          =   -1113.7516730137313061 [Eh]
	 Singles Energy            =      -0.0000000000000000 [Eh]
	 Same-Spin Energy          =      -0.7252291605154462 [Eh]
	 Opposite-Spin Energy      =      -2.0863175931952620 [Eh]
	 Correlation Energy        =      -2.8115467537107079 [Eh]
	 Total Energy              =   -1116.5632197674419785 [Eh]

	 ================> DF-SCS-MP2 Energies <==================
	-----------------------------------------------------------
	 SCS Same-Spin Scale       =       0.3333333333333333 [-]
	 SCS Opposite-Spin Scale   =       1.2000000000000000 [-]
	 SCS Same-Spin Energy      =      -0.2417430535051487 [Eh]
	 SCS Opposite-Spin Energy  =      -2.5035811118343143 [Eh]
	 SCS Correlation Energy    =      -2.7453241653394631 [Eh]
	 SCS Total Energy          =   -1116.4969971790708314 [Eh]
	-----------------------------------------------------------

  Dipole Moment: [D]
     X:    -4.6576      Y:     0.9702      Z:    -2.3518     Total:     5.3071

*** Psi4 exiting successfully. Buy a developer a beer!
