                               Psi4 1.3.2 release

  ==> Input File <==

--------------------------------------------------------------------------
#psi4
#
memory 32 gb

molecule  {
0 1
  S        0.8099769    -0.1233753     0.8774184
  F        1.3317230     1.0914540    -1.4540400
  F        2.9966120    -0.0000550    -0.5541220
  F        1.3316930    -1.0916270    -1.4539100
  O        1.1369530     1.2876430     1.4974560
  O        1.1369560    -1.2874430     1.4976250
  C       -0.8817330     0.0000240     0.3730510
  C        1.6764180    -0.0000490    -0.7553320
  C       -1.5228280    -1.2242020     0.1676730
  C       -1.5228330     1.2242230     0.1675260
  C       -2.8546580    -1.2129640    -0.2466500
  C       -2.8546630     1.2129290    -0.2467960
  C       -3.5156380    -0.0000320    -0.4592530
  H       -0.9944820    -2.1545490     0.3558040
  H       -0.9944910     2.1545950     0.3555450
  H       -3.3764830    -2.1529200    -0.4053950
  H       -3.3764920     2.1528630    -0.4056540
  H       -4.5535710    -0.0000530    -0.7823510
units angstrom
no_reorient  #important for SAPT in psi4, default
symmetry c1  #important for SAPT in psi4, default
}

set PROPERTIES_ORIGIN ["COM"]
properties('MP2/aug-cc-pvtz', properties = ['dipole'])
--------------------------------------------------------------------------

    Molecular point group: c1
  Charge       = 0
  Multiplicity = 1
  Basis Set: AUG-CC-PVTZ
    Blend: AUG-CC-PVTZ
  Basis Set: (AUG-CC-PVTZ AUX)
    Blend: AUG-CC-PVTZ-JKFIT

    Orbital Energies [Eh]
    ---------------------

    Doubly Occupied:

       1A    -92.214179     2A    -26.374177     3A    -26.373425
       4A    -26.371352     5A    -20.600093     6A    -20.552624
       7A    -11.553053     8A    -11.300726     9A    -11.288054
      10A    -11.287375    11A    -11.282599    12A    -11.273086
      13A    -11.272992    14A     -9.185782    15A     -6.870618
      16A     -6.870024    17A     -6.868992    18A     -1.759384
      19A     -1.668199    20A     -1.666276    21A     -1.517367
      22A     -1.320658    23A     -1.198751    24A     -1.086087
      25A     -1.057999    26A     -1.031397    27A     -0.937707
      28A     -0.874678    29A     -0.869526    30A     -0.852887
      31A     -0.850996    32A     -0.804170    33A     -0.754340
      34A     -0.739632    35A     -0.735334    36A     -0.700910
      37A     -0.698141    38A     -0.693071    39A     -0.683856
      40A     -0.680523    41A     -0.678600    42A     -0.654671
      43A     -0.650120    44A     -0.629652    45A     -0.569724
      46A     -0.549501    47A     -0.538786    48A     -0.527204
      49A     -0.514326    50A     -0.478463    51A     -0.458606
      52A     -0.388743    53A     -0.375078

  @DF-RHF Final Energy: -1113.75167547485444

   => Energetics <=

    Nuclear Repulsion Energy =            997.6880855361989688
    One-Electron Energy =               -3519.4104989369525356
    Two-Electron Energy =                1407.9707379258993569
    Total Energy =                      -1113.7516754748544372
  Basis Set: (AUG-CC-PVTZ AUX)
    Blend: AUG-CC-PVTZ-RI
    Molecular point group: c1

    Geometry (in Angstrom), charge = 0, multiplicity = 1:

       Center              X                  Y                   Z               Mass
    ------------   -----------------  -----------------  -----------------  -----------------
         S            0.720983226422    -0.104581567696     0.890281565394    31.972071174400
         F            1.242729326422     1.110247732304    -1.441176834606    18.998403162730
         F            2.907618326422     0.018738732304    -0.541258834606    18.998403162730
         F            1.242699326422    -1.072833267696    -1.441046834606    18.998403162730
         O            1.047959326422     1.306436732304     1.510319165394    15.994914619570
         O            1.047962326422    -1.268649267696     1.510488165394    15.994914619570
         C           -0.970726673578     0.018817732304     0.385914165394    12.000000000000
         C            1.587424326422     0.018744732304    -0.742468834606    12.000000000000
         C           -1.611821673578    -1.205408267696     0.180536165394    12.000000000000
         C           -1.611826673578     1.243016732304     0.180389165394    12.000000000000
         C           -2.943651673578    -1.194170267696    -0.233786834606    12.000000000000
         C           -2.943656673578     1.231722732304    -0.233932834606    12.000000000000
         C           -3.604631673578     0.018761732304    -0.446389834606    12.000000000000
         H           -1.083475673578    -2.135755267696     0.368667165394     1.007825032230
         H           -1.083484673578     2.173388732304     0.368408165394     1.007825032230
         H           -3.465476673578    -2.134126267696    -0.392531834606     1.007825032230
         H           -3.465485673578     2.171656732304    -0.392790834606     1.007825032230
         H           -4.642564673578     0.018740732304    -0.769487834606     1.007825032230

  Basis Set: AUG-CC-PVTZ
    Blend: AUG-CC-PVTZ
  Basis Set: (AUG-CC-PVTZ AUX)
    Blend: AUG-CC-PVTZ-JKFIT
	 Reference Energy          =   -1113.7516754748544372 [Eh]
	 Singles Energy            =      -0.0000000000000000 [Eh]
	 Same-Spin Energy          =      -0.7252576410586111 [Eh]
	 Opposite-Spin Energy      =      -2.0863688279088728 [Eh]
	 Correlation Energy        =      -2.8116264689674839 [Eh]
	 Total Energy              =   -1116.5633019438218980 [Eh]

	 ================> DF-SCS-MP2 Energies <==================
	-----------------------------------------------------------
	 SCS Same-Spin Scale       =       0.3333333333333333 [-]
	 SCS Opposite-Spin Scale   =       1.2000000000000000 [-]
	 SCS Same-Spin Energy      =      -0.2417525470195370 [Eh]
	 SCS Opposite-Spin Energy  =      -2.5036425934906474 [Eh]
	 SCS Correlation Energy    =      -2.7453951405101846 [Eh]
	 SCS Total Energy          =   -1116.4970706153646915 [Eh]
	-----------------------------------------------------------

  Dipole Moment: [D]
     X:    -4.6543      Y:    -0.9708      Z:    -2.3690     Total:     5.3120

*** Psi4 exiting successfully. Buy a developer a beer!
