                               Psi4 1.3.2 release

  ==> Input File <==

--------------------------------------------------------------------------
#psi4
#
memory 32 gb

molecule  {
0 1
  S        0.8137250     0.0000590     0.8799220
  F        1.3317230     1.0914540    -1.4540400
  F        2.9966120    -0.0000550    -0.5541220
  F        1.3316930    -1.0916270    -1.4539100
  O        1.1369530     1.2876430     1.4974560
  O        1.1369560    -1.2874430     1.4976250
  C       -0.8726287     0.0000220     0.3435384
  C        1.6764180    -0.0000490    -0.7553320
  C       -1.5228280    -1.2242020     0.1676730
  C       -1.5228330     1.2242230     0.1675260
  C       -2.8546580    -1.2129640    -0.2466500
  C       -2.8546630     1.2129290    -0.2467960
  C       -3.5156380    -0.0000320    -0.4592530
  H       -0.9944820    -2.1545490     0.3558040
  H       -0.9944910     2.1545950     0.3555450
  H       -3.3764830    -2.1529200    -0.4053950
  H       -3.3764920     2.1528630    -0.4056540
  H       -4.5535710    -0.0000530    -0.7823510
units angstrom
no_reorient  #important for SAPT in psi4, default
symmetry c1  #important for SAPT in psi4, default
}

set PROPERTIES_ORIGIN ["COM"]
properties('MP2/aug-cc-pvtz', properties = ['dipole'])
--------------------------------------------------------------------------

    Molecular point group: c1
  Charge       = 0
  Multiplicity = 1
  Basis Set: AUG-CC-PVTZ
    Blend: AUG-CC-PVTZ
  Basis Set: (AUG-CC-PVTZ AUX)
    Blend: AUG-CC-PVTZ-JKFIT

    Orbital Energies [Eh]
    ---------------------

    Doubly Occupied:

       1A    -92.219880     2A    -26.373727     3A    -26.373706
       4A    -26.370925     5A    -20.578185     6A    -20.578166
       7A    -11.552245     8A    -11.300273     9A    -11.287766
      10A    -11.287693    11A    -11.282518    12A    -11.272872
      13A    -11.272788    14A     -9.188651    15A     -6.873538
      16A     -6.872754    17A     -6.872478    18A     -1.759153
      19A     -1.667501    20A     -1.666568    21A     -1.469692
      22A     -1.362349    23A     -1.198889    24A     -1.086329
      25A     -1.058007    26A     -1.031667    27A     -0.937619
      28A     -0.872132    29A     -0.870452    30A     -0.852819
      31A     -0.851042    32A     -0.802732    33A     -0.751010
      34A     -0.738757    35A     -0.735318    36A     -0.698610
      37A     -0.697383    38A     -0.687588    39A     -0.680490
      40A     -0.677627    41A     -0.670236    42A     -0.651933
      43A     -0.646464    44A     -0.630085    45A     -0.562510
      46A     -0.546715    47A     -0.537758    48A     -0.526612
      49A     -0.519871    50A     -0.501259    51A     -0.471277
      52A     -0.388835    53A     -0.374940

  @DF-RHF Final Energy: -1113.77851180018683

   => Energetics <=

    Nuclear Repulsion Energy =            997.5853663354172340
    One-Electron Energy =               -3519.2469710121040407
    Two-Electron Energy =                1407.8830928764998589
    Total Energy =                      -1113.7785118001868341
  Basis Set: (AUG-CC-PVTZ AUX)
    Blend: AUG-CC-PVTZ-RI
    Molecular point group: c1

    Geometry (in Angstrom), charge = 0, multiplicity = 1:

       Center              X                  Y                   Z               Mass
    ------------   -----------------  -----------------  -----------------  -----------------
         S            0.723640420579     0.000059889547     0.894090455093    31.972071174400
         F            1.241638420579     1.091454889547    -1.439871544907    18.998403162730
         F            2.906527420579    -0.000054110453    -0.539953544907    18.998403162730
         F            1.241608420579    -1.091626110453    -1.439741544907    18.998403162730
         O            1.046868420579     1.287643889547     1.511624455093    15.994914619570
         O            1.046871420579    -1.287442110453     1.511793455093    15.994914619570
         C           -0.962713279421     0.000022889547     0.357706855093    12.000000000000
         C            1.586333420579    -0.000048110453    -0.741163544907    12.000000000000
         C           -1.612912579421    -1.224201110453     0.181841455093    12.000000000000
         C           -1.612917579421     1.224223889547     0.181694455093    12.000000000000
         C           -2.944742579421    -1.212963110453    -0.232481544907    12.000000000000
         C           -2.944747579421     1.212929889547    -0.232627544907    12.000000000000
         C           -3.605722579421    -0.000031110453    -0.445084544907    12.000000000000
         H           -1.084566579421    -2.154548110453     0.369972455093     1.007825032230
         H           -1.084575579421     2.154595889547     0.369713455093     1.007825032230
         H           -3.466567579421    -2.152919110453    -0.391226544907     1.007825032230
         H           -3.466576579421     2.152863889547    -0.391485544907     1.007825032230
         H           -4.643655579421    -0.000052110453    -0.768182544907     1.007825032230

  Basis Set: AUG-CC-PVTZ
    Blend: AUG-CC-PVTZ
  Basis Set: (AUG-CC-PVTZ AUX)
    Blend: AUG-CC-PVTZ-JKFIT
	 Reference Energy          =   -1113.7785118001868341 [Eh]
	 Singles Energy            =      -0.0000000000000000 [Eh]
	 Same-Spin Energy          =      -0.7259390928189419 [Eh]
	 Opposite-Spin Energy      =      -2.0870646480294197 [Eh]
	 Correlation Energy        =      -2.8130037408483615 [Eh]
	 Total Energy              =   -1116.5915155410352781 [Eh]

	 ================> DF-SCS-MP2 Energies <==================
	-----------------------------------------------------------
	 SCS Same-Spin Scale       =       0.3333333333333333 [-]
	 SCS Opposite-Spin Scale   =       1.2000000000000000 [-]
	 SCS Same-Spin Energy      =      -0.2419796976063139 [Eh]
	 SCS Opposite-Spin Energy  =      -2.5044775776353037 [Eh]
	 SCS Correlation Energy    =      -2.7464572752416174 [Eh]
	 SCS Total Energy          =   -1116.5249690754285439 [Eh]
	-----------------------------------------------------------

  Dipole Moment: [D]
     X:    -4.6007      Y:    -0.0002      Z:    -2.2827     Total:     5.1359

*** Psi4 exiting successfully. Buy a developer a beer!
