                               Psi4 1.3.2 release

  ==> Input File <==

--------------------------------------------------------------------------
#psi4
#
memory 32 gb

molecule  {
0 1
  S        0.8050094    -0.1849045     0.8752439
  F        1.3317230     1.0914540    -1.4540400
  F        2.9966120    -0.0000550    -0.5541220
  F        1.3316930    -1.0916270    -1.4539100
  O        1.1369530     1.2876430     1.4974560
  O        1.1369560    -1.2874430     1.4976250
  C       -0.8817330     0.0000240     0.3730510
  C        1.6764180    -0.0000490    -0.7553320
  C       -1.5228280    -1.2242020     0.1676730
  C       -1.5228330     1.2242230     0.1675260
  C       -2.8546580    -1.2129640    -0.2466500
  C       -2.8546630     1.2129290    -0.2467960
  C       -3.5156380    -0.0000320    -0.4592530
  H       -0.9944820    -2.1545490     0.3558040
  H       -0.9944910     2.1545950     0.3555450
  H       -3.3764830    -2.1529200    -0.4053950
  H       -3.3764920     2.1528630    -0.4056540
  H       -4.5535710    -0.0000530    -0.7823510
units angstrom
no_reorient  #important for SAPT in psi4, default
symmetry c1  #important for SAPT in psi4, default
}

set PROPERTIES_ORIGIN ["COM"]
properties('MP2/aug-cc-pvtz', properties = ['dipole'])
--------------------------------------------------------------------------

    Molecular point group: c1
  Charge       = 0
  Multiplicity = 1
  Basis Set: AUG-CC-PVTZ
    Blend: AUG-CC-PVTZ
  Basis Set: (AUG-CC-PVTZ AUX)
    Blend: AUG-CC-PVTZ-JKFIT

    Orbital Energies [Eh]
    ---------------------

    Doubly Occupied:

       1A    -92.207769     2A    -26.373836     3A    -26.372614
       4A    -26.370815     5A    -20.609940     6A    -20.540314
       7A    -11.552627     8A    -11.301312     9A    -11.288335
      10A    -11.287349    11A    -11.282645    12A    -11.273274
      13A    -11.273182    14A     -9.182813    15A     -6.868219
      16A     -6.866434    17A     -6.865424    18A     -1.758893
      19A     -1.668089    20A     -1.665389    21A     -1.556357
      22A     -1.290241    23A     -1.198492    24A     -1.086185
      25A     -1.057967    26A     -1.030252    27A     -0.937769
      28A     -0.876339    29A     -0.869023    30A     -0.852242
      31A     -0.850112    32A     -0.805927    33A     -0.759095
      34A     -0.740159    35A     -0.734695    36A     -0.705614
      37A     -0.700091    38A     -0.695827    39A     -0.691991
      40A     -0.686448    41A     -0.680055    42A     -0.658843
      43A     -0.653335    44A     -0.629441    45A     -0.574977
      46A     -0.550822    47A     -0.539418    48A     -0.526611
      49A     -0.503523    50A     -0.462044    51A     -0.446780
      52A     -0.388472    53A     -0.375122

  @DF-RHF Final Energy: -1113.71659890631281

   => Energetics <=

    Nuclear Repulsion Energy =            998.0085614465076560
    One-Electron Energy =               -3520.0032294363545589
    Two-Electron Energy =                1408.2780690835338646
    Total Energy =                      -1113.7165989063128109
  Basis Set: (AUG-CC-PVTZ AUX)
    Blend: AUG-CC-PVTZ-RI
    Molecular point group: c1

    Geometry (in Angstrom), charge = 0, multiplicity = 1:

       Center              X                  Y                   Z               Mass
    ------------   -----------------  -----------------  -----------------  -----------------
         S            0.716772031713    -0.156742904691     0.888438134514    31.972071174400
         F            1.243485631713     1.119615595309    -1.440845765486    18.998403162730
         F            2.908374631713     0.028106595309    -0.540927765486    18.998403162730
         F            1.243455631713    -1.063465404691    -1.440715765486    18.998403162730
         O            1.048715631713     1.315804595309     1.510650234514    15.994914619570
         O            1.048718631713    -1.259281404691     1.510819234514    15.994914619570
         C           -0.969970368287     0.028185595309     0.386245234514    12.000000000000
         C            1.588180631713     0.028112595309    -0.742137765486    12.000000000000
         C           -1.611065368287    -1.196040404691     0.180867234514    12.000000000000
         C           -1.611070368287     1.252384595309     0.180720234514    12.000000000000
         C           -2.942895368287    -1.184802404691    -0.233455765486    12.000000000000
         C           -2.942900368287     1.241090595309    -0.233601765486    12.000000000000
         C           -3.603875368287     0.028129595309    -0.446058765486    12.000000000000
         H           -1.082719368287    -2.126387404691     0.368998234514     1.007825032230
         H           -1.082728368287     2.182756595309     0.368739234514     1.007825032230
         H           -3.464720368287    -2.124758404691    -0.392200765486     1.007825032230
         H           -3.464729368287     2.181024595309    -0.392459765486     1.007825032230
         H           -4.641808368287     0.028108595309    -0.769156765486     1.007825032230

  Basis Set: AUG-CC-PVTZ
    Blend: AUG-CC-PVTZ
  Basis Set: (AUG-CC-PVTZ AUX)
    Blend: AUG-CC-PVTZ-JKFIT
	 Reference Energy          =   -1113.7165989063128109 [Eh]
	 Singles Energy            =      -0.0000000000000000 [Eh]
	 Same-Spin Energy          =      -0.7245860130460282 [Eh]
	 Opposite-Spin Energy      =      -2.0858127998714102 [Eh]
	 Correlation Energy        =      -2.8103988129174384 [Eh]
	 Total Energy              =   -1116.5269977192301667 [Eh]

	 ================> DF-SCS-MP2 Energies <==================
	-----------------------------------------------------------
	 SCS Same-Spin Scale       =       0.3333333333333333 [-]
	 SCS Opposite-Spin Scale   =       1.2000000000000000 [-]
	 SCS Same-Spin Energy      =      -0.2415286710153427 [Eh]
	 SCS Opposite-Spin Energy  =      -2.5029753598456921 [Eh]
	 SCS Correlation Energy    =      -2.7445040308610347 [Eh]
	 SCS Total Energy          =   -1116.4611029371737914 [Eh]
	-----------------------------------------------------------

  Dipole Moment: [D]
     X:    -4.7204      Y:    -1.4616      Z:    -2.4326     Total:     5.5078

*** Psi4 exiting successfully. Buy a developer a beer!
