                               Psi4 1.3.2 release

  ==> Input File <==

--------------------------------------------------------------------------
#psi4
#
memory 32 gb

molecule  {
0 1
  S        0.8428075    -0.0558054     0.8939950
  F        1.3317230     1.0914540    -1.4540400
  F        2.9966120    -0.0000550    -0.5541220
  F        1.3316930    -1.0916270    -1.4539100
  O        1.1369530     1.2876430     1.4974560
  O        1.1369560    -1.2874430     1.4976250
  C       -0.8817330     0.0000240     0.3730510
  C        1.6764180    -0.0000490    -0.7553320
  C       -1.5228280    -1.2242020     0.1676730
  C       -1.5228330     1.2242230     0.1675260
  C       -2.8546580    -1.2129640    -0.2466500
  C       -2.8546630     1.2129290    -0.2467960
  C       -3.5156380    -0.0000320    -0.4592530
  H       -0.9944820    -2.1545490     0.3558040
  H       -0.9944910     2.1545950     0.3555450
  H       -3.3764830    -2.1529200    -0.4053950
  H       -3.3764920     2.1528630    -0.4056540
  H       -4.5535710    -0.0000530    -0.7823510
units angstrom
no_reorient  #important for SAPT in psi4, default
symmetry c1  #important for SAPT in psi4, default
}

set PROPERTIES_ORIGIN ["COM"]
properties('MP2/aug-cc-pvtz', properties = ['dipole'])
--------------------------------------------------------------------------

    Molecular point group: c1
  Charge       = 0
  Multiplicity = 1
  Basis Set: AUG-CC-PVTZ
    Blend: AUG-CC-PVTZ
  Basis Set: (AUG-CC-PVTZ AUX)
    Blend: AUG-CC-PVTZ-JKFIT

    Orbital Energies [Eh]
    ---------------------

    Doubly Occupied:

       1A    -92.219093     2A    -26.375037     3A    -26.374721
       4A    -26.371948     5A    -20.591698     6A    -20.569922
       7A    -11.553636     8A    -11.298944     9A    -11.284236
      10A    -11.283908    11A    -11.279152    12A    -11.270670
      13A    -11.270569    14A     -9.188424    15A     -6.873229
      16A     -6.872770    17A     -6.872113    18A     -1.760289
      19A     -1.668601    20A     -1.667699    21A     -1.492115
      22A     -1.360716    23A     -1.194831    24A     -1.080021
      25A     -1.055123    26A     -1.032078    27A     -0.934592
      28A     -0.871338    29A     -0.867015    30A     -0.853857
      31A     -0.851402    32A     -0.802163    33A     -0.752305
      34A     -0.739535    35A     -0.735723    36A     -0.699497
      37A     -0.698502    38A     -0.688645    39A     -0.681477
      40A     -0.678739    41A     -0.675328    42A     -0.651353
      43A     -0.650642    44A     -0.627421    45A     -0.564031
      46A     -0.545180    47A     -0.536019    48A     -0.531455
      49A     -0.522314    50A     -0.500776    51A     -0.466425
      52A     -0.385140    53A     -0.372554

  @DF-RHF Final Energy: -1113.77335197615139

   => Energetics <=

    Nuclear Repulsion Energy =            997.0351529474008885
    One-Electron Energy =               -3518.1270650801093325
    Two-Electron Energy =                1407.3185601565569414
    Total Energy =                      -1113.7733519761513890
  Basis Set: (AUG-CC-PVTZ AUX)
    Blend: AUG-CC-PVTZ-RI
    Molecular point group: c1

    Geometry (in Angstrom), charge = 0, multiplicity = 1:

       Center              X                  Y                   Z               Mass
    ------------   -----------------  -----------------  -----------------  -----------------
         S            0.748815344999    -0.047299231430     0.904334366646    31.972071174400
         F            1.237730844999     1.099960168570    -1.443700633354    18.998403162730
         F            2.902619844999     0.008451168570    -0.543782633354    18.998403162730
         F            1.237700844999    -1.083120831430    -1.443570633354    18.998403162730
         O            1.042960844999     1.296149168570     1.507795366646    15.994914619570
         O            1.042963844999    -1.278936831430     1.507964366646    15.994914619570
         C           -0.975725155001     0.008530168570     0.383390366646    12.000000000000
         C            1.582425844999     0.008457168570    -0.744992633354    12.000000000000
         C           -1.616820155001    -1.215695831430     0.178012366646    12.000000000000
         C           -1.616825155001     1.232729168570     0.177865366646    12.000000000000
         C           -2.948650155001    -1.204457831430    -0.236310633354    12.000000000000
         C           -2.948655155001     1.221435168570    -0.236456633354    12.000000000000
         C           -3.609630155001     0.008474168570    -0.448913633354    12.000000000000
         H           -1.088474155001    -2.146042831430     0.366143366646     1.007825032230
         H           -1.088483155001     2.163101168570     0.365884366646     1.007825032230
         H           -3.470475155001    -2.144413831430    -0.395055633354     1.007825032230
         H           -3.470484155001     2.161369168570    -0.395314633354     1.007825032230
         H           -4.647563155001     0.008453168570    -0.772011633354     1.007825032230

  Basis Set: AUG-CC-PVTZ
    Blend: AUG-CC-PVTZ
  Basis Set: (AUG-CC-PVTZ AUX)
    Blend: AUG-CC-PVTZ-JKFIT
	 Reference Energy          =   -1113.7733519761513890 [Eh]
	 Singles Energy            =      -0.0000000000000000 [Eh]
	 Same-Spin Energy          =      -0.7252997736210498 [Eh]
	 Opposite-Spin Energy      =      -2.0861420338627674 [Eh]
	 Correlation Energy        =      -2.8114418074838170 [Eh]
	 Total Energy              =   -1116.5847937836351775 [Eh]

	 ================> DF-SCS-MP2 Energies <==================
	-----------------------------------------------------------
	 SCS Same-Spin Scale       =       0.3333333333333333 [-]
	 SCS Opposite-Spin Scale   =       1.2000000000000000 [-]
	 SCS Same-Spin Energy      =      -0.2417665912070166 [Eh]
	 SCS Opposite-Spin Energy  =      -2.5033704406353210 [Eh]
	 SCS Correlation Energy    =      -2.7451370318423374 [Eh]
	 SCS Total Energy          =   -1116.5184890079938214 [Eh]
	-----------------------------------------------------------

  Dipole Moment: [D]
     X:    -4.2675      Y:    -0.4353      Z:    -2.1673     Total:     4.8061

*** Psi4 exiting successfully. Buy a developer a beer!
