                               Psi4 1.3.2 release

  ==> Input File <==

--------------------------------------------------------------------------
#psi4
#
memory 32 gb

molecule  {
0 1
  S        0.8137250     0.0000590     0.8799220
  F        1.3317230     1.0914540    -1.4540400
  F        2.9966120    -0.0000550    -0.5541220
  F        1.3316930    -1.0916270    -1.4539100
  O        1.1369530     1.2876430     1.4974560
  O        1.1369560    -1.2874430     1.4976250
  C       -0.8903209     0.0000260     0.4027180
  C        1.6764180    -0.0000490    -0.7553320
  C       -1.5228280    -1.2242020     0.1676730
  C       -1.5228330     1.2242230     0.1675260
  C       -2.8546580    -1.2129640    -0.2466500
  C       -2.8546630     1.2129290    -0.2467960
  C       -3.5156380    -0.0000320    -0.4592530
  H       -0.9944820    -2.1545490     0.3558040
  H       -0.9944910     2.1545950     0.3555450
  H       -3.3764830    -2.1529200    -0.4053950
  H       -3.3764920     2.1528630    -0.4056540
  H       -4.5535710    -0.0000530    -0.7823510
units angstrom
no_reorient  #important for SAPT in psi4, default
symmetry c1  #important for SAPT in psi4, default
}

set PROPERTIES_ORIGIN ["COM"]
properties('MP2/aug-cc-pvtz', properties = ['dipole'])
--------------------------------------------------------------------------

    Molecular point group: c1
  Charge       = 0
  Multiplicity = 1
  Basis Set: AUG-CC-PVTZ
    Blend: AUG-CC-PVTZ
  Basis Set: (AUG-CC-PVTZ AUX)
    Blend: AUG-CC-PVTZ-JKFIT

    Orbital Energies [Eh]
    ---------------------

    Doubly Occupied:

       1A    -92.219411     2A    -26.374640     3A    -26.374619
       4A    -26.372439     5A    -20.576666     6A    -20.576646
       7A    -11.554310     8A    -11.300389     9A    -11.287735
      10A    -11.287663    11A    -11.282731    12A    -11.272999
      13A    -11.272916    14A     -9.188202    15A     -6.873032
      16A     -6.872365    17A     -6.872009    18A     -1.760193
      19A     -1.668372    20A     -1.667727    21A     -1.468887
      22A     -1.361342    23A     -1.198700    24A     -1.085597
      25A     -1.057989    26A     -1.032525    27A     -0.937533
      28A     -0.873371    29A     -0.870358    30A     -0.853829
      31A     -0.852192    32A     -0.802845    33A     -0.750864
      34A     -0.739624    35A     -0.736006    36A     -0.699287
      37A     -0.698198    38A     -0.688016    39A     -0.681389
      40A     -0.677567    41A     -0.670114    42A     -0.651705
      43A     -0.645892    44A     -0.629987    45A     -0.562201
      46A     -0.546991    47A     -0.537720    48A     -0.525769
      49A     -0.518229    50A     -0.499959    51A     -0.471160
      52A     -0.388987    53A     -0.375089

  @DF-RHF Final Energy: -1113.77848884702189

   => Energetics <=

    Nuclear Repulsion Energy =            997.2073122109330825
    One-Electron Energy =               -3518.4816288683941821
    Two-Electron Energy =                1407.4958278104390956
    Total Energy =                      -1113.7784888470218903
  Basis Set: (AUG-CC-PVTZ AUX)
    Blend: AUG-CC-PVTZ-RI
    Molecular point group: c1

    Geometry (in Angstrom), charge = 0, multiplicity = 1:

       Center              X                  Y                   Z               Mass
    ------------   -----------------  -----------------  -----------------  -----------------
         S            0.724651421561     0.000059660972     0.890708703036    31.972071174400
         F            1.242649421561     1.091454660972    -1.443253296964    18.998403162730
         F            2.907538421561    -0.000054339028    -0.543335296964    18.998403162730
         F            1.242619421561    -1.091626339028    -1.443123296964    18.998403162730
         O            1.047879421561     1.287643660972     1.508242703036    15.994914619570
         O            1.047882421561    -1.287442339028     1.508411703036    15.994914619570
         C           -0.979394478439     0.000026660972     0.413504703036    12.000000000000
         C            1.587344421561    -0.000048339028    -0.744545296964    12.000000000000
         C           -1.611901578439    -1.224201339028     0.178459703036    12.000000000000
         C           -1.611906578439     1.224223660972     0.178312703036    12.000000000000
         C           -2.943731578439    -1.212963339028    -0.235863296964    12.000000000000
         C           -2.943736578439     1.212929660972    -0.236009296964    12.000000000000
         C           -3.604711578439    -0.000031339028    -0.448466296964    12.000000000000
         H           -1.083555578439    -2.154548339028     0.366590703036     1.007825032230
         H           -1.083564578439     2.154595660972     0.366331703036     1.007825032230
         H           -3.465556578439    -2.152919339028    -0.394608296964     1.007825032230
         H           -3.465565578439     2.152863660972    -0.394867296964     1.007825032230
         H           -4.642644578439    -0.000052339028    -0.771564296964     1.007825032230

  Basis Set: AUG-CC-PVTZ
    Blend: AUG-CC-PVTZ
  Basis Set: (AUG-CC-PVTZ AUX)
    Blend: AUG-CC-PVTZ-JKFIT
	 Reference Energy          =   -1113.7784888470218903 [Eh]
	 Singles Energy            =      -0.0000000000000000 [Eh]
	 Same-Spin Energy          =      -0.7258230925613176 [Eh]
	 Opposite-Spin Energy      =      -2.0868952358666117 [Eh]
	 Correlation Energy        =      -2.8127183284279296 [Eh]
	 Total Energy              =   -1116.5912071754498811 [Eh]

	 ================> DF-SCS-MP2 Energies <==================
	-----------------------------------------------------------
	 SCS Same-Spin Scale       =       0.3333333333333333 [-]
	 SCS Opposite-Spin Scale   =       1.2000000000000000 [-]
	 SCS Same-Spin Energy      =      -0.2419410308537725 [Eh]
	 SCS Opposite-Spin Energy  =      -2.5042742830399338 [Eh]
	 SCS Correlation Energy    =      -2.7462153138937064 [Eh]
	 SCS Total Energy          =   -1116.5247041609156895 [Eh]
	-----------------------------------------------------------

  Dipole Moment: [D]
     X:    -4.6063      Y:    -0.0002      Z:    -2.3413     Total:     5.1672

*** Psi4 exiting successfully. Buy a developer a beer!
