                               Psi4 1.3.2 release

  ==> Input File <==

--------------------------------------------------------------------------
#psi4
#
memory 32 gb

molecule  {
0 1
  S        0.8135623    -0.0308231     0.8795273
  F        1.3317230     1.0914540    -1.4540400
  F        2.9966120    -0.0000550    -0.5541220
  F        1.3316930    -1.0916270    -1.4539100
  O        1.1369530     1.2876430     1.4974560
  O        1.1369560    -1.2874430     1.4976250
  C       -0.8817330     0.0000240     0.3730510
  C        1.6764180    -0.0000490    -0.7553320
  C       -1.5228280    -1.2242020     0.1676730
  C       -1.5228330     1.2242230     0.1675260
  C       -2.8546580    -1.2129640    -0.2466500
  C       -2.8546630     1.2129290    -0.2467960
  C       -3.5156380    -0.0000320    -0.4592530
  H       -0.9944820    -2.1545490     0.3558040
  H       -0.9944910     2.1545950     0.3555450
  H       -3.3764830    -2.1529200    -0.4053950
  H       -3.3764920     2.1528630    -0.4056540
  H       -4.5535710    -0.0000530    -0.7823510
units angstrom
no_reorient  #important for SAPT in psi4, default
symmetry c1  #important for SAPT in psi4, default
}

set PROPERTIES_ORIGIN ["COM"]
properties('MP2/aug-cc-pvtz', properties = ['dipole'])
--------------------------------------------------------------------------

    Molecular point group: c1
  Charge       = 0
  Multiplicity = 1
  Basis Set: AUG-CC-PVTZ
    Blend: AUG-CC-PVTZ
  Basis Set: (AUG-CC-PVTZ AUX)
    Blend: AUG-CC-PVTZ-JKFIT

    Orbital Energies [Eh]
    ---------------------

    Doubly Occupied:

       1A    -92.219314     2A    -26.374281     3A    -26.374105
       4A    -26.371711     5A    -20.583395     6A    -20.571314
       7A    -11.553326     8A    -11.300303     9A    -11.287719
      10A    -11.287530    11A    -11.282567    12A    -11.272946
      13A    -11.272860    14A     -9.188277    15A     -6.873108
      16A     -6.872467    17A     -6.872031    18A     -1.759704
      19A     -1.668019    20A     -1.667117    21A     -1.473372
      22A     -1.358123    23A     -1.198856    24A     -1.086004
      25A     -1.058022    26A     -1.032140    27A     -0.937624
      28A     -0.872947    29A     -0.870376    30A     -0.853343
      31A     -0.851623    32A     -0.802912    33A     -0.751156
      34A     -0.739257    35A     -0.735681    36A     -0.699033
      37A     -0.697841    38A     -0.688230    39A     -0.680960
      40A     -0.677941    41A     -0.670901    42A     -0.652004
      43A     -0.646332    44A     -0.630021    45A     -0.562935
      46A     -0.547146    47A     -0.537871    48A     -0.526326
      49A     -0.519276    50A     -0.498498    51A     -0.470364
      52A     -0.388911    53A     -0.375045

  @DF-RHF Final Energy: -1113.77710606877349

   => Energetics <=

    Nuclear Repulsion Energy =            997.4302211688166153
    One-Electron Energy =               -3518.9283216959534002
    Two-Electron Energy =                1407.7209944583630659
    Total Energy =                      -1113.7771060687734916
  Basis Set: (AUG-CC-PVTZ AUX)
    Blend: AUG-CC-PVTZ-RI
    Molecular point group: c1

    Geometry (in Angstrom), charge = 0, multiplicity = 1:

       Center              X                  Y                   Z               Mass
    ------------   -----------------  -----------------  -----------------  -----------------
         S            0.724022746807    -0.026120503782     0.892069383919    31.972071174400
         F            1.242183446807     1.096156596218    -1.441497916081    18.998403162730
         F            2.907072446807     0.004647596218    -0.541579916081    18.998403162730
         F            1.242153446807    -1.086924403782    -1.441367916081    18.998403162730
         O            1.047413446807     1.292345596218     1.509998083919    15.994914619570
         O            1.047416446807    -1.282740403782     1.510167083919    15.994914619570
         C           -0.971272553193     0.004726596218     0.385593083919    12.000000000000
         C            1.586878446807     0.004653596218    -0.742789916081    12.000000000000
         C           -1.612367553193    -1.219499403782     0.180215083919    12.000000000000
         C           -1.612372553193     1.228925596218     0.180068083919    12.000000000000
         C           -2.944197553193    -1.208261403782    -0.234107916081    12.000000000000
         C           -2.944202553193     1.217631596218    -0.234253916081    12.000000000000
         C           -3.605177553193     0.004670596218    -0.446710916081    12.000000000000
         H           -1.084021553193    -2.149846403782     0.368346083919     1.007825032230
         H           -1.084030553193     2.159297596218     0.368087083919     1.007825032230
         H           -3.466022553193    -2.148217403782    -0.392852916081     1.007825032230
         H           -3.466031553193     2.157565596218    -0.393111916081     1.007825032230
         H           -4.643110553193     0.004649596218    -0.769808916081     1.007825032230

  Basis Set: AUG-CC-PVTZ
    Blend: AUG-CC-PVTZ
  Basis Set: (AUG-CC-PVTZ AUX)
    Blend: AUG-CC-PVTZ-JKFIT
	 Reference Energy          =   -1113.7771060687734916 [Eh]
	 Singles Energy            =      -0.0000000000000000 [Eh]
	 Same-Spin Energy          =      -0.7258313525551943 [Eh]
	 Opposite-Spin Energy      =      -2.0869007992356217 [Eh]
	 Correlation Energy        =      -2.8127321517908159 [Eh]
	 Total Energy              =   -1116.5898382205643884 [Eh]

	 ================> DF-SCS-MP2 Energies <==================
	-----------------------------------------------------------
	 SCS Same-Spin Scale       =       0.3333333333333333 [-]
	 SCS Opposite-Spin Scale   =       1.2000000000000000 [-]
	 SCS Same-Spin Energy      =      -0.2419437841850647 [Eh]
	 SCS Opposite-Spin Energy  =      -2.5042809590827457 [Eh]
	 SCS Correlation Energy    =      -2.7462247432678106 [Eh]
	 SCS Total Energy          =   -1116.5233308120411948 [Eh]
	-----------------------------------------------------------

  Dipole Moment: [D]
     X:    -4.6045      Y:    -0.2419      Z:    -2.3168     Total:     5.1602

*** Psi4 exiting successfully. Buy a developer a beer!
