                               Psi4 1.3.2 release

  ==> Input File <==

--------------------------------------------------------------------------
#psi4
#
memory 32 gb

molecule  {
0 1
  S        0.8137250     0.0000590     0.8799220
  F        1.3317230     1.0914540    -1.4540400
  F        2.9966120    -0.0000550    -0.5541220
  F        1.3316930    -1.0916270    -1.4539100
  O        1.1473232     1.2752824     1.5172718
  O        1.1369560    -1.2874430     1.4976250
  C       -0.8817330     0.0000240     0.3730510
  C        1.6764180    -0.0000490    -0.7553320
  C       -1.5228280    -1.2242020     0.1676730
  C       -1.5228330     1.2242230     0.1675260
  C       -2.8546580    -1.2129640    -0.2466500
  C       -2.8546630     1.2129290    -0.2467960
  C       -3.5156380    -0.0000320    -0.4592530
  H       -0.9944820    -2.1545490     0.3558040
  H       -0.9944910     2.1545950     0.3555450
  H       -3.3764830    -2.1529200    -0.4053950
  H       -3.3764920     2.1528630    -0.4056540
  H       -4.5535710    -0.0000530    -0.7823510
units angstrom
no_reorient  #important for SAPT in psi4, default
symmetry c1  #important for SAPT in psi4, default
}

set PROPERTIES_ORIGIN ["COM"]
properties('MP2/aug-cc-pvtz', properties = ['dipole'])
--------------------------------------------------------------------------

    Molecular point group: c1
  Charge       = 0
  Multiplicity = 1
  Basis Set: AUG-CC-PVTZ
    Blend: AUG-CC-PVTZ
  Basis Set: (AUG-CC-PVTZ AUX)
    Blend: AUG-CC-PVTZ-JKFIT

    Orbital Energies [Eh]
    ---------------------

    Doubly Occupied:

       1A    -92.219373     2A    -26.374639     3A    -26.374598
       4A    -26.371926     5A    -20.577238     6A    -20.575913
       7A    -11.553813     8A    -11.300845     9A    -11.288117
      10A    -11.287984    11A    -11.282878    12A    -11.273285
      13A    -11.273196    14A     -9.188200    15A     -6.873056
      16A     -6.872310    17A     -6.872028    18A     -1.760039
      19A     -1.668371    20A     -1.667428    21A     -1.468926
      22A     -1.360390    23A     -1.199297    24A     -1.086596
      25A     -1.058395    26A     -1.032504    27A     -0.937994
      28A     -0.872998    29A     -0.870859    30A     -0.853706
      31A     -0.851949    32A     -0.802895    33A     -0.750878
      34A     -0.739540    35A     -0.735946    36A     -0.699235
      37A     -0.698142    38A     -0.688008    39A     -0.681264
      40A     -0.677666    41A     -0.670262    42A     -0.652025
      43A     -0.645567    44A     -0.630359    45A     -0.562718
      46A     -0.547322    47A     -0.538098    48A     -0.524971
      49A     -0.519020    50A     -0.499347    51A     -0.471591
      52A     -0.389280    53A     -0.375393

  @DF-RHF Final Energy: -1113.77892163042020

   => Energetics <=

    Nuclear Repulsion Energy =            997.1693619322543327
    One-Electron Energy =               -3518.3998097266876357
    Two-Electron Energy =                1407.4515261640133303
    Total Energy =                      -1113.7789216304202000
  Basis Set: (AUG-CC-PVTZ AUX)
    Blend: AUG-CC-PVTZ-RI
    Molecular point group: c1

    Geometry (in Angstrom), charge = 0, multiplicity = 1:

       Center              X                  Y                   Z               Mass
    ------------   -----------------  -----------------  -----------------  -----------------
         S            0.723370802109     0.001001252813     0.890894668136    31.972071174400
         F            1.241368802109     1.092396252813    -1.443067331864    18.998403162730
         F            2.906257802109     0.000887252813    -0.543149331864    18.998403162730
         F            1.241338802109    -1.090684747187    -1.442937331864    18.998403162730
         O            1.056969002109     1.276224652813     1.528244468136    15.994914619570
         O            1.046601802109    -1.286500747187     1.508597668136    15.994914619570
         C           -0.972087197891     0.000966252813     0.384023668136    12.000000000000
         C            1.586063802109     0.000893252813    -0.744359331864    12.000000000000
         C           -1.613182197891    -1.223259747187     0.178645668136    12.000000000000
         C           -1.613187197891     1.225165252813     0.178498668136    12.000000000000
         C           -2.945012197891    -1.212021747187    -0.235677331864    12.000000000000
         C           -2.945017197891     1.213871252813    -0.235823331864    12.000000000000
         C           -3.605992197891     0.000910252813    -0.448280331864    12.000000000000
         H           -1.084836197891    -2.153606747187     0.366776668136     1.007825032230
         H           -1.084845197891     2.155537252813     0.366517668136     1.007825032230
         H           -3.466837197891    -2.151977747187    -0.394422331864     1.007825032230
         H           -3.466846197891     2.153805252813    -0.394681331864     1.007825032230
         H           -4.643925197891     0.000889252813    -0.771378331864     1.007825032230

  Basis Set: AUG-CC-PVTZ
    Blend: AUG-CC-PVTZ
  Basis Set: (AUG-CC-PVTZ AUX)
    Blend: AUG-CC-PVTZ-JKFIT
	 Reference Energy          =   -1113.7789216304202000 [Eh]
	 Singles Energy            =      -0.0000000000000000 [Eh]
	 Same-Spin Energy          =      -0.7257960426895416 [Eh]
	 Opposite-Spin Energy      =      -2.0868177483182162 [Eh]
	 Correlation Energy        =      -2.8126137910077578 [Eh]
	 Total Energy              =   -1116.5915354214280342 [Eh]

	 ================> DF-SCS-MP2 Energies <==================
	-----------------------------------------------------------
	 SCS Same-Spin Scale       =       0.3333333333333333 [-]
	 SCS Opposite-Spin Scale   =       1.2000000000000000 [-]
	 SCS Same-Spin Energy      =      -0.2419320142298472 [Eh]
	 SCS Opposite-Spin Energy  =      -2.5041812979818592 [Eh]
	 SCS Correlation Energy    =      -2.7461133122117065 [Eh]
	 SCS Total Energy          =   -1116.5250349426319190 [Eh]
	-----------------------------------------------------------

  Dipole Moment: [D]
     X:    -4.6351      Y:     0.0249      Z:    -2.3605     Total:     5.2016

*** Psi4 exiting successfully. Buy a developer a beer!
