                               Psi4 1.3.2 release

  ==> Input File <==

--------------------------------------------------------------------------
#psi4
#
memory 32 gb

molecule  {
0 1
  S        0.8137250     0.0000590     0.8799220
  F        1.3317230     1.0914540    -1.4540400
  F        2.9966120    -0.0000550    -0.5541220
  F        1.3316930    -1.0916270    -1.4539100
  O        1.1575917     1.2625333     1.5368934
  O        1.1369560    -1.2874430     1.4976250
  C       -0.8817330     0.0000240     0.3730510
  C        1.6764180    -0.0000490    -0.7553320
  C       -1.5228280    -1.2242020     0.1676730
  C       -1.5228330     1.2242230     0.1675260
  C       -2.8546580    -1.2129640    -0.2466500
  C       -2.8546630     1.2129290    -0.2467960
  C       -3.5156380    -0.0000320    -0.4592530
  H       -0.9944820    -2.1545490     0.3558040
  H       -0.9944910     2.1545950     0.3555450
  H       -3.3764830    -2.1529200    -0.4053950
  H       -3.3764920     2.1528630    -0.4056540
  H       -4.5535710    -0.0000530    -0.7823510
units angstrom
no_reorient  #important for SAPT in psi4, default
symmetry c1  #important for SAPT in psi4, default
}

set PROPERTIES_ORIGIN ["COM"]
properties('MP2/aug-cc-pvtz', properties = ['dipole'])
--------------------------------------------------------------------------

    Molecular point group: c1
  Charge       = 0
  Multiplicity = 1
  Basis Set: AUG-CC-PVTZ
    Blend: AUG-CC-PVTZ
  Basis Set: (AUG-CC-PVTZ AUX)
    Blend: AUG-CC-PVTZ-JKFIT

    Orbital Energies [Eh]
    ---------------------

    Doubly Occupied:

       1A    -92.219069     2A    -26.375078     3A    -26.375007
       4A    -26.372144     5A    -20.577017     6A    -20.574366
       7A    -11.554320     8A    -11.301414     9A    -11.288593
      10A    -11.288359    11A    -11.283188    12A    -11.273633
      13A    -11.273530    14A     -9.187943    15A     -6.872797
      16A     -6.872031    17A     -6.871781    18A     -1.760383
      19A     -1.668788    20A     -1.667685    21A     -1.468547
      22A     -1.358880    23A     -1.199727    24A     -1.087204
      25A     -1.058760    26A     -1.032881    27A     -0.938388
      28A     -0.873243    29A     -0.871230    30A     -0.854068
      31A     -0.852262    32A     -0.802961    33A     -0.750803
      34A     -0.739872    35A     -0.736212    36A     -0.699517
      37A     -0.698478    38A     -0.688221    39A     -0.681576
      40A     -0.677679    41A     -0.670303    42A     -0.652230
      43A     -0.644877    44A     -0.630663    45A     -0.563096
      46A     -0.547714    47A     -0.538422    48A     -0.523696
      49A     -0.518960    50A     -0.498001    51A     -0.471902
      52A     -0.389634    53A     -0.375739

  @DF-RHF Final Energy: -1113.77889746382812

   => Energetics <=

    Nuclear Repulsion Energy =            996.9393111309060487
    One-Electron Energy =               -3517.9306641071839294
    Two-Electron Energy =                1407.2124555124498784
    Total Energy =                      -1113.7788974638281161
  Basis Set: (AUG-CC-PVTZ AUX)
    Blend: AUG-CC-PVTZ-RI
    Molecular point group: c1

    Geometry (in Angstrom), charge = 0, multiplicity = 1:

       Center              X                  Y                   Z               Mass
    ------------   -----------------  -----------------  -----------------  -----------------
         S            0.722588674845     0.001972321489     0.889400137453    31.972071174400
         F            1.240586674845     1.093367321489    -1.444561862547    18.998403162730
         F            2.905475674845     0.001858321489    -0.544643862547    18.998403162730
         F            1.240556674845    -1.089713678511    -1.444431862547    18.998403162730
         O            1.066455374845     1.264446621489     1.546371537453    15.994914619570
         O            1.045819674845    -1.285529678511     1.507103137453    15.994914619570
         C           -0.972869325155     0.001937321489     0.382529137453    12.000000000000
         C            1.585281674845     0.001864321489    -0.745853862547    12.000000000000
         C           -1.613964325155    -1.222288678511     0.177151137453    12.000000000000
         C           -1.613969325155     1.226136321489     0.177004137453    12.000000000000
         C           -2.945794325155    -1.211050678511    -0.237171862547    12.000000000000
         C           -2.945799325155     1.214842321489    -0.237317862547    12.000000000000
         C           -3.606774325155     0.001881321489    -0.449774862547    12.000000000000
         H           -1.085618325155    -2.152635678511     0.365282137453     1.007825032230
         H           -1.085627325155     2.156508321489     0.365023137453     1.007825032230
         H           -3.467619325155    -2.151006678511    -0.395916862547     1.007825032230
         H           -3.467628325155     2.154776321489    -0.396175862547     1.007825032230
         H           -4.644707325155     0.001860321489    -0.772872862547     1.007825032230

  Basis Set: AUG-CC-PVTZ
    Blend: AUG-CC-PVTZ
  Basis Set: (AUG-CC-PVTZ AUX)
    Blend: AUG-CC-PVTZ-JKFIT
	 Reference Energy          =   -1113.7788974638281161 [Eh]
	 Singles Energy            =      -0.0000000000000000 [Eh]
	 Same-Spin Energy          =      -0.7257314233743252 [Eh]
	 Opposite-Spin Energy      =      -2.0867174189913360 [Eh]
	 Correlation Energy        =      -2.8124488423656611 [Eh]
	 Total Energy              =   -1116.5913463061938273 [Eh]

	 ================> DF-SCS-MP2 Energies <==================
	-----------------------------------------------------------
	 SCS Same-Spin Scale       =       0.3333333333333333 [-]
	 SCS Opposite-Spin Scale   =       1.2000000000000000 [-]
	 SCS Same-Spin Energy      =      -0.2419104744581084 [Eh]
	 SCS Opposite-Spin Energy  =      -2.5040609027896030 [Eh]
	 SCS Correlation Energy    =      -2.7459713772477112 [Eh]
	 SCS Total Energy          =   -1116.5248688410758859 [Eh]
	-----------------------------------------------------------

  Dipole Moment: [D]
     X:    -4.6683      Y:     0.0507      Z:    -2.4088     Total:     5.2534

*** Psi4 exiting successfully. Buy a developer a beer!
