                               Psi4 1.3.2 release

  ==> Input File <==

--------------------------------------------------------------------------
#psi4
#
memory 32 gb

molecule  {
0 1
  S        0.8125011     0.0618137     0.8802481
  F        1.3317230     1.0914540    -1.4540400
  F        2.9966120    -0.0000550    -0.5541220
  F        1.3316930    -1.0916270    -1.4539100
  O        1.1369530     1.2876430     1.4974560
  O        1.1369560    -1.2874430     1.4976250
  C       -0.8817330     0.0000240     0.3730510
  C        1.6764180    -0.0000490    -0.7553320
  C       -1.5228280    -1.2242020     0.1676730
  C       -1.5228330     1.2242230     0.1675260
  C       -2.8546580    -1.2129640    -0.2466500
  C       -2.8546630     1.2129290    -0.2467960
  C       -3.5156380    -0.0000320    -0.4592530
  H       -0.9944820    -2.1545490     0.3558040
  H       -0.9944910     2.1545950     0.3555450
  H       -3.3764830    -2.1529200    -0.4053950
  H       -3.3764920     2.1528630    -0.4056540
  H       -4.5535710    -0.0000530    -0.7823510
units angstrom
no_reorient  #important for SAPT in psi4, default
symmetry c1  #important for SAPT in psi4, default
}

set PROPERTIES_ORIGIN ["COM"]
properties('MP2/aug-cc-pvtz', properties = ['dipole'])
--------------------------------------------------------------------------

    Molecular point group: c1
  Charge       = 0
  Multiplicity = 1
  Basis Set: AUG-CC-PVTZ
    Blend: AUG-CC-PVTZ
  Basis Set: (AUG-CC-PVTZ AUX)
    Blend: AUG-CC-PVTZ-JKFIT

    Orbital Energies [Eh]
    ---------------------

    Doubly Occupied:

       1A    -92.218253     2A    -26.374152     3A    -26.373797
       4A    -26.371500     5A    -20.589265     6A    -20.565187
       7A    -11.553082     8A    -11.300371     9A    -11.287815
      10A    -11.287462    11A    -11.282568    12A    -11.272972
      13A    -11.272884    14A     -9.187739    15A     -6.872498
      16A     -6.872046    17A     -6.871358    18A     -1.759481
      19A     -1.667948    20A     -1.666766    21A     -1.484643
      22A     -1.348764    23A     -1.198836    24A     -1.085925
      25A     -1.058014    26A     -1.031686    27A     -0.937540
      28A     -0.873248    29A     -0.870103    30A     -0.853092
      31A     -0.851352    32A     -0.803168    33A     -0.751758
      34A     -0.739181    35A     -0.735519    36A     -0.699173
      37A     -0.697749    38A     -0.689490    39A     -0.680799
      40A     -0.678891    41A     -0.672839    42A     -0.652573
      43A     -0.647055    44A     -0.629932    45A     -0.564658
      46A     -0.547760    47A     -0.538130    48A     -0.526804
      49A     -0.519169    50A     -0.493405    51A     -0.467608
      52A     -0.388873    53A     -0.375050

  @DF-RHF Final Energy: -1113.77213752093940

   => Energetics <=

    Nuclear Repulsion Energy =            997.4564365121404990
    One-Electron Energy =               -3518.9772906389366653
    Two-Electron Energy =                1407.7487166058567709
    Total Energy =                      -1113.7721375209393955
  Basis Set: (AUG-CC-PVTZ AUX)
    Blend: AUG-CC-PVTZ-RI
    Molecular point group: c1

    Geometry (in Angstrom), charge = 0, multiplicity = 1:

       Center              X                  Y                   Z               Mass
    ------------   -----------------  -----------------  -----------------  -----------------
         S            0.723123115237     0.052412279724     0.892680441623    31.972071174400
         F            1.242345015237     1.082052579724    -1.441607658377    18.998403162730
         F            2.907234015237    -0.009456420276    -0.541689658377    18.998403162730
         F            1.242315015237    -1.101028420276    -1.441477658377    18.998403162730
         O            1.047575015237     1.278241579724     1.509888341623    15.994914619570
         O            1.047578015237    -1.296844420276     1.510057341623    15.994914619570
         C           -0.971110984763    -0.009377420276     0.385483341623    12.000000000000
         C            1.587040015237    -0.009450420276    -0.742899658377    12.000000000000
         C           -1.612205984763    -1.233603420276     0.180105341623    12.000000000000
         C           -1.612210984763     1.214821579724     0.179958341623    12.000000000000
         C           -2.944035984763    -1.222365420276    -0.234217658377    12.000000000000
         C           -2.944040984763     1.203527579724    -0.234363658377    12.000000000000
         C           -3.605015984763    -0.009433420276    -0.446820658377    12.000000000000
         H           -1.083859984763    -2.163950420276     0.368236341623     1.007825032230
         H           -1.083868984763     2.145193579724     0.367977341623     1.007825032230
         H           -3.465860984763    -2.162321420276    -0.392962658377     1.007825032230
         H           -3.465869984763     2.143461579724    -0.393221658377     1.007825032230
         H           -4.642948984763    -0.009454420276    -0.769918658377     1.007825032230

  Basis Set: AUG-CC-PVTZ
    Blend: AUG-CC-PVTZ
  Basis Set: (AUG-CC-PVTZ AUX)
    Blend: AUG-CC-PVTZ-JKFIT
	 Reference Energy          =   -1113.7721375209393955 [Eh]
	 Singles Energy            =      -0.0000000000000000 [Eh]
	 Same-Spin Energy          =      -0.7256983232879963 [Eh]
	 Opposite-Spin Energy      =      -2.0867627121374781 [Eh]
	 Correlation Energy        =      -2.8124610354254744 [Eh]
	 Total Energy              =   -1116.5845985563648810 [Eh]

	 ================> DF-SCS-MP2 Energies <==================
	-----------------------------------------------------------
	 SCS Same-Spin Scale       =       0.3333333333333333 [-]
	 SCS Opposite-Spin Scale   =       1.2000000000000000 [-]
	 SCS Same-Spin Energy      =      -0.2418994410959988 [Eh]
	 SCS Opposite-Spin Energy  =      -2.5041152545649736 [Eh]
	 SCS Correlation Energy    =      -2.7460146956609726 [Eh]
	 SCS Total Energy          =   -1116.5181522166003560 [Eh]
	-----------------------------------------------------------

  Dipole Moment: [D]
     X:    -4.6160      Y:     0.4837      Z:    -2.3196     Total:     5.1887

*** Psi4 exiting successfully. Buy a developer a beer!
