                               Psi4 1.3.2 release

  ==> Input File <==

--------------------------------------------------------------------------
#psi4
#
memory 32 gb

molecule  {
0 1
  S        0.8137250     0.0000590     0.8799220
  F        1.3317230     1.0914540    -1.4540400
  F        2.9966120    -0.0000550    -0.5541220
  F        1.3316930    -1.0916270    -1.4539100
  O        1.0888239     1.3026916     1.4891559
  O        1.1369560    -1.2874430     1.4976250
  C       -0.8817330     0.0000240     0.3730510
  C        1.6764180    -0.0000490    -0.7553320
  C       -1.5228280    -1.2242020     0.1676730
  C       -1.5228330     1.2242230     0.1675260
  C       -2.8546580    -1.2129640    -0.2466500
  C       -2.8546630     1.2129290    -0.2467960
  C       -3.5156380    -0.0000320    -0.4592530
  H       -0.9944820    -2.1545490     0.3558040
  H       -0.9944910     2.1545950     0.3555450
  H       -3.3764830    -2.1529200    -0.4053950
  H       -3.3764920     2.1528630    -0.4056540
  H       -4.5535710    -0.0000530    -0.7823510
units angstrom
no_reorient  #important for SAPT in psi4, default
symmetry c1  #important for SAPT in psi4, default
}

set PROPERTIES_ORIGIN ["COM"]
properties('MP2/aug-cc-pvtz', properties = ['dipole'])
--------------------------------------------------------------------------

    Molecular point group: c1
  Charge       = 0
  Multiplicity = 1
  Basis Set: AUG-CC-PVTZ
    Blend: AUG-CC-PVTZ
  Basis Set: (AUG-CC-PVTZ AUX)
    Blend: AUG-CC-PVTZ-JKFIT

    Orbital Energies [Eh]
    ---------------------

    Doubly Occupied:

       1A    -92.220140     2A    -26.375119     3A    -26.374850
       4A    -26.372745     5A    -20.579573     6A    -20.577885
       7A    -11.554645     8A    -11.298273     9A    -11.286205
      10A    -11.286008    11A    -11.281363    12A    -11.271764
      13A    -11.271677    14A     -9.188896    15A     -6.873752
      16A     -6.873063    17A     -6.872694    18A     -1.760557
      19A     -1.668674    20A     -1.668148    21A     -1.470011
      22A     -1.363917    23A     -1.197392    24A     -1.084662
      25A     -1.056742    26A     -1.032692    27A     -0.937416
      28A     -0.872788    29A     -0.869188    30A     -0.854147
      31A     -0.852372    32A     -0.802403    33A     -0.751279
      34A     -0.739910    35A     -0.736159    36A     -0.699419
      37A     -0.698549    38A     -0.687465    39A     -0.681747
      40A     -0.677301    41A     -0.670911    42A     -0.650986
      43A     -0.646887    44A     -0.628942    45A     -0.561089
      46A     -0.545630    47A     -0.536664    48A     -0.527790
      49A     -0.519399    50A     -0.502326    51A     -0.471073
      52A     -0.387541    53A     -0.373841

  @DF-RHF Final Energy: -1113.77800223917029

   => Energetics <=

    Nuclear Repulsion Energy =            997.6564761666447794
    One-Electron Energy =               -3519.3796154067958923
    Two-Electron Energy =                1407.9451370009805942
    Total Energy =                      -1113.7780022391702914
  Basis Set: (AUG-CC-PVTZ AUX)
    Blend: AUG-CC-PVTZ-RI
    Molecular point group: c1

    Geometry (in Angstrom), charge = 0, multiplicity = 1:

       Center              X                  Y                   Z               Mass
    ------------   -----------------  -----------------  -----------------  -----------------
         S            0.727826554892    -0.001086440872     0.893036189482    31.972071174400
         F            1.245824554892     1.090308559128    -1.440925810518    18.998403162730
         F            2.910713554892    -0.001200440872    -0.541007810518    18.998403162730
         F            1.245794554892    -1.092772440872    -1.440795810518    18.998403162730
         O            1.002925454892     1.301546159128     1.502270089482    15.994914619570
         O            1.051057554892    -1.288588440872     1.510739189482    15.994914619570
         C           -0.967631445108    -0.001121440872     0.386165189482    12.000000000000
         C            1.590519554892    -0.001194440872    -0.742217810518    12.000000000000
         C           -1.608726445108    -1.225347440872     0.180787189482    12.000000000000
         C           -1.608731445108     1.223077559128     0.180640189482    12.000000000000
         C           -2.940556445108    -1.214109440872    -0.233535810518    12.000000000000
         C           -2.940561445108     1.211783559128    -0.233681810518    12.000000000000
         C           -3.601536445108    -0.001177440872    -0.446138810518    12.000000000000
         H           -1.080380445108    -2.155694440872     0.368918189482     1.007825032230
         H           -1.080389445108     2.153449559128     0.368659189482     1.007825032230
         H           -3.462381445108    -2.154065440872    -0.392280810518     1.007825032230
         H           -3.462390445108     2.151717559128    -0.392539810518     1.007825032230
         H           -4.639469445108    -0.001198440872    -0.769236810518     1.007825032230

  Basis Set: AUG-CC-PVTZ
    Blend: AUG-CC-PVTZ
  Basis Set: (AUG-CC-PVTZ AUX)
    Blend: AUG-CC-PVTZ-JKFIT
	 Reference Energy          =   -1113.7780022391702914 [Eh]
	 Singles Energy            =      -0.0000000000000000 [Eh]
	 Same-Spin Energy          =      -0.7260294969075689 [Eh]
	 Opposite-Spin Energy      =      -2.0872217099345249 [Eh]
	 Correlation Energy        =      -2.8132512068420938 [Eh]
	 Total Energy              =   -1116.5912534460123879 [Eh]

	 ================> DF-SCS-MP2 Energies <==================
	-----------------------------------------------------------
	 SCS Same-Spin Scale       =       0.3333333333333333 [-]
	 SCS Opposite-Spin Scale   =       1.2000000000000000 [-]
	 SCS Same-Spin Energy      =      -0.2420098323025230 [Eh]
	 SCS Opposite-Spin Energy  =      -2.5046660519214297 [Eh]
	 SCS Correlation Energy    =      -2.7466758842239525 [Eh]
	 SCS Total Energy          =   -1116.5246781233943238 [Eh]
	-----------------------------------------------------------

  Dipole Moment: [D]
     X:    -4.4430      Y:    -0.0277      Z:    -2.2843     Total:     4.9959

*** Psi4 exiting successfully. Buy a developer a beer!
