                               Psi4 1.3.2 release

  ==> Input File <==

--------------------------------------------------------------------------
#psi4
#
memory 32 gb

molecule  {
0 1
  S        0.8137250     0.0000590     0.8799220
  F        1.3317230     1.0914540    -1.4540400
  F        2.9966120    -0.0000550    -0.5541220
  F        1.3316930    -1.0916270    -1.4539100
  O        1.0403596     1.3161532     1.4801135
  O        1.1369560    -1.2874430     1.4976250
  C       -0.8817330     0.0000240     0.3730510
  C        1.6764180    -0.0000490    -0.7553320
  C       -1.5228280    -1.2242020     0.1676730
  C       -1.5228330     1.2242230     0.1675260
  C       -2.8546580    -1.2129640    -0.2466500
  C       -2.8546630     1.2129290    -0.2467960
  C       -3.5156380    -0.0000320    -0.4592530
  H       -0.9944820    -2.1545490     0.3558040
  H       -0.9944910     2.1545950     0.3555450
  H       -3.3764830    -2.1529200    -0.4053950
  H       -3.3764920     2.1528630    -0.4056540
  H       -4.5535710    -0.0000530    -0.7823510
units angstrom
no_reorient  #important for SAPT in psi4, default
symmetry c1  #important for SAPT in psi4, default
}

set PROPERTIES_ORIGIN ["COM"]
properties('MP2/aug-cc-pvtz', properties = ['dipole'])
--------------------------------------------------------------------------

    Molecular point group: c1
  Charge       = 0
  Multiplicity = 1
  Basis Set: AUG-CC-PVTZ
    Blend: AUG-CC-PVTZ
  Basis Set: (AUG-CC-PVTZ AUX)
    Blend: AUG-CC-PVTZ-JKFIT

    Orbital Energies [Eh]
    ---------------------

    Doubly Occupied:

       1A    -92.220587     2A    -26.376048     3A    -26.375520
       4A    -26.373774     5A    -20.581677     6A    -20.578264
       7A    -11.556002     8A    -11.296237     9A    -11.284726
      10A    -11.284349    11A    -11.280119    12A    -11.270555
      13A    -11.270458    14A     -9.189330    15A     -6.874182
      16A     -6.873531    17A     -6.873103    18A     -1.761425
      19A     -1.669446    20A     -1.669077    21A     -1.470746
      22A     -1.365916    23A     -1.195871    24A     -1.083317
      25A     -1.055418    26A     -1.033239    27A     -0.937260
      28A     -0.872799    29A     -0.867861    30A     -0.854956
      31A     -0.853089    32A     -0.801983    33A     -0.751628
      34A     -0.740616    35A     -0.736633    36A     -0.699942
      37A     -0.699295    38A     -0.687093    39A     -0.682552
      40A     -0.676964    41A     -0.671564    42A     -0.650156
      43A     -0.647399    44A     -0.627799    45A     -0.559809
      46A     -0.544343    47A     -0.535623    48A     -0.529150
      49A     -0.519738    50A     -0.503867    51A     -0.470736
      52A     -0.386096    53A     -0.372596

  @DF-RHF Final Energy: -1113.77657159731280

   => Energetics <=

    Nuclear Repulsion Energy =            997.9395294170797115
    One-Electron Energy =               -3519.9432756358687584
    Two-Electron Energy =                1408.2271746214764789
    Total Energy =                      -1113.7765715973127953
  Basis Set: (AUG-CC-PVTZ AUX)
    Blend: AUG-CC-PVTZ-RI
    Molecular point group: c1

    Geometry (in Angstrom), charge = 0, multiplicity = 1:

       Center              X                  Y                   Z               Mass
    ------------   -----------------  -----------------  -----------------  -----------------
         S            0.731517965551    -0.002111778981     0.893724927620    31.972071174400
         F            1.249515965551     1.089283221019    -1.440237072380    18.998403162730
         F            2.914404965551    -0.002225778981    -0.540319072380    18.998403162730
         F            1.249485965551    -1.093797778981    -1.440107072380    18.998403162730
         O            0.958152565551     1.313982421019     1.493916427620    15.994914619570
         O            1.054748965551    -1.289613778981     1.511427927620    15.994914619570
         C           -0.963940034449    -0.002146778981     0.386853927620    12.000000000000
         C            1.594210965551    -0.002219778981    -0.741529072380    12.000000000000
         C           -1.605035034449    -1.226372778981     0.181475927620    12.000000000000
         C           -1.605040034449     1.222052221019     0.181328927620    12.000000000000
         C           -2.936865034449    -1.215134778981    -0.232847072380    12.000000000000
         C           -2.936870034449     1.210758221019    -0.232993072380    12.000000000000
         C           -3.597845034449    -0.002202778981    -0.445450072380    12.000000000000
         H           -1.076689034449    -2.156719778981     0.369606927620     1.007825032230
         H           -1.076698034449     2.152424221019     0.369347927620     1.007825032230
         H           -3.458690034449    -2.155090778981    -0.391592072380     1.007825032230
         H           -3.458699034449     2.150692221019    -0.391851072380     1.007825032230
         H           -4.635778034449    -0.002223778981    -0.768548072380     1.007825032230

  Basis Set: AUG-CC-PVTZ
    Blend: AUG-CC-PVTZ
  Basis Set: (AUG-CC-PVTZ AUX)
    Blend: AUG-CC-PVTZ-JKFIT
	 Reference Energy          =   -1113.7765715973127953 [Eh]
	 Singles Energy            =      -0.0000000000000000 [Eh]
	 Same-Spin Energy          =      -0.7262271496609061 [Eh]
	 Opposite-Spin Energy      =      -2.0875781487669740 [Eh]
	 Correlation Energy        =      -2.8138052984278801 [Eh]
	 Total Energy              =   -1116.5903768957407465 [Eh]

	 ================> DF-SCS-MP2 Energies <==================
	-----------------------------------------------------------
	 SCS Same-Spin Scale       =       0.3333333333333333 [-]
	 SCS Opposite-Spin Scale   =       1.2000000000000000 [-]
	 SCS Same-Spin Energy      =      -0.2420757165536354 [Eh]
	 SCS Opposite-Spin Energy  =      -2.5050937785203686 [Eh]
	 SCS Correlation Energy    =      -2.7471694950740040 [Eh]
	 SCS Total Energy          =   -1116.5237410923868993 [Eh]
	-----------------------------------------------------------

  Dipole Moment: [D]
     X:    -4.2811      Y:    -0.0519      Z:    -2.2545     Total:     4.8387

*** Psi4 exiting successfully. Buy a developer a beer!
