                               Psi4 1.3.2 release

  ==> Input File <==

--------------------------------------------------------------------------
#psi4
#
memory 32 gb

molecule  {
0 1
  S        0.8137250     0.0000590     0.8799220
  F        1.3317230     1.0914540    -1.4540400
  F        2.9966120    -0.0000550    -0.5541220
  F        1.3316930    -1.0916270    -1.4539100
  O        1.1369530     1.2876430     1.4974560
  O        1.1369560    -1.2874430     1.4976250
  C       -0.8630106     0.0000201     0.3141891
  C        1.6764180    -0.0000490    -0.7553320
  C       -1.5228280    -1.2242020     0.1676730
  C       -1.5228330     1.2242230     0.1675260
  C       -2.8546580    -1.2129640    -0.2466500
  C       -2.8546630     1.2129290    -0.2467960
  C       -3.5156380    -0.0000320    -0.4592530
  H       -0.9944820    -2.1545490     0.3558040
  H       -0.9944910     2.1545950     0.3555450
  H       -3.3764830    -2.1529200    -0.4053950
  H       -3.3764920     2.1528630    -0.4056540
  H       -4.5535710    -0.0000530    -0.7823510
units angstrom
no_reorient  #important for SAPT in psi4, default
symmetry c1  #important for SAPT in psi4, default
}

set PROPERTIES_ORIGIN ["COM"]
properties('MP2/aug-cc-pvtz', properties = ['dipole'])
--------------------------------------------------------------------------

    Molecular point group: c1
  Charge       = 0
  Multiplicity = 1
  Basis Set: AUG-CC-PVTZ
    Blend: AUG-CC-PVTZ
  Basis Set: (AUG-CC-PVTZ AUX)
    Blend: AUG-CC-PVTZ-JKFIT

    Orbital Energies [Eh]
    ---------------------

    Doubly Occupied:

       1A    -92.220050     2A    -26.373223     3A    -26.373201
       4A    -26.370099     5A    -20.578874     6A    -20.578854
       7A    -11.551137     8A    -11.300390     9A    -11.288072
      10A    -11.287999    11A    -11.282596    12A    -11.272809
      13A    -11.272727    14A     -9.188809    15A     -6.873727
      16A     -6.872882    17A     -6.872646    18A     -1.758583
      19A     -1.667021    20A     -1.665931    21A     -1.470028
      22A     -1.362787    23A     -1.198787    24A     -1.086653
      25A     -1.057941    26A     -1.031158    27A     -0.937600
      28A     -0.871512    29A     -0.870272    30A     -0.852266
      31A     -0.850418    32A     -0.802549    33A     -0.751025
      34A     -0.738284    35A     -0.734929    36A     -0.698278
      37A     -0.696934    38A     -0.687411    39A     -0.680011
      40A     -0.677461    41A     -0.670186    42A     -0.652052
      43A     -0.646615    44A     -0.630088    45A     -0.562716
      46A     -0.546369    47A     -0.537663    48A     -0.526953
      49A     -0.520655    50A     -0.501847    51A     -0.471192
      52A     -0.388735    53A     -0.374782

  @DF-RHF Final Energy: -1113.77764662691652

   => Energetics <=

    Nuclear Repulsion Energy =            997.7425444747279926
    One-Electron Energy =               -3519.5688116005176198
    Two-Electron Energy =                1408.0486204988733334
    Total Energy =                      -1113.7776466269165212
  Basis Set: (AUG-CC-PVTZ AUX)
    Blend: AUG-CC-PVTZ-RI
    Molecular point group: c1

    Geometry (in Angstrom), charge = 0, multiplicity = 1:

       Center              X                  Y                   Z               Mass
    ------------   -----------------  -----------------  -----------------  -----------------
         S            0.723090805011     0.000059998121     0.895767588019    31.972071174400
         F            1.241088805011     1.091454998121    -1.438194411981    18.998403162730
         F            2.905977805011    -0.000054001879    -0.538276411981    18.998403162730
         F            1.241058805011    -1.091626001879    -1.438064411981    18.998403162730
         O            1.046318805011     1.287643998121     1.513301588019    15.994914619570
         O            1.046321805011    -1.287442001879     1.513470588019    15.994914619570
         C           -0.953644794989     0.000021098121     0.330034688019    12.000000000000
         C            1.585783805011    -0.000048001879    -0.739486411981    12.000000000000
         C           -1.613462194989    -1.224201001879     0.183518588019    12.000000000000
         C           -1.613467194989     1.224223998121     0.183371588019    12.000000000000
         C           -2.945292194989    -1.212963001879    -0.230804411981    12.000000000000
         C           -2.945297194989     1.212929998121    -0.230950411981    12.000000000000
         C           -3.606272194989    -0.000031001879    -0.443407411981    12.000000000000
         H           -1.085116194989    -2.154548001879     0.371649588019     1.007825032230
         H           -1.085125194989     2.154595998121     0.371390588019     1.007825032230
         H           -3.467117194989    -2.152919001879    -0.389549411981     1.007825032230
         H           -3.467126194989     2.152863998121    -0.389808411981     1.007825032230
         H           -4.644205194989    -0.000052001879    -0.766505411981     1.007825032230

  Basis Set: AUG-CC-PVTZ
    Blend: AUG-CC-PVTZ
  Basis Set: (AUG-CC-PVTZ AUX)
    Blend: AUG-CC-PVTZ-JKFIT
	 Reference Energy          =   -1113.7776466269165212 [Eh]
	 Singles Energy            =      -0.0000000000000000 [Eh]
	 Same-Spin Energy          =      -0.7260334548392153 [Eh]
	 Opposite-Spin Energy      =      -2.0872903160606833 [Eh]
	 Correlation Energy        =      -2.8133237708998986 [Eh]
	 Total Energy              =   -1116.5909703978163634 [Eh]

	 ================> DF-SCS-MP2 Energies <==================
	-----------------------------------------------------------
	 SCS Same-Spin Scale       =       0.3333333333333333 [-]
	 SCS Opposite-Spin Scale   =       1.2000000000000000 [-]
	 SCS Same-Spin Energy      =      -0.2420111516130718 [Eh]
	 SCS Opposite-Spin Energy  =      -2.5047483792728200 [Eh]
	 SCS Correlation Energy    =      -2.7467595308858916 [Eh]
	 SCS Total Energy          =   -1116.5244061578023320 [Eh]
	-----------------------------------------------------------

  Dipole Moment: [D]
     X:    -4.6041      Y:    -0.0001      Z:    -2.2549     Total:     5.1266

*** Psi4 exiting successfully. Buy a developer a beer!
