                               Psi4 1.3.2 release

  ==> Input File <==

--------------------------------------------------------------------------
#psi4
#
memory 32 gb

molecule  {
0 1
  S        0.8137250     0.0000590     0.8799220
  F        1.3317230     1.0914540    -1.4540400
  F        2.9966120    -0.0000550    -0.5541220
  F        1.3316930    -1.0916270    -1.4539100
  O        1.1369530     1.2876430     1.4974560
  O        1.1369560    -1.2874430     1.4976250
  C       -0.9129605     0.0000319     0.4925549
  C        1.6764180    -0.0000490    -0.7553320
  C       -1.5228280    -1.2242020     0.1676730
  C       -1.5228330     1.2242230     0.1675260
  C       -2.8546580    -1.2129640    -0.2466500
  C       -2.8546630     1.2129290    -0.2467960
  C       -3.5156380    -0.0000320    -0.4592530
  H       -0.9944820    -2.1545490     0.3558040
  H       -0.9944910     2.1545950     0.3555450
  H       -3.3764830    -2.1529200    -0.4053950
  H       -3.3764920     2.1528630    -0.4056540
  H       -4.5535710    -0.0000530    -0.7823510
units angstrom
no_reorient  #important for SAPT in psi4, default
symmetry c1  #important for SAPT in psi4, default
}

set PROPERTIES_ORIGIN ["COM"]
properties('MP2/aug-cc-pvtz', properties = ['dipole'])
--------------------------------------------------------------------------

    Molecular point group: c1
  Charge       = 0
  Multiplicity = 1
  Basis Set: AUG-CC-PVTZ
    Blend: AUG-CC-PVTZ
  Basis Set: (AUG-CC-PVTZ AUX)
    Blend: AUG-CC-PVTZ-JKFIT

    Orbital Energies [Eh]
    ---------------------

    Doubly Occupied:

       1A    -92.218411     2A    -26.375782     3A    -26.375760
       4A    -26.374364     5A    -20.574061     6A    -20.574042
       7A    -11.557006     8A    -11.301448     9A    -11.289134
      10A    -11.289065    11A    -11.283987    12A    -11.273209
      13A    -11.273133    14A     -9.187213    15A     -6.871967
      16A     -6.871454    17A     -6.870988    18A     -1.761503
      19A     -1.669469    20A     -1.669181    21A     -1.467368
      22A     -1.359529    23A     -1.197475    24A     -1.084262
      25A     -1.057621    26A     -1.033429    27A     -0.937115
      28A     -0.875234    29A     -0.869125    30A     -0.855101
      31A     -0.853676    32A     -0.802369    33A     -0.750406
      34A     -0.740722    35A     -0.736820    36A     -0.700266
      37A     -0.699224    38A     -0.688907    39A     -0.682566
      40A     -0.676553    41A     -0.669393    42A     -0.651377
      43A     -0.644425    44A     -0.629602    45A     -0.562084
      46A     -0.546346    47A     -0.537125    48A     -0.524056
      49A     -0.515595    50A     -0.497726    51A     -0.470275
      52A     -0.389125    53A     -0.374917

  @DF-RHF Final Energy: -1113.77407120843372

   => Energetics <=

    Nuclear Repulsion Energy =            996.4810665768690114
    One-Electron Energy =               -3517.0282936489497843
    Two-Electron Energy =                1406.7731558636469344
    Total Energy =                      -1113.7740712084337247
  Basis Set: (AUG-CC-PVTZ AUX)
    Blend: AUG-CC-PVTZ-RI
    Molecular point group: c1

    Geometry (in Angstrom), charge = 0, multiplicity = 1:

       Center              X                  Y                   Z               Mass
    ------------   -----------------  -----------------  -----------------  -----------------
         S            0.725945136184     0.000059323823     0.885575073856    31.972071174400
         F            1.243943136184     1.091454323823    -1.448386926144    18.998403162730
         F            2.908832136184    -0.000054676177    -0.548468926144    18.998403162730
         F            1.243913136184    -1.091626676177    -1.448256926144    18.998403162730
         O            1.049173136184     1.287643323823     1.503109073856    15.994914619570
         O            1.049176136184    -1.287442676177     1.503278073856    15.994914619570
         C           -1.000740363816     0.000032223823     0.498207973856    12.000000000000
         C            1.588638136184    -0.000048676177    -0.749678926144    12.000000000000
         C           -1.610607863816    -1.224201676177     0.173326073856    12.000000000000
         C           -1.610612863816     1.224223323823     0.173179073856    12.000000000000
         C           -2.942437863816    -1.212963676177    -0.240996926144    12.000000000000
         C           -2.942442863816     1.212929323823    -0.241142926144    12.000000000000
         C           -3.603417863816    -0.000031676177    -0.453599926144    12.000000000000
         H           -1.082261863816    -2.154548676177     0.361457073856     1.007825032230
         H           -1.082270863816     2.154595323823     0.361198073856     1.007825032230
         H           -3.464262863816    -2.152919676177    -0.399741926144     1.007825032230
         H           -3.464271863816     2.152863323823    -0.400000926144     1.007825032230
         H           -4.641350863816    -0.000052676177    -0.776697926144     1.007825032230

  Basis Set: AUG-CC-PVTZ
    Blend: AUG-CC-PVTZ
  Basis Set: (AUG-CC-PVTZ AUX)
    Blend: AUG-CC-PVTZ-JKFIT
	 Reference Energy          =   -1113.7740712084337247 [Eh]
	 Singles Energy            =      -0.0000000000000000 [Eh]
	 Same-Spin Energy          =      -0.7258301118304442 [Eh]
	 Opposite-Spin Energy      =      -2.0872476330032868 [Eh]
	 Correlation Energy        =      -2.8130777448337310 [Eh]
	 Total Energy              =   -1116.5871489532673877 [Eh]

	 ================> DF-SCS-MP2 Energies <==================
	-----------------------------------------------------------
	 SCS Same-Spin Scale       =       0.3333333333333333 [-]
	 SCS Opposite-Spin Scale   =       1.2000000000000000 [-]
	 SCS Same-Spin Energy      =      -0.2419433706101481 [Eh]
	 SCS Opposite-Spin Energy  =      -2.5046971596039440 [Eh]
	 SCS Correlation Energy    =      -2.7466405302140919 [Eh]
	 SCS Total Energy          =   -1116.5207117386478330 [Eh]
	-----------------------------------------------------------

  Dipole Moment: [D]
     X:    -4.6452      Y:    -0.0002      Z:    -2.4352     Total:     5.2448

*** Psi4 exiting successfully. Buy a developer a beer!
