                               Psi4 1.3.2 release

  ==> Input File <==

--------------------------------------------------------------------------
#psi4
#
memory 32 gb

molecule  {
0 1
  S        0.8137250     0.0000590     0.8799220
  F        1.3317230     1.0914540    -1.4540400
  F        2.9966120    -0.0000550    -0.5541220
  F        1.3316930    -1.0916270    -1.4539100
  O        1.1846883     1.2710256     1.5050037
  O        1.1369560    -1.2874430     1.4976250
  C       -0.8817330     0.0000240     0.3730510
  C        1.6764180    -0.0000490    -0.7553320
  C       -1.5228280    -1.2242020     0.1676730
  C       -1.5228330     1.2242230     0.1675260
  C       -2.8546580    -1.2129640    -0.2466500
  C       -2.8546630     1.2129290    -0.2467960
  C       -3.5156380    -0.0000320    -0.4592530
  H       -0.9944820    -2.1545490     0.3558040
  H       -0.9944910     2.1545950     0.3555450
  H       -3.3764830    -2.1529200    -0.4053950
  H       -3.3764920     2.1528630    -0.4056540
  H       -4.5535710    -0.0000530    -0.7823510
units angstrom
no_reorient  #important for SAPT in psi4, default
symmetry c1  #important for SAPT in psi4, default
}

set PROPERTIES_ORIGIN ["COM"]
properties('MP2/aug-cc-pvtz', properties = ['dipole'])
--------------------------------------------------------------------------

    Molecular point group: c1
  Charge       = 0
  Multiplicity = 1
  Basis Set: AUG-CC-PVTZ
    Blend: AUG-CC-PVTZ
  Basis Set: (AUG-CC-PVTZ AUX)
    Blend: AUG-CC-PVTZ-JKFIT

    Orbital Energies [Eh]
    ---------------------

    Doubly Occupied:

       1A    -92.219163     2A    -26.373536     3A    -26.373257
       4A    -26.370653     5A    -20.576927     6A    -20.575277
       7A    -11.551977     8A    -11.302231     9A    -11.289166
      10A    -11.288976    11A    -11.283718    12A    -11.274068
      13A    -11.273982    14A     -9.187984    15A     -6.872844
      16A     -6.872087    17A     -6.871814    18A     -1.758823
      19A     -1.667246    20A     -1.666162    21A     -1.468646
      22A     -1.359761    23A     -1.200276    24A     -1.087260
      25A     -1.059260    26A     -1.031533    27A     -0.937796
      28A     -0.872686    29A     -0.871737    30A     -0.852535
      31A     -0.850872    32A     -0.803263    33A     -0.750661
      34A     -0.738499    35A     -0.735185    36A     -0.698534
      37A     -0.697061    38A     -0.688036    39A     -0.680187
      40A     -0.678019    41A     -0.669479    42A     -0.652623
      43A     -0.645433    44A     -0.631125    45A     -0.563543
      46A     -0.548199    47A     -0.538899    48A     -0.524514
      49A     -0.518724    50A     -0.498789    51A     -0.471328
      52A     -0.390230    53A     -0.376200

  @DF-RHF Final Energy: -1113.77896314841882

   => Energetics <=

    Nuclear Repulsion Energy =            997.1905767203579671
    One-Electron Energy =               -3518.4575114032904821
    Two-Electron Energy =                1407.4879715345136901
    Total Energy =                      -1113.7789631484188249
  Basis Set: (AUG-CC-PVTZ AUX)
    Blend: AUG-CC-PVTZ-RI
    Molecular point group: c1

    Geometry (in Angstrom), charge = 0, multiplicity = 1:

       Center              X                  Y                   Z               Mass
    ------------   -----------------  -----------------  -----------------  -----------------
         S            0.720524791160     0.001325483162     0.891829100184    31.972071174400
         F            1.238522791160     1.092720483162    -1.442132899816    18.998403162730
         F            2.903411791160     0.001211483162    -0.542214899816    18.998403162730
         F            1.238492791160    -1.090360516838    -1.442002899816    18.998403162730
         O            1.091488091160     1.272292083162     1.516910800184    15.994914619570
         O            1.043755791160    -1.286176516838     1.509532100184    15.994914619570
         C           -0.974933208840     0.001290483162     0.384958100184    12.000000000000
         C            1.583217791160     0.001217483162    -0.743424899816    12.000000000000
         C           -1.616028208840    -1.222935516838     0.179580100184    12.000000000000
         C           -1.616033208840     1.225489483162     0.179433100184    12.000000000000
         C           -2.947858208840    -1.211697516838    -0.234742899816    12.000000000000
         C           -2.947863208840     1.214195483162    -0.234888899816    12.000000000000
         C           -3.608838208840     0.001234483162    -0.447345899816    12.000000000000
         H           -1.087682208840    -2.153282516838     0.367711100184     1.007825032230
         H           -1.087691208840     2.155861483162     0.367452100184     1.007825032230
         H           -3.469683208840    -2.151653516838    -0.393487899816     1.007825032230
         H           -3.469692208840     2.154129483162    -0.393746899816     1.007825032230
         H           -4.646771208840     0.001213483162    -0.770443899816     1.007825032230

  Basis Set: AUG-CC-PVTZ
    Blend: AUG-CC-PVTZ
  Basis Set: (AUG-CC-PVTZ AUX)
    Blend: AUG-CC-PVTZ-JKFIT
	 Reference Energy          =   -1113.7789631484188249 [Eh]
	 Singles Energy            =      -0.0000000000000000 [Eh]
	 Same-Spin Energy          =      -0.7257444998652907 [Eh]
	 Opposite-Spin Energy      =      -2.0867162531970784 [Eh]
	 Correlation Energy        =      -2.8124607530623691 [Eh]
	 Total Energy              =   -1116.5914239014812210 [Eh]

	 ================> DF-SCS-MP2 Energies <==================
	-----------------------------------------------------------
	 SCS Same-Spin Scale       =       0.3333333333333333 [-]
	 SCS Opposite-Spin Scale   =       1.2000000000000000 [-]
	 SCS Same-Spin Energy      =      -0.2419148332884302 [Eh]
	 SCS Opposite-Spin Energy  =      -2.5040595038364941 [Eh]
	 SCS Correlation Energy    =      -2.7459743371249243 [Eh]
	 SCS Total Energy          =   -1116.5249374855436599 [Eh]
	-----------------------------------------------------------

  Dipole Moment: [D]
     X:    -4.7563      Y:     0.0307      Z:    -2.3364     Total:     5.2993

*** Psi4 exiting successfully. Buy a developer a beer!
