                               Psi4 1.3.2 release

  ==> Input File <==

--------------------------------------------------------------------------
#psi4
#
memory 32 gb

molecule  {
0 1
  S        0.8137250     0.0000590     0.8799220
  F        1.3317230     1.0914540    -1.4540400
  F        2.9966120    -0.0000550    -0.5541220
  F        1.3316930    -1.0916270    -1.4539100
  O        1.1369530     1.2876430     1.4974560
  O        1.1369560    -1.2874430     1.4976250
  C       -0.8194627     0.0000125     0.1986041
  C        1.6764180    -0.0000490    -0.7553320
  C       -1.5228280    -1.2242020     0.1676730
  C       -1.5228330     1.2242230     0.1675260
  C       -2.8546580    -1.2129640    -0.2466500
  C       -2.8546630     1.2129290    -0.2467960
  C       -3.5156380    -0.0000320    -0.4592530
  H       -0.9944820    -2.1545490     0.3558040
  H       -0.9944910     2.1545950     0.3555450
  H       -3.3764830    -2.1529200    -0.4053950
  H       -3.3764920     2.1528630    -0.4056540
  H       -4.5535710    -0.0000530    -0.7823510
units angstrom
no_reorient  #important for SAPT in psi4, default
symmetry c1  #important for SAPT in psi4, default
}

set PROPERTIES_ORIGIN ["COM"]
properties('MP2/aug-cc-pvtz', properties = ['dipole'])
--------------------------------------------------------------------------

    Molecular point group: c1
  Charge       = 0
  Multiplicity = 1
  Basis Set: AUG-CC-PVTZ
    Blend: AUG-CC-PVTZ
  Basis Set: (AUG-CC-PVTZ AUX)
    Blend: AUG-CC-PVTZ-JKFIT

    Orbital Energies [Eh]
    ---------------------

    Doubly Occupied:

       1A    -92.220263     2A    -26.370865     3A    -26.370844
       4A    -26.366356     5A    -20.581099     6A    -20.581080
       7A    -11.546228     8A    -11.301979     9A    -11.291209
      10A    -11.291136    11A    -11.284189    12A    -11.272616
      13A    -11.272544    14A     -9.188965    15A     -6.873995
      16A     -6.872916    17A     -6.872838    18A     -1.755955
      19A     -1.664789    20A     -1.663000    21A     -1.470897
      22A     -1.364071    23A     -1.197148    24A     -1.087709
      25A     -1.057266    26A     -1.028561    27A     -0.937129
      28A     -0.869021    29A     -0.868168    30A     -0.849708
      31A     -0.847607    32A     -0.801019    33A     -0.750661
      34A     -0.736118    35A     -0.733100    36A     -0.697165
      37A     -0.694843    38A     -0.686735    39A     -0.677855
      40A     -0.675648    41A     -0.669244    42A     -0.652574
      43A     -0.646322    44A     -0.629744    45A     -0.563851
      46A     -0.543711    47A     -0.536468    48A     -0.527801
      49A     -0.523518    50A     -0.503742    51A     -0.469845
      52A     -0.388231    53A     -0.373686

  @DF-RHF Final Energy: -1113.76810040020609

   => Energetics <=

    Nuclear Repulsion Energy =            998.1674763955031722
    One-Electron Energy =               -3520.4670859341185860
    Two-Electron Energy =                1408.5315091384090920
    Total Energy =                      -1113.7681004002060945
  Basis Set: (AUG-CC-PVTZ AUX)
    Blend: AUG-CC-PVTZ-RI
    Molecular point group: c1

    Geometry (in Angstrom), charge = 0, multiplicity = 1:

       Center              X                  Y                   Z               Mass
    ------------   -----------------  -----------------  -----------------  -----------------
         S            0.720602308968     0.000060432414     0.902372563577    31.972071174400
         F            1.238600308968     1.091455432414    -1.431589436423    18.998403162730
         F            2.903489308968    -0.000053567586    -0.531671436423    18.998403162730
         F            1.238570308968    -1.091625567586    -1.431459436423    18.998403162730
         O            1.043830308968     1.287644432414     1.519906563577    15.994914619570
         O            1.043833308968    -1.287441567586     1.520075563577    15.994914619570
         C           -0.912585391032     0.000013932414     0.221054663577    12.000000000000
         C            1.583295308968    -0.000047567586    -0.732881436423    12.000000000000
         C           -1.615950691032    -1.224200567586     0.190123563577    12.000000000000
         C           -1.615955691032     1.224224432414     0.189976563577    12.000000000000
         C           -2.947780691032    -1.212962567586    -0.224199436423    12.000000000000
         C           -2.947785691032     1.212930432414    -0.224345436423    12.000000000000
         C           -3.608760691032    -0.000030567586    -0.436802436423    12.000000000000
         H           -1.087604691032    -2.154547567586     0.378254563577     1.007825032230
         H           -1.087613691032     2.154596432414     0.377995563577     1.007825032230
         H           -3.469605691032    -2.152918567586    -0.382944436423     1.007825032230
         H           -3.469614691032     2.152864432414    -0.383203436423     1.007825032230
         H           -4.646693691032    -0.000051567586    -0.759900436423     1.007825032230

  Basis Set: AUG-CC-PVTZ
    Blend: AUG-CC-PVTZ
  Basis Set: (AUG-CC-PVTZ AUX)
    Blend: AUG-CC-PVTZ-JKFIT
	 Reference Energy          =   -1113.7681004002060945 [Eh]
	 Singles Energy            =      -0.0000000000000000 [Eh]
	 Same-Spin Energy          =      -0.7266573197332920 [Eh]
	 Opposite-Spin Energy      =      -2.0890329994447741 [Eh]
	 Correlation Energy        =      -2.8156903191780662 [Eh]
	 Total Energy              =   -1116.5837907193840692 [Eh]

	 ================> DF-SCS-MP2 Energies <==================
	-----------------------------------------------------------
	 SCS Same-Spin Scale       =       0.3333333333333333 [-]
	 SCS Opposite-Spin Scale   =       1.2000000000000000 [-]
	 SCS Same-Spin Energy      =      -0.2422191065777640 [Eh]
	 SCS Opposite-Spin Energy  =      -2.5068395993337287 [Eh]
	 SCS Correlation Energy    =      -2.7490587059114926 [Eh]
	 SCS Total Energy          =   -1116.5171591061175604 [Eh]
	-----------------------------------------------------------

  Dipole Moment: [D]
     X:    -4.6592      Y:    -0.0001      Z:    -2.1545     Total:     5.1332

*** Psi4 exiting successfully. Buy a developer a beer!
