                               Psi4 1.3.2 release

  ==> Input File <==

--------------------------------------------------------------------------
#psi4
#
memory 32 gb

molecule  {
0 1
  S        0.8137250     0.0000590     0.8799220
  F        1.3317230     1.0914540    -1.4540400
  F        2.9966120    -0.0000550    -0.5541220
  F        1.3316930    -1.0916270    -1.4539100
  O        1.1264844     1.2996114     1.4774521
  O        1.1369560    -1.2874430     1.4976250
  C       -0.8817330     0.0000240     0.3730510
  C        1.6764180    -0.0000490    -0.7553320
  C       -1.5228280    -1.2242020     0.1676730
  C       -1.5228330     1.2242230     0.1675260
  C       -2.8546580    -1.2129640    -0.2466500
  C       -2.8546630     1.2129290    -0.2467960
  C       -3.5156380    -0.0000320    -0.4592530
  H       -0.9944820    -2.1545490     0.3558040
  H       -0.9944910     2.1545950     0.3555450
  H       -3.3764830    -2.1529200    -0.4053950
  H       -3.3764920     2.1528630    -0.4056540
  H       -4.5535710    -0.0000530    -0.7823510
units angstrom
no_reorient  #important for SAPT in psi4, default
symmetry c1  #important for SAPT in psi4, default
}

set PROPERTIES_ORIGIN ["COM"]
properties('MP2/aug-cc-pvtz', properties = ['dipole'])
--------------------------------------------------------------------------

    Molecular point group: c1
  Charge       = 0
  Multiplicity = 1
  Basis Set: AUG-CC-PVTZ
    Blend: AUG-CC-PVTZ
  Basis Set: (AUG-CC-PVTZ AUX)
    Blend: AUG-CC-PVTZ-JKFIT

    Orbital Energies [Eh]
    ---------------------

    Doubly Occupied:

       1A    -92.219947     2A    -26.373774     3A    -26.373732
       4A    -26.371482     5A    -20.578944     6A    -20.577621
       7A    -11.552792     8A    -11.299693     9A    -11.287245
      10A    -11.287110    11A    -11.282244    12A    -11.272585
      13A    -11.272497    14A     -9.188687    15A     -6.873547
      16A     -6.872844    17A     -6.872492    18A     -1.759338
      19A     -1.667528    20A     -1.666898    21A     -1.469702
      22A     -1.363312    23A     -1.198416    24A     -1.085350
      25A     -1.057646    26A     -1.031737    27A     -0.937196
      28A     -0.872504    29A     -0.870097    30A     -0.852970
      31A     -0.851313    32A     -0.802770    33A     -0.751037
      34A     -0.738865    35A     -0.735403    36A     -0.698656
      37A     -0.697462    38A     -0.687562    39A     -0.680633
      40A     -0.677667    41A     -0.670153    42A     -0.651609
      43A     -0.646838    44A     -0.629739    45A     -0.561954
      46A     -0.546520    47A     -0.537459    48A     -0.527432
      49A     -0.519087    50A     -0.501845    51A     -0.470929
      52A     -0.388553    53A     -0.374686

  @DF-RHF Final Energy: -1113.77850507942503

   => Energetics <=

    Nuclear Repulsion Energy =            997.6522444196399420
    One-Electron Energy =               -3519.3852939737298584
    Two-Electron Energy =                1407.9545444746649991
    Total Energy =                      -1113.7785050794250310
  Basis Set: (AUG-CC-PVTZ AUX)
    Blend: AUG-CC-PVTZ-RI
    Molecular point group: c1

    Geometry (in Angstrom), charge = 0, multiplicity = 1:

       Center              X                  Y                   Z               Mass
    ------------   -----------------  -----------------  -----------------  -----------------
         S            0.724958044026    -0.000851829351     0.893927640139    31.972071174400
         F            1.242956044026     1.090543170649    -1.440034359861    18.998403162730
         F            2.907845044026    -0.000965829351    -0.540116359861    18.998403162730
         F            1.242926044026    -1.092537829351    -1.439904359861    18.998403162730
         O            1.037717444026     1.298700570649     1.491457740139    15.994914619570
         O            1.048189044026    -1.288353829351     1.511630640139    15.994914619570
         C           -0.970499955974    -0.000886829351     0.387056640139    12.000000000000
         C            1.587651044026    -0.000959829351    -0.741326359861    12.000000000000
         C           -1.611594955974    -1.225112829351     0.181678640139    12.000000000000
         C           -1.611599955974     1.223312170649     0.181531640139    12.000000000000
         C           -2.943424955974    -1.213874829351    -0.232644359861    12.000000000000
         C           -2.943429955974     1.212018170649    -0.232790359861    12.000000000000
         C           -3.604404955974    -0.000942829351    -0.445247359861    12.000000000000
         H           -1.083248955974    -2.155459829351     0.369809640139     1.007825032230
         H           -1.083257955974     2.153684170649     0.369550640139     1.007825032230
         H           -3.465249955974    -2.153830829351    -0.391389359861     1.007825032230
         H           -3.465258955974     2.151952170649    -0.391648359861     1.007825032230
         H           -4.642337955974    -0.000963829351    -0.768345359861     1.007825032230

  Basis Set: AUG-CC-PVTZ
    Blend: AUG-CC-PVTZ
  Basis Set: (AUG-CC-PVTZ AUX)
    Blend: AUG-CC-PVTZ-JKFIT
	 Reference Energy          =   -1113.7785050794250310 [Eh]
	 Singles Energy            =      -0.0000000000000000 [Eh]
	 Same-Spin Energy          =      -0.7259503526742946 [Eh]
	 Opposite-Spin Energy      =      -2.0870697301134733 [Eh]
	 Correlation Energy        =      -2.8130200827877681 [Eh]
	 Total Energy              =   -1116.5915251622127471 [Eh]

	 ================> DF-SCS-MP2 Energies <==================
	-----------------------------------------------------------
	 SCS Same-Spin Scale       =       0.3333333333333333 [-]
	 SCS Opposite-Spin Scale   =       1.2000000000000000 [-]
	 SCS Same-Spin Energy      =      -0.2419834508914315 [Eh]
	 SCS Opposite-Spin Energy  =      -2.5044836761361680 [Eh]
	 SCS Correlation Energy    =      -2.7464671270275995 [Eh]
	 SCS Total Energy          =   -1116.5249722064527305 [Eh]
	-----------------------------------------------------------

  Dipole Moment: [D]
     X:    -4.5674      Y:    -0.0243      Z:    -2.2622     Total:     5.0970

*** Psi4 exiting successfully. Buy a developer a beer!
