                               Psi4 1.3.2 release

  ==> Input File <==

--------------------------------------------------------------------------
#psi4
#
memory 32 gb

molecule  {
0 1
  S        0.8137250     0.0000590     0.8799220
  F        1.3317230     1.0914540    -1.4540400
  F        2.9966120    -0.0000550    -0.5541220
  F        1.3316930    -1.0916270    -1.4539100
  O        1.1369530     1.2876430     1.4974560
  O        1.1369560    -1.2874430     1.4976250
  C       -0.8422454     0.0000163     0.2560165
  C        1.6764180    -0.0000490    -0.7553320
  C       -1.5228280    -1.2242020     0.1676730
  C       -1.5228330     1.2242230     0.1675260
  C       -2.8546580    -1.2129640    -0.2466500
  C       -2.8546630     1.2129290    -0.2467960
  C       -3.5156380    -0.0000320    -0.4592530
  H       -0.9944820    -2.1545490     0.3558040
  H       -0.9944910     2.1545950     0.3555450
  H       -3.3764830    -2.1529200    -0.4053950
  H       -3.3764920     2.1528630    -0.4056540
  H       -4.5535710    -0.0000530    -0.7823510
units angstrom
no_reorient  #important for SAPT in psi4, default
symmetry c1  #important for SAPT in psi4, default
}

set PROPERTIES_ORIGIN ["COM"]
properties('MP2/aug-cc-pvtz', properties = ['dipole'])
--------------------------------------------------------------------------

    Molecular point group: c1
  Charge       = 0
  Multiplicity = 1
  Basis Set: AUG-CC-PVTZ
    Blend: AUG-CC-PVTZ
  Basis Set: (AUG-CC-PVTZ AUX)
    Blend: AUG-CC-PVTZ-JKFIT

    Orbital Energies [Eh]
    ---------------------

    Doubly Occupied:

       1A    -92.220256     2A    -26.372114     3A    -26.372093
       4A    -26.368316     5A    -20.580098     6A    -20.580078
       7A    -11.548776     8A    -11.300970     9A    -11.289264
      10A    -11.289191    11A    -11.283131    12A    -11.272696
      13A    -11.272617    14A     -9.188988    15A     -6.873964
      16A     -6.872999    17A     -6.872844    18A     -1.757339
      19A     -1.665970    20A     -1.664543    21A     -1.470561
      22A     -1.363527    23A     -1.198204    24A     -1.087228
      25A     -1.057674    26A     -1.029975    27A     -0.937442
      28A     -0.870270    29A     -0.869480    30A     -0.851057
      31A     -0.849077    32A     -0.801939    33A     -0.750930
      34A     -0.737256    35A     -0.734068    36A     -0.697661
      37A     -0.695950    38A     -0.687091    39A     -0.678990
      40A     -0.676762    41A     -0.669860    42A     -0.652304
      43A     -0.646643    44A     -0.629996    45A     -0.563221
      46A     -0.545283    47A     -0.537237    48A     -0.527479
      49A     -0.522144    50A     -0.502892    51A     -0.470725
      52A     -0.388496    53A     -0.374318

  @DF-RHF Final Energy: -1113.77411696908030

   => Energetics <=

    Nuclear Repulsion Energy =            997.9946681456157194
    One-Electron Energy =               -3520.0935971362641794
    Two-Electron Energy =                1408.3248120215680501
    Total Energy =                      -1113.7741169690802963
  Basis Set: (AUG-CC-PVTZ AUX)
    Blend: AUG-CC-PVTZ-RI
    Molecular point group: c1

    Geometry (in Angstrom), charge = 0, multiplicity = 1:

       Center              X                  Y                   Z               Mass
    ------------   -----------------  -----------------  -----------------  -----------------
         S            0.721904200880     0.000060215268     0.899091796187    31.972071174400
         F            1.239902200880     1.091455215268    -1.434870203813    18.998403162730
         F            2.904791200880    -0.000053784732    -0.534952203813    18.998403162730
         F            1.239872200880    -1.091625784732    -1.434740203813    18.998403162730
         O            1.045132200880     1.287644215268     1.516625796187    15.994914619570
         O            1.045135200880    -1.287441784732     1.516794796187    15.994914619570
         C           -0.934066199120     0.000017515268     0.275186296187    12.000000000000
         C            1.584597200880    -0.000047784732    -0.736162203813    12.000000000000
         C           -1.614648799120    -1.224200784732     0.186842796187    12.000000000000
         C           -1.614653799120     1.224224215268     0.186695796187    12.000000000000
         C           -2.946478799120    -1.212962784732    -0.227480203813    12.000000000000
         C           -2.946483799120     1.212930215268    -0.227626203813    12.000000000000
         C           -3.607458799120    -0.000030784732    -0.440083203813    12.000000000000
         H           -1.086302799120    -2.154547784732     0.374973796187     1.007825032230
         H           -1.086311799120     2.154596215268     0.374714796187     1.007825032230
         H           -3.468303799120    -2.152918784732    -0.386225203813     1.007825032230
         H           -3.468312799120     2.152864215268    -0.386484203813     1.007825032230
         H           -4.645391799120    -0.000051784732    -0.763181203813     1.007825032230

  Basis Set: AUG-CC-PVTZ
    Blend: AUG-CC-PVTZ
  Basis Set: (AUG-CC-PVTZ AUX)
    Blend: AUG-CC-PVTZ-JKFIT
	 Reference Energy          =   -1113.7741169690802963 [Eh]
	 Singles Energy            =      -0.0000000000000000 [Eh]
	 Same-Spin Energy          =      -0.7262953411390340 [Eh]
	 Opposite-Spin Energy      =      -2.0880060434178271 [Eh]
	 Correlation Energy        =      -2.8143013845568614 [Eh]
	 Total Energy              =   -1116.5884183536370529 [Eh]

	 ================> DF-SCS-MP2 Energies <==================
	-----------------------------------------------------------
	 SCS Same-Spin Scale       =       0.3333333333333333 [-]
	 SCS Opposite-Spin Scale   =       1.2000000000000000 [-]
	 SCS Same-Spin Energy      =      -0.2420984470463447 [Eh]
	 SCS Opposite-Spin Energy  =      -2.5056072521013926 [Eh]
	 SCS Correlation Energy    =      -2.7477056991477373 [Eh]
	 SCS Total Energy          =   -1116.5218226682279692 [Eh]
	-----------------------------------------------------------

  Dipole Moment: [D]
     X:    -4.6233      Y:    -0.0001      Z:    -2.2023     Total:     5.1211

*** Psi4 exiting successfully. Buy a developer a beer!
