                               Psi4 1.3.2 release

  ==> Input File <==

--------------------------------------------------------------------------
#psi4
#
memory 32 gb

molecule  {
0 1
  S        0.8137250     0.0000590     0.8799220
  F        1.3317230     1.0914540    -1.4540400
  F        2.9966120    -0.0000550    -0.5541220
  F        1.3316930    -1.0916270    -1.4539100
  O        1.1369530     1.2876430     1.4974560
  O        1.1369560    -1.2874430     1.4976250
  C       -0.8817330     0.0000240     0.3730510
  C        1.6297573    -0.0000432    -0.6668855
  C       -1.5228280    -1.2242020     0.1676730
  C       -1.5228330     1.2242230     0.1675260
  C       -2.8546580    -1.2129640    -0.2466500
  C       -2.8546630     1.2129290    -0.2467960
  C       -3.5156380    -0.0000320    -0.4592530
  H       -0.9944820    -2.1545490     0.3558040
  H       -0.9944910     2.1545950     0.3555450
  H       -3.3764830    -2.1529200    -0.4053950
  H       -3.3764920     2.1528630    -0.4056540
  H       -4.5535710    -0.0000530    -0.7823510
units angstrom
no_reorient  #important for SAPT in psi4, default
symmetry c1  #important for SAPT in psi4, default
}

set PROPERTIES_ORIGIN ["COM"]
properties('MP2/aug-cc-pvtz', properties = ['dipole'])
--------------------------------------------------------------------------

    Molecular point group: c1
  Charge       = 0
  Multiplicity = 1
  Basis Set: AUG-CC-PVTZ
    Blend: AUG-CC-PVTZ
  Basis Set: (AUG-CC-PVTZ AUX)
    Blend: AUG-CC-PVTZ-JKFIT

    Orbital Energies [Eh]
    ---------------------

    Doubly Occupied:

       1A    -92.230034     2A    -26.365141     3A    -26.365119
       4A    -26.363136     5A    -20.584846     6A    -20.584827
       7A    -11.556213     8A    -11.304486     9A    -11.291512
      10A    -11.291441    11A    -11.285933    12A    -11.275639
      13A    -11.275560    14A     -9.199551    15A     -6.884807
      16A     -6.883626    17A     -6.883265    18A     -1.737012
      19A     -1.646099    20A     -1.645554    21A     -1.480176
      22A     -1.369916    23A     -1.202805    24A     -1.099110
      25A     -1.061200    26A     -1.047437    27A     -0.933533
      28A     -0.873983    29A     -0.873845    30A     -0.831143
      31A     -0.830675    32A     -0.801693    33A     -0.752733
      34A     -0.728175    35A     -0.726405    36A     -0.694604
      37A     -0.684044    38A     -0.679839    39A     -0.679042
      40A     -0.678136    41A     -0.668884    42A     -0.655140
      43A     -0.652107    44A     -0.633123    45A     -0.566324
      46A     -0.550588    47A     -0.541103    48A     -0.533622
      49A     -0.531572    50A     -0.507292    51A     -0.487001
      52A     -0.393007    53A     -0.377845

  @DF-RHF Final Energy: -1113.76212128283464

   => Energetics <=

    Nuclear Repulsion Energy =            998.4567640364031149
    One-Electron Energy =               -3520.8779635222363140
    Two-Electron Energy =                1408.6590782029986713
    Total Energy =                      -1113.7621212828346415
  Basis Set: (AUG-CC-PVTZ AUX)
    Blend: AUG-CC-PVTZ-RI
    Molecular point group: c1

    Geometry (in Angstrom), charge = 0, multiplicity = 1:

       Center              X                  Y                   Z               Mass
    ------------   -----------------  -----------------  -----------------  -----------------
         S            0.726827049138     0.000059443825     0.887349814245    31.972071174400
         F            1.244825049138     1.091454443825    -1.446612185755    18.998403162730
         F            2.909714049138    -0.000054556175    -0.546694185755    18.998403162730
         F            1.244795049138    -1.091626556175    -1.446482185755    18.998403162730
         O            1.050055049138     1.287643443825     1.504883814245    15.994914619570
         O            1.050058049138    -1.287442556175     1.505052814245    15.994914619570
         C           -0.968630950862     0.000024443825     0.380478814245    12.000000000000
         C            1.542859349138    -0.000042756175    -0.659457685755    12.000000000000
         C           -1.609725950862    -1.224201556175     0.175100814245    12.000000000000
         C           -1.609730950862     1.224223443825     0.174953814245    12.000000000000
         C           -2.941555950862    -1.212963556175    -0.239222185755    12.000000000000
         C           -2.941560950862     1.212929443825    -0.239368185755    12.000000000000
         C           -3.602535950862    -0.000031556175    -0.451825185755    12.000000000000
         H           -1.081379950862    -2.154548556175     0.363231814245     1.007825032230
         H           -1.081388950862     2.154595443825     0.362972814245     1.007825032230
         H           -3.463380950862    -2.152919556175    -0.397967185755     1.007825032230
         H           -3.463389950862     2.152863443825    -0.398226185755     1.007825032230
         H           -4.640468950862    -0.000052556175    -0.774923185755     1.007825032230

  Basis Set: AUG-CC-PVTZ
    Blend: AUG-CC-PVTZ
  Basis Set: (AUG-CC-PVTZ AUX)
    Blend: AUG-CC-PVTZ-JKFIT
	 Reference Energy          =   -1113.7621212828346415 [Eh]
	 Singles Energy            =      -0.0000000000000000 [Eh]
	 Same-Spin Energy          =      -0.7269388877145844 [Eh]
	 Opposite-Spin Energy      =      -2.0905387991264579 [Eh]
	 Correlation Energy        =      -2.8174776868410421 [Eh]
	 Total Energy              =   -1116.5795989696757715 [Eh]

	 ================> DF-SCS-MP2 Energies <==================
	-----------------------------------------------------------
	 SCS Same-Spin Scale       =       0.3333333333333333 [-]
	 SCS Opposite-Spin Scale   =       1.2000000000000000 [-]
	 SCS Same-Spin Energy      =      -0.2423129625715281 [Eh]
	 SCS Opposite-Spin Energy  =      -2.5086465589517495 [Eh]
	 SCS Correlation Energy    =      -2.7509595215232778 [Eh]
	 SCS Total Energy          =   -1116.5130808043579691 [Eh]
	-----------------------------------------------------------

  Dipole Moment: [D]
     X:    -5.0644      Y:    -0.0001      Z:    -1.7973     Total:     5.3738

*** Psi4 exiting successfully. Buy a developer a beer!
