                               Psi4 1.3.2 release

  ==> Input File <==

--------------------------------------------------------------------------
#psi4
#
memory 32 gb

molecule  {
0 1
  S        0.8128832    -0.0616957     0.8789784
  F        1.3317230     1.0914540    -1.4540400
  F        2.9966120    -0.0000550    -0.5541220
  F        1.3316930    -1.0916270    -1.4539100
  O        1.1369530     1.2876430     1.4974560
  O        1.1369560    -1.2874430     1.4976250
  C       -0.8817330     0.0000240     0.3730510
  C        1.6764180    -0.0000490    -0.7553320
  C       -1.5228280    -1.2242020     0.1676730
  C       -1.5228330     1.2242230     0.1675260
  C       -2.8546580    -1.2129640    -0.2466500
  C       -2.8546630     1.2129290    -0.2467960
  C       -3.5156380    -0.0000320    -0.4592530
  H       -0.9944820    -2.1545490     0.3558040
  H       -0.9944910     2.1545950     0.3555450
  H       -3.3764830    -2.1529200    -0.4053950
  H       -3.3764920     2.1528630    -0.4056540
  H       -4.5535710    -0.0000530    -0.7823510
units angstrom
no_reorient  #important for SAPT in psi4, default
symmetry c1  #important for SAPT in psi4, default
}

set PROPERTIES_ORIGIN ["COM"]
properties('MP2/aug-cc-pvtz', properties = ['dipole'])
--------------------------------------------------------------------------

    Molecular point group: c1
  Charge       = 0
  Multiplicity = 1
  Basis Set: AUG-CC-PVTZ
    Blend: AUG-CC-PVTZ
  Basis Set: (AUG-CC-PVTZ AUX)
    Blend: AUG-CC-PVTZ-JKFIT

    Orbital Energies [Eh]
    ---------------------

    Doubly Occupied:

       1A    -92.218264     2A    -26.374307     3A    -26.373951
       4A    -26.371654     5A    -20.589181     6A    -20.565107
       7A    -11.553290     8A    -11.300388     9A    -11.287819
      10A    -11.287466    11A    -11.282574    12A    -11.272974
      13A    -11.272886    14A     -9.187761    15A     -6.872519
      16A     -6.872063    17A     -6.871377    18A     -1.759656
      19A     -1.668110    20A     -1.666924    21A     -1.484312
      22A     -1.348450    23A     -1.198840    24A     -1.086029
      25A     -1.058018    26A     -1.032025    27A     -0.937652
      28A     -0.873387    29A     -0.870126    30A     -0.853266
      31A     -0.851512    32A     -0.803159    33A     -0.751762
      34A     -0.739340    35A     -0.735635    36A     -0.699270
      37A     -0.697889    38A     -0.689479    39A     -0.680933
      40A     -0.678861    41A     -0.672796    42A     -0.652545
      43A     -0.646914    44A     -0.629932    45A     -0.564608
      46A     -0.547759    47A     -0.538130    48A     -0.526673
      49A     -0.519082    50A     -0.493222    51A     -0.467721
      52A     -0.388880    53A     -0.375052

  @DF-RHF Final Energy: -1113.77207462989418

   => Energetics <=

    Nuclear Repulsion Energy =            997.4851740737203727
    One-Electron Energy =               -3519.0314449098209479
    Two-Electron Energy =                1407.7741962062063976
    Total Energy =                      -1113.7720746298941776
  Basis Set: (AUG-CC-PVTZ AUX)
    Blend: AUG-CC-PVTZ-RI
    Molecular point group: c1

    Geometry (in Angstrom), charge = 0, multiplicity = 1:

       Center              X                  Y                   Z               Mass
    ------------   -----------------  -----------------  -----------------  -----------------
         S            0.723447040249    -0.052292729205     0.891604054321    31.972071174400
         F            1.242286840249     1.100856970795    -1.441414345679    18.998403162730
         F            2.907175840249     0.009347970795    -0.541496345679    18.998403162730
         F            1.242256840249    -1.082224029205    -1.441284345679    18.998403162730
         O            1.047516840249     1.297045970795     1.510081654321    15.994914619570
         O            1.047519840249    -1.278040029205     1.510250654321    15.994914619570
         C           -0.971169159751     0.009426970795     0.385676654321    12.000000000000
         C            1.586981840249     0.009353970795    -0.742706345679    12.000000000000
         C           -1.612264159751    -1.214799029205     0.180298654321    12.000000000000
         C           -1.612269159751     1.233625970795     0.180151654321    12.000000000000
         C           -2.944094159751    -1.203561029205    -0.234024345679    12.000000000000
         C           -2.944099159751     1.222331970795    -0.234170345679    12.000000000000
         C           -3.605074159751     0.009370970795    -0.446627345679    12.000000000000
         H           -1.083918159751    -2.145146029205     0.368429654321     1.007825032230
         H           -1.083927159751     2.163997970795     0.368170654321     1.007825032230
         H           -3.465919159751    -2.143517029205    -0.392769345679     1.007825032230
         H           -3.465928159751     2.162265970795    -0.393028345679     1.007825032230
         H           -4.643007159751     0.009349970795    -0.769725345679     1.007825032230

  Basis Set: AUG-CC-PVTZ
    Blend: AUG-CC-PVTZ
  Basis Set: (AUG-CC-PVTZ AUX)
    Blend: AUG-CC-PVTZ-JKFIT
	 Reference Energy          =   -1113.7720746298941776 [Eh]
	 Singles Energy            =      -0.0000000000000000 [Eh]
	 Same-Spin Energy          =      -0.7257128028558353 [Eh]
	 Opposite-Spin Energy      =      -2.0867880899152156 [Eh]
	 Correlation Energy        =      -2.8125008927710509 [Eh]
	 Total Energy              =   -1116.5845755226653182 [Eh]

	 ================> DF-SCS-MP2 Energies <==================
	-----------------------------------------------------------
	 SCS Same-Spin Scale       =       0.3333333333333333 [-]
	 SCS Opposite-Spin Scale   =       1.2000000000000000 [-]
	 SCS Same-Spin Energy      =      -0.2419042676186118 [Eh]
	 SCS Opposite-Spin Energy  =      -2.5041457078982585 [Eh]
	 SCS Correlation Energy    =      -2.7460499755168701 [Eh]
	 SCS Total Energy          =   -1116.5181246054110034 [Eh]
	-----------------------------------------------------------

  Dipole Moment: [D]
     X:    -4.6144      Y:    -0.4841      Z:    -2.3282     Total:     5.1911

*** Psi4 exiting successfully. Buy a developer a beer!
