                               Psi4 1.3.2 release

  ==> Input File <==

--------------------------------------------------------------------------
#psi4
#
memory 32 gb

molecule  {
0 1
  S        0.8729056    -0.1116018     0.9060586
  F        1.3317230     1.0914540    -1.4540400
  F        2.9966120    -0.0000550    -0.5541220
  F        1.3316930    -1.0916270    -1.4539100
  O        1.1369530     1.2876430     1.4974560
  O        1.1369560    -1.2874430     1.4976250
  C       -0.8817330     0.0000240     0.3730510
  C        1.6764180    -0.0000490    -0.7553320
  C       -1.5228280    -1.2242020     0.1676730
  C       -1.5228330     1.2242230     0.1675260
  C       -2.8546580    -1.2129640    -0.2466500
  C       -2.8546630     1.2129290    -0.2467960
  C       -3.5156380    -0.0000320    -0.4592530
  H       -0.9944820    -2.1545490     0.3558040
  H       -0.9944910     2.1545950     0.3555450
  H       -3.3764830    -2.1529200    -0.4053950
  H       -3.3764920     2.1528630    -0.4056540
  H       -4.5535710    -0.0000530    -0.7823510
units angstrom
no_reorient  #important for SAPT in psi4, default
symmetry c1  #important for SAPT in psi4, default
}

set PROPERTIES_ORIGIN ["COM"]
properties('MP2/aug-cc-pvtz', properties = ['dipole'])
--------------------------------------------------------------------------

    Molecular point group: c1
  Charge       = 0
  Multiplicity = 1
  Basis Set: AUG-CC-PVTZ
    Blend: AUG-CC-PVTZ
  Basis Set: (AUG-CC-PVTZ AUX)
    Blend: AUG-CC-PVTZ-JKFIT

    Orbital Energies [Eh]
    ---------------------

    Doubly Occupied:

       1A    -92.215936     2A    -26.375998     3A    -26.375335
       4A    -26.372271     5A    -20.605171     6A    -20.562310
       7A    -11.554249     8A    -11.297343     9A    -11.280747
      10A    -11.280093    11A    -11.275658    12A    -11.268339
      13A    -11.268201    14A     -9.187382    15A     -6.872476
      16A     -6.871635    17A     -6.870574    18A     -1.761044
      19A     -1.669614    20A     -1.668122    21A     -1.533038
      22A     -1.343946    23A     -1.190750    24A     -1.074353
      25A     -1.052084    26A     -1.032039    27A     -0.932088
      28A     -0.870506    29A     -0.863464    30A     -0.854494
      31A     -0.850738    32A     -0.802770    33A     -0.755693
      34A     -0.740225    35A     -0.736075    36A     -0.701049
      37A     -0.699802    38A     -0.692939    39A     -0.688199
      40A     -0.682098    41A     -0.681726    42A     -0.653896
      43A     -0.651003    44A     -0.624505    45A     -0.568754
      46A     -0.546277    47A     -0.535009    48A     -0.531541
      49A     -0.520711    50A     -0.492660    51A     -0.457829
      52A     -0.381174    53A     -0.369948

  @DF-RHF Final Energy: -1113.75145328226199

   => Energetics <=

    Nuclear Repulsion Energy =            996.8106407651779364
    One-Electron Energy =               -3517.6364231601428401
    Two-Electron Energy =                1407.0743291127027987
    Total Energy =                      -1113.7514532822619913
  Basis Set: (AUG-CC-PVTZ AUX)
    Blend: AUG-CC-PVTZ-RI
    Molecular point group: c1

    Geometry (in Angstrom), charge = 0, multiplicity = 1:

       Center              X                  Y                   Z               Mass
    ------------   -----------------  -----------------  -----------------  -----------------
         S            0.774330988580    -0.094600591166     0.914561275252    31.972071174400
         F            1.233148388580     1.108455208834    -1.445537324748    18.998403162730
         F            2.898037388580     0.016946208834    -0.545619324748    18.998403162730
         F            1.233118388580    -1.074625791166    -1.445407324748    18.998403162730
         O            1.038378388580     1.304644208834     1.505958675252    15.994914619570
         O            1.038381388580    -1.270441791166     1.506127675252    15.994914619570
         C           -0.980307611420     0.017025208834     0.381553675252    12.000000000000
         C            1.577843388580     0.016952208834    -0.746829324748    12.000000000000
         C           -1.621402611420    -1.207200791166     0.176175675252    12.000000000000
         C           -1.621407611420     1.241224208834     0.176028675252    12.000000000000
         C           -2.953232611420    -1.195962791166    -0.238147324748    12.000000000000
         C           -2.953237611420     1.229930208834    -0.238293324748    12.000000000000
         C           -3.614212611420     0.016969208834    -0.450750324748    12.000000000000
         H           -1.093056611420    -2.137547791166     0.364306675252     1.007825032230
         H           -1.093065611420     2.171596208834     0.364047675252     1.007825032230
         H           -3.475057611420    -2.135918791166    -0.396892324748     1.007825032230
         H           -3.475066611420     2.169864208834    -0.397151324748     1.007825032230
         H           -4.652145611420     0.016948208834    -0.773848324748     1.007825032230

  Basis Set: AUG-CC-PVTZ
    Blend: AUG-CC-PVTZ
  Basis Set: (AUG-CC-PVTZ AUX)
    Blend: AUG-CC-PVTZ-JKFIT
	 Reference Energy          =   -1113.7514532822619913 [Eh]
	 Singles Energy            =      -0.0000000000000000 [Eh]
	 Same-Spin Energy          =      -0.7245679441151291 [Eh]
	 Opposite-Spin Energy      =      -2.0852814694637383 [Eh]
	 Correlation Energy        =      -2.8098494135788674 [Eh]
	 Total Energy              =   -1116.5613026958408227 [Eh]

	 ================> DF-SCS-MP2 Energies <==================
	-----------------------------------------------------------
	 SCS Same-Spin Scale       =       0.3333333333333333 [-]
	 SCS Opposite-Spin Scale   =       1.2000000000000000 [-]
	 SCS Same-Spin Energy      =      -0.2415226480383764 [Eh]
	 SCS Opposite-Spin Energy  =      -2.5023377633564858 [Eh]
	 SCS Correlation Energy    =      -2.7438604113948624 [Eh]
	 SCS Total Energy          =   -1116.4953136936569535 [Eh]
	-----------------------------------------------------------

  Dipole Moment: [D]
     X:    -3.9304      Y:    -0.8678      Z:    -2.0504     Total:     4.5172

*** Psi4 exiting successfully. Buy a developer a beer!
