                               Psi4 1.3.2 release

  ==> Input File <==

--------------------------------------------------------------------------
#psi4
#
memory 32 gb

molecule  {
0 1
  S        0.7587474     0.1117193     0.8458186
  F        1.3317230     1.0914540    -1.4540400
  F        2.9966120    -0.0000550    -0.5541220
  F        1.3316930    -1.0916270    -1.4539100
  O        1.1369530     1.2876430     1.4974560
  O        1.1369560    -1.2874430     1.4976250
  C       -0.8817330     0.0000240     0.3730510
  C        1.6764180    -0.0000490    -0.7553320
  C       -1.5228280    -1.2242020     0.1676730
  C       -1.5228330     1.2242230     0.1675260
  C       -2.8546580    -1.2129640    -0.2466500
  C       -2.8546630     1.2129290    -0.2467960
  C       -3.5156380    -0.0000320    -0.4592530
  H       -0.9944820    -2.1545490     0.3558040
  H       -0.9944910     2.1545950     0.3555450
  H       -3.3764830    -2.1529200    -0.4053950
  H       -3.3764920     2.1528630    -0.4056540
  H       -4.5535710    -0.0000530    -0.7823510
units angstrom
no_reorient  #important for SAPT in psi4, default
symmetry c1  #important for SAPT in psi4, default
}

set PROPERTIES_ORIGIN ["COM"]
properties('MP2/aug-cc-pvtz', properties = ['dipole'])
--------------------------------------------------------------------------

    Molecular point group: c1
  Charge       = 0
  Multiplicity = 1
  Basis Set: AUG-CC-PVTZ
    Blend: AUG-CC-PVTZ
  Basis Set: (AUG-CC-PVTZ AUX)
    Blend: AUG-CC-PVTZ-JKFIT

    Orbital Energies [Eh]
    ---------------------

    Doubly Occupied:

       1A    -92.213801     2A    -26.373431     3A    -26.372710
       4A    -26.371420     5A    -20.591149     6A    -20.548406
       7A    -11.553397     8A    -11.302374     9A    -11.294520
      10A    -11.293910    11A    -11.288942    12A    -11.277210
      13A    -11.277140    14A     -9.185068    15A     -6.869586
      16A     -6.869357    17A     -6.868366    18A     -1.758925
      19A     -1.667806    20A     -1.665653    21A     -1.487534
      22A     -1.309174    23A     -1.206163    24A     -1.097924
      25A     -1.063267    26A     -1.032280    27A     -0.944338
      28A     -0.878684    29A     -0.874828    30A     -0.852446
      31A     -0.851394    32A     -0.805853    33A     -0.752269
      34A     -0.739675    35A     -0.735240    36A     -0.700520
      37A     -0.697398    38A     -0.692484    39A     -0.683746
      40A     -0.679908    41A     -0.671214    42A     -0.655769
      43A     -0.640108    44A     -0.633808    45A     -0.568091
      46A     -0.553618    47A     -0.543348    48A     -0.521269
      49A     -0.508421    50A     -0.470529    51A     -0.459219
      52A     -0.395437    53A     -0.379598

  @DF-RHF Final Energy: -1113.75197645688831

   => Energetics <=

    Nuclear Repulsion Energy =            998.4775939790418988
    One-Electron Energy =               -3521.0016921756391639
    Two-Electron Energy =                1408.7721217397088367
    Total Energy =                      -1113.7519764568883147
  Basis Set: (AUG-CC-PVTZ AUX)
    Blend: AUG-CC-PVTZ-RI
    Molecular point group: c1

    Geometry (in Angstrom), charge = 0, multiplicity = 1:

       Center              X                  Y                   Z               Mass
    ------------   -----------------  -----------------  -----------------  -----------------
         S            0.677553453021     0.094719717811     0.863492856671    31.972071174400
         F            1.250529053021     1.074454417811    -1.436365743329    18.998403162730
         F            2.915418053021    -0.017054582189    -0.536447743329    18.998403162730
         F            1.250499053021    -1.108626582189    -1.436235743329    18.998403162730
         O            1.055759053021     1.270643417811     1.515130256671    15.994914619570
         O            1.055762053021    -1.304442582189     1.515299256671    15.994914619570
         C           -0.962926946979    -0.016975582189     0.390725256671    12.000000000000
         C            1.595224053021    -0.017048582189    -0.737657743329    12.000000000000
         C           -1.604021946979    -1.241201582189     0.185347256671    12.000000000000
         C           -1.604026946979     1.207223417811     0.185200256671    12.000000000000
         C           -2.935851946979    -1.229963582189    -0.228975743329    12.000000000000
         C           -2.935856946979     1.195929417811    -0.229121743329    12.000000000000
         C           -3.596831946979    -0.017031582189    -0.441578743329    12.000000000000
         H           -1.075675946979    -2.171548582189     0.373478256671     1.007825032230
         H           -1.075684946979     2.137595417811     0.373219256671     1.007825032230
         H           -3.457676946979    -2.169919582189    -0.387720743329     1.007825032230
         H           -3.457685946979     2.135863417811    -0.387979743329     1.007825032230
         H           -4.634764946979    -0.017052582189    -0.764676743329     1.007825032230

  Basis Set: AUG-CC-PVTZ
    Blend: AUG-CC-PVTZ
  Basis Set: (AUG-CC-PVTZ AUX)
    Blend: AUG-CC-PVTZ-JKFIT
	 Reference Energy          =   -1113.7519764568883147 [Eh]
	 Singles Energy            =      -0.0000000000000000 [Eh]
	 Same-Spin Energy          =      -0.7264446860606271 [Eh]
	 Opposite-Spin Energy      =      -2.0882989413393753 [Eh]
	 Correlation Energy        =      -2.8147436274000022 [Eh]
	 Total Energy              =   -1116.5667200842883631 [Eh]

	 ================> DF-SCS-MP2 Energies <==================
	-----------------------------------------------------------
	 SCS Same-Spin Scale       =       0.3333333333333333 [-]
	 SCS Opposite-Spin Scale   =       1.2000000000000000 [-]
	 SCS Same-Spin Energy      =      -0.2421482286868757 [Eh]
	 SCS Opposite-Spin Energy  =      -2.5059587296072503 [Eh]
	 SCS Correlation Energy    =      -2.7481069582941258 [Eh]
	 SCS Total Energy          =   -1116.5000834151824165 [Eh]
	-----------------------------------------------------------

  Dipole Moment: [D]
     X:    -5.2591      Y:     0.8858      Z:    -2.6831     Total:     5.9700

*** Psi4 exiting successfully. Buy a developer a beer!
