                               Psi4 1.3.2 release

  ==> Input File <==

--------------------------------------------------------------------------
#psi4
#
memory 32 gb

molecule  {
0 1
  S        0.7329192     0.1673791     0.8258298
  F        1.3317230     1.0914540    -1.4540400
  F        2.9966120    -0.0000550    -0.5541220
  F        1.3316930    -1.0916270    -1.4539100
  O        1.1369530     1.2876430     1.4974560
  O        1.1369560    -1.2874430     1.4976250
  C       -0.8817330     0.0000240     0.3730510
  C        1.6764180    -0.0000490    -0.7553320
  C       -1.5228280    -1.2242020     0.1676730
  C       -1.5228330     1.2242230     0.1675260
  C       -2.8546580    -1.2129640    -0.2466500
  C       -2.8546630     1.2129290    -0.2467960
  C       -3.5156380    -0.0000320    -0.4592530
  H       -0.9944820    -2.1545490     0.3558040
  H       -0.9944910     2.1545950     0.3555450
  H       -3.3764830    -2.1529200    -0.4053950
  H       -3.3764920     2.1528630    -0.4056540
  H       -4.5535710    -0.0000530    -0.7823510
units angstrom
no_reorient  #important for SAPT in psi4, default
symmetry c1  #important for SAPT in psi4, default
}

set PROPERTIES_ORIGIN ["COM"]
properties('MP2/aug-cc-pvtz', properties = ['dipole'])
--------------------------------------------------------------------------

    Molecular point group: c1
  Charge       = 0
  Multiplicity = 1
  Basis Set: AUG-CC-PVTZ
    Blend: AUG-CC-PVTZ
  Basis Set: (AUG-CC-PVTZ AUX)
    Blend: AUG-CC-PVTZ-JKFIT

    Orbital Energies [Eh]
    ---------------------

    Doubly Occupied:

       1A    -92.208210     2A    -26.373255     3A    -26.372046
       4A    -26.371391     5A    -20.596952     6A    -20.534598
       7A    -11.553838     8A    -11.303334     9A    -11.297604
      10A    -11.296704    11A    -11.291789    12A    -11.279193
      13A    -11.279112    14A     -9.181917    15A     -6.866469
      16A     -6.865931    17A     -6.864943    18A     -1.758770
      19A     -1.668002    20A     -1.665010    21A     -1.506886
      22A     -1.277788    23A     -1.208492    24A     -1.103439
      25A     -1.065536    26A     -1.032389    27A     -0.947714
      28A     -0.882145    29A     -0.876441    30A     -0.852005
      31A     -0.851204    32A     -0.807531    33A     -0.754155
      34A     -0.740404    35A     -0.734765    36A     -0.703985
      37A     -0.697748    38A     -0.694047    39A     -0.687424
      40A     -0.679703    41A     -0.675096    42A     -0.658400
      43A     -0.642259    44A     -0.635048    45A     -0.572039
      46A     -0.556951    47A     -0.546230    48A     -0.523891
      49A     -0.495084    50A     -0.452443    51A     -0.445621
      52A     -0.397736    53A     -0.381601

  @DF-RHF Final Energy: -1113.72396157126946

   => Energetics <=

    Nuclear Repulsion Energy =            999.1108097556015082
    One-Electron Energy =               -3522.2390044885714815
    Two-Electron Energy =                1409.4042331617004038
    Total Energy =                      -1113.7239615712694558
  Basis Set: (AUG-CC-PVTZ AUX)
    Blend: AUG-CC-PVTZ-RI
    Molecular point group: c1

    Geometry (in Angstrom), charge = 0, multiplicity = 1:

       Center              X                  Y                   Z               Mass
    ------------   -----------------  -----------------  -----------------  -----------------
         S            0.655657614229     0.141905274991     0.846547365214    31.972071174400
         F            1.254461414229     1.065980174991    -1.433322434786    18.998403162730
         F            2.919350414229    -0.025528825009    -0.533404434786    18.998403162730
         F            1.254431414229    -1.117100825009    -1.433192434786    18.998403162730
         O            1.059691414229     1.262169174991     1.518173565214    15.994914619570
         O            1.059694414229    -1.312916825009     1.518342565214    15.994914619570
         C           -0.958994585771    -0.025449825009     0.393768565214    12.000000000000
         C            1.599156414229    -0.025522825009    -0.734614434786    12.000000000000
         C           -1.600089585771    -1.249675825009     0.188390565214    12.000000000000
         C           -1.600094585771     1.198749174991     0.188243565214    12.000000000000
         C           -2.931919585771    -1.238437825009    -0.225932434786    12.000000000000
         C           -2.931924585771     1.187455174991    -0.226078434786    12.000000000000
         C           -3.592899585771    -0.025505825009    -0.438535434786    12.000000000000
         H           -1.071743585771    -2.180022825009     0.376521565214     1.007825032230
         H           -1.071752585771     2.129121174991     0.376262565214     1.007825032230
         H           -3.453744585771    -2.178393825009    -0.384677434786     1.007825032230
         H           -3.453753585771     2.127389174991    -0.384936434786     1.007825032230
         H           -4.630832585771    -0.025526825009    -0.761633434786     1.007825032230

  Basis Set: AUG-CC-PVTZ
    Blend: AUG-CC-PVTZ
  Basis Set: (AUG-CC-PVTZ AUX)
    Blend: AUG-CC-PVTZ-JKFIT
	 Reference Energy          =   -1113.7239615712694558 [Eh]
	 Singles Energy            =      -0.0000000000000000 [Eh]
	 Same-Spin Energy          =      -0.7265292612182090 [Eh]
	 Opposite-Spin Energy      =      -2.0890441598058462 [Eh]
	 Correlation Energy        =      -2.8155734210240553 [Eh]
	 Total Energy              =   -1116.5395349922935111 [Eh]

	 ================> DF-SCS-MP2 Energies <==================
	-----------------------------------------------------------
	 SCS Same-Spin Scale       =       0.3333333333333333 [-]
	 SCS Opposite-Spin Scale   =       1.2000000000000000 [-]
	 SCS Same-Spin Energy      =      -0.2421764204060697 [Eh]
	 SCS Opposite-Spin Energy  =      -2.5068529917670155 [Eh]
	 SCS Correlation Energy    =      -2.7490294121730852 [Eh]
	 SCS Total Energy          =   -1116.4729909834425143 [Eh]
	-----------------------------------------------------------

  Dipole Moment: [D]
     X:    -5.5798      Y:     1.3366      Z:    -2.9076     Total:     6.4323

*** Psi4 exiting successfully. Buy a developer a beer!
