                               Psi4 1.4a3.dev225

  ==> Input File <==

--------------------------------------------------------------------------
#psi4
#
memory 32 gb

molecule  {
0 1
  S        0.8137250     0.0000590     0.8799220
  F        1.3317230     1.0914540    -1.4540400
  F        2.9966120    -0.0000550    -0.5541220
  F        1.3316930    -1.0916270    -1.4539100
  O        1.1369530     1.2876430     1.4974560
  O        1.1369560    -1.2874430     1.4976250
  C       -0.8817330     0.0000240     0.3730510
  C        1.6997484    -0.0000519    -0.7995552
  C       -1.5228280    -1.2242020     0.1676730
  C       -1.5228330     1.2242230     0.1675260
  C       -2.8546580    -1.2129640    -0.2466500
  C       -2.8546630     1.2129290    -0.2467960
  C       -3.5156380    -0.0000320    -0.4592530
  H       -0.9944820    -2.1545490     0.3558040
  H       -0.9944910     2.1545950     0.3555450
  H       -3.3764830    -2.1529200    -0.4053950
  H       -3.3764920     2.1528630    -0.4056540
  H       -4.5535710    -0.0000530    -0.7823510
units angstrom
no_reorient  #important for SAPT in psi4, default
symmetry c1  #important for SAPT in psi4, default
}

set PROPERTIES_ORIGIN ["COM"]
properties('MP2/aug-cc-pvtz', properties = ['dipole'])
--------------------------------------------------------------------------

    Molecular point group: c1
  Charge       = 0
  Multiplicity = 1
  Basis Set: AUG-CC-PVTZ
    Blend: AUG-CC-PVTZ
  Basis Set: (AUG-CC-PVTZ AUX)
    Blend: AUG-CC-PVTZ-JKFIT

    Orbital Energies [Eh]
    ---------------------

    Doubly Occupied:

       1A    -92.212913     2A    -26.379549     3A    -26.379528
       4A    -26.376848     5A    -20.573262     6A    -20.573242
       7A    -11.553979     8A    -11.297879     9A    -11.285508
      10A    -11.285434    11A    -11.280703    12A    -11.271432
      13A    -11.271346    14A     -9.181691    15A     -6.866372
      16A     -6.865811    17A     -6.865531    18A     -1.770832
      19A     -1.679178    20A     -1.678244    21A     -1.463792
      22A     -1.357437    23A     -1.196749    24A     -1.081302
      25A     -1.056257    26A     -1.026758    27A     -0.938348
      28A     -0.873376    29A     -0.868628    30A     -0.864500
      31A     -0.861506    32A     -0.803216    33A     -0.751244
      34A     -0.745072    35A     -0.739229    36A     -0.706760
      37A     -0.706617    38A     -0.687391    39A     -0.686316
      40A     -0.675535    41A     -0.664598    42A     -0.649889
      43A     -0.642813    44A     -0.628334    45A     -0.560138
      46A     -0.544885    47A     -0.535985    48A     -0.522114
      49A     -0.512955    50A     -0.496866    51A     -0.460642
      52A     -0.386548    53A     -0.373484

  @DF-RHF Final Energy: -1113.77876749210532

   => Energetics <=

    Nuclear Repulsion Energy =            996.8750991375394506
    One-Electron Energy =               -3517.8706011780318477
    Two-Electron Energy =                1407.2167345483869667
    Total Energy =                      -1113.7787674921053167
  Basis Set: (AUG-CC-PVTZ AUX)
    Blend: AUG-CC-PVTZ-RI
    Molecular point group: c1

    Geometry (in Angstrom), charge = 0, multiplicity = 1:

       Center              X                  Y                   Z               Mass
    ------------   -----------------  -----------------  -----------------  -----------------
         S            0.722827486004     0.000059940977     0.894931075879    31.972071174400
         F            1.240825486004     1.091454940977    -1.439030924121    18.998403162730
         F            2.905714486004    -0.000054059023    -0.539112924121    18.998403162730
         F            1.240795486004    -1.091626059023    -1.438900924121    18.998403162730
         O            1.046055486004     1.287643940977     1.512465075879    15.994914619570
         O            1.046058486004    -1.287442059023     1.512634075879    15.994914619570
         C           -0.972630513996     0.000024940977     0.388060075879    12.000000000000
         C            1.608850886004    -0.000050959023    -0.784546124121    12.000000000000
         C           -1.613725513996    -1.224201059023     0.182682075879    12.000000000000
         C           -1.613730513996     1.224223940977     0.182535075879    12.000000000000
         C           -2.945555513996    -1.212963059023    -0.231640924121    12.000000000000
         C           -2.945560513996     1.212929940977    -0.231786924121    12.000000000000
         C           -3.606535513996    -0.000031059023    -0.444243924121    12.000000000000
         H           -1.085379513996    -2.154548059023     0.370813075879     1.007825032230
         H           -1.085388513996     2.154595940977     0.370554075879     1.007825032230
         H           -3.467380513996    -2.152919059023    -0.390385924121     1.007825032230
         H           -3.467389513996     2.152863940977    -0.390644924121     1.007825032230
         H           -4.644468513996    -0.000052059023    -0.767341924121     1.007825032230

  Basis Set: AUG-CC-PVTZ
    Blend: AUG-CC-PVTZ
  Basis Set: (AUG-CC-PVTZ AUX)
    Blend: AUG-CC-PVTZ-JKFIT
	 Reference Energy          =   -1113.7787674921053167 [Eh]
	 Singles Energy            =      -0.0000000000000000 [Eh]
	 Same-Spin Energy          =      -0.7257267607542039 [Eh]
	 Opposite-Spin Energy      =      -2.0860039017938830 [Eh]
	 Correlation Energy        =      -2.8117306625480869 [Eh]
	 Total Energy              =   -1116.5904981546534600 [Eh]

	 ================> DF-SCS-MP2 Energies <==================
	-----------------------------------------------------------
	 SCS Same-Spin Scale       =       0.3333333333333333 [-]
	 SCS Opposite-Spin Scale   =       1.2000000000000000 [-]
	 SCS Same-Spin Energy      =      -0.2419089202514013 [Eh]
	 SCS Opposite-Spin Energy  =      -2.5032046821526595 [Eh]
	 SCS Correlation Energy    =      -2.7451136024040608 [Eh]
	 SCS Total Energy          =   -1116.5238810945093064 [Eh]
	-----------------------------------------------------------

  Dipole Moment: [D]
     X:    -4.3473      Y:    -0.0002      Z:    -2.5982     Total:     5.0645

*** Psi4 exiting successfully. Buy a developer a beer!
