                               Psi4 1.3.2 release

  ==> Input File <==

--------------------------------------------------------------------------
#psi4
#
memory 32 gb

molecule  {
0 1
  S        0.8137250     0.0000590     0.8799220
  F        1.3317230     1.0914540    -1.4540400
  F        2.9966120    -0.0000550    -0.5541220
  F        1.3316930    -1.0916270    -1.4539100
  O        1.1369530     1.2876430     1.4974560
  O        1.1369560    -1.2874430     1.4976250
  C       -0.8817330     0.0000240     0.3730510
  C        1.5830965    -0.0000373    -0.5784391
  C       -1.5228280    -1.2242020     0.1676730
  C       -1.5228330     1.2242230     0.1675260
  C       -2.8546580    -1.2129640    -0.2466500
  C       -2.8546630     1.2129290    -0.2467960
  C       -3.5156380    -0.0000320    -0.4592530
  H       -0.9944820    -2.1545490     0.3558040
  H       -0.9944910     2.1545950     0.3555450
  H       -3.3764830    -2.1529200    -0.4053950
  H       -3.3764920     2.1528630    -0.4056540
  H       -4.5535710    -0.0000530    -0.7823510
units angstrom
no_reorient  #important for SAPT in psi4, default
symmetry c1  #important for SAPT in psi4, default
}

set PROPERTIES_ORIGIN ["COM"]
properties('MP2/aug-cc-pvtz', properties = ['dipole'])
--------------------------------------------------------------------------

    Molecular point group: c1
  Charge       = 0
  Multiplicity = 1
  Basis Set: AUG-CC-PVTZ
    Blend: AUG-CC-PVTZ
  Basis Set: (AUG-CC-PVTZ AUX)
    Blend: AUG-CC-PVTZ-JKFIT

    Orbital Energies [Eh]
    ---------------------

    Doubly Occupied:

       1A    -92.236340     2A    -26.357572     3A    -26.357551
       4A    -26.356181     5A    -20.591381     6A    -20.591362
       7A    -11.562147     8A    -11.308231     9A    -11.294985
      10A    -11.294915    11A    -11.289015    12A    -11.278070
      13A    -11.277995    14A     -9.207723    15A     -6.893455
      16A     -6.891609    17A     -6.891219    18A     -1.713729
      19A     -1.625046    20A     -1.624680    21A     -1.491482
      22A     -1.377205    23A     -1.206705    24A     -1.121991
      25A     -1.064054    26A     -1.062347    27A     -0.927683
      28A     -0.876882    29A     -0.874603    30A     -0.811991
      31A     -0.809380    32A     -0.799235    33A     -0.754239
      34A     -0.718528    35A     -0.718400    36A     -0.694396
      37A     -0.686204    38A     -0.684703    39A     -0.664015
      40A     -0.663272    41A     -0.658407    42A     -0.657675
      43A     -0.656479    44A     -0.635842    45A     -0.569930
      46A     -0.553804    47A     -0.544465    48A     -0.542844
      49A     -0.539853    50A     -0.513101    51A     -0.497079
      52A     -0.396507    53A     -0.380362

  @DF-RHF Final Energy: -1113.71992583390511

   => Energetics <=

    Nuclear Repulsion Energy =            999.5668707796816079
    One-Electron Energy =               -3522.9798558137094915
    Two-Electron Energy =                1409.6930592001226614
    Total Energy =                      -1113.7199258339051084
  Basis Set: (AUG-CC-PVTZ AUX)
    Blend: AUG-CC-PVTZ-RI
    Molecular point group: c1

    Geometry (in Angstrom), charge = 0, multiplicity = 1:

       Center              X                  Y                   Z               Mass
    ------------   -----------------  -----------------  -----------------  -----------------
         S            0.729493428370     0.000059106676     0.882295643633    31.972071174400
         F            1.247491428370     1.091454106676    -1.451666356367    18.998403162730
         F            2.912380428370    -0.000054893324    -0.551748356367    18.998403162730
         F            1.247461428370    -1.091626893324    -1.451536356367    18.998403162730
         O            1.052721428370     1.287643106676     1.499829643633    15.994914619570
         O            1.052724428370    -1.287442893324     1.499998643633    15.994914619570
         C           -0.965964571630     0.000024106676     0.375424643633    12.000000000000
         C            1.498864928370    -0.000037193324    -0.576065456367    12.000000000000
         C           -1.607059571630    -1.224201893324     0.170046643633    12.000000000000
         C           -1.607064571630     1.224223106676     0.169899643633    12.000000000000
         C           -2.938889571630    -1.212963893324    -0.244276356367    12.000000000000
         C           -2.938894571630     1.212929106676    -0.244422356367    12.000000000000
         C           -3.599869571630    -0.000031893324    -0.456879356367    12.000000000000
         H           -1.078713571630    -2.154548893324     0.358177643633     1.007825032230
         H           -1.078722571630     2.154595106676     0.357918643633     1.007825032230
         H           -3.460714571630    -2.152919893324    -0.403021356367     1.007825032230
         H           -3.460723571630     2.152863106676    -0.403280356367     1.007825032230
         H           -4.637802571630    -0.000052893324    -0.779977356367     1.007825032230

  Basis Set: AUG-CC-PVTZ
    Blend: AUG-CC-PVTZ
  Basis Set: (AUG-CC-PVTZ AUX)
    Blend: AUG-CC-PVTZ-JKFIT
	 Reference Energy          =   -1113.7199258339051084 [Eh]
	 Singles Energy            =      -0.0000000000000000 [Eh]
	 Same-Spin Energy          =      -0.7292376416807105 [Eh]
	 Opposite-Spin Energy      =      -2.0968690898978242 [Eh]
	 Correlation Energy        =      -2.8261067315785349 [Eh]
	 Total Energy              =   -1116.5460325654837561 [Eh]

	 ================> DF-SCS-MP2 Energies <==================
	-----------------------------------------------------------
	 SCS Same-Spin Scale       =       0.3333333333333333 [-]
	 SCS Opposite-Spin Scale   =       1.2000000000000000 [-]
	 SCS Same-Spin Energy      =      -0.2430792138935702 [Eh]
	 SCS Opposite-Spin Energy  =      -2.5162429078773889 [Eh]
	 SCS Correlation Energy    =      -2.7593221217709591 [Eh]
	 SCS Total Energy          =   -1116.4792479556761009 [Eh]
	-----------------------------------------------------------

  Dipole Moment: [D]
     X:    -5.4921      Y:    -0.0001      Z:    -1.3344     Total:     5.6518

*** Psi4 exiting successfully. Buy a developer a beer!
