                               Psi4 1.3.2 release

  ==> Input File <==

--------------------------------------------------------------------------
#psi4
#
memory 32 gb

molecule  {
0 1
  S        0.8281370    -0.0278774     0.8872087
  F        1.3317230     1.0914540    -1.4540400
  F        2.9966120    -0.0000550    -0.5541220
  F        1.3316930    -1.0916270    -1.4539100
  O        1.1369530     1.2876430     1.4974560
  O        1.1369560    -1.2874430     1.4976250
  C       -0.8817330     0.0000240     0.3730510
  C        1.6764180    -0.0000490    -0.7553320
  C       -1.5228280    -1.2242020     0.1676730
  C       -1.5228330     1.2242230     0.1675260
  C       -2.8546580    -1.2129640    -0.2466500
  C       -2.8546630     1.2129290    -0.2467960
  C       -3.5156380    -0.0000320    -0.4592530
  H       -0.9944820    -2.1545490     0.3558040
  H       -0.9944910     2.1545950     0.3555450
  H       -3.3764830    -2.1529200    -0.4053950
  H       -3.3764920     2.1528630    -0.4056540
  H       -4.5535710    -0.0000530    -0.7823510
units angstrom
no_reorient  #important for SAPT in psi4, default
symmetry c1  #important for SAPT in psi4, default
}

set PROPERTIES_ORIGIN ["COM"]
properties('MP2/aug-cc-pvtz', properties = ['dipole'])
--------------------------------------------------------------------------

    Molecular point group: c1
  Charge       = 0
  Multiplicity = 1
  Basis Set: AUG-CC-PVTZ
    Blend: AUG-CC-PVTZ
  Basis Set: (AUG-CC-PVTZ AUX)
    Blend: AUG-CC-PVTZ-JKFIT

    Orbital Energies [Eh]
    ---------------------

    Doubly Occupied:

       1A    -92.219699     2A    -26.374602     3A    -26.374443
       4A    -26.371817     5A    -20.584641     6A    -20.573710
       7A    -11.553436     8A    -11.299639     9A    -11.285947
      10A    -11.285774    11A    -11.280871    12A    -11.271812
      13A    -11.271722    14A     -9.188576    15A     -6.873426
      16A     -6.872767    17A     -6.872394    18A     -1.759971
      19A     -1.668208    20A     -1.667470    21A     -1.477570
      22A     -1.364095    23A     -1.196857    24A     -1.082975
      25A     -1.056593    26A     -1.032098    27A     -0.936044
      28A     -0.871958    29A     -0.868791    30A     -0.853586
      31A     -0.851564    32A     -0.802378    33A     -0.751417
      34A     -0.739326    35A     -0.735684    36A     -0.699146
      37A     -0.698104    38A     -0.687765    39A     -0.681192
      40A     -0.677349    41A     -0.672575    42A     -0.651422
      43A     -0.648570    44A     -0.628777    45A     -0.562632
      46A     -0.545739    47A     -0.536712    48A     -0.529269
      49A     -0.520818    50A     -0.502305    51A     -0.469511
      52A     -0.387058    53A     -0.373814

  @DF-RHF Final Energy: -1113.77791643777527

   => Energetics <=

    Nuclear Repulsion Energy =            997.2043110343560102
    One-Electron Energy =               -3518.4752167016449675
    Two-Electron Energy =                1407.4929892295135687
    Total Energy =                      -1113.7779164377752750
  Basis Set: (AUG-CC-PVTZ AUX)
    Blend: AUG-CC-PVTZ-RI
    Molecular point group: c1

    Geometry (in Angstrom), charge = 0, multiplicity = 1:

       Center              X                  Y                   Z               Mass
    ------------   -----------------  -----------------  -----------------  -----------------
         S            0.736378438711    -0.023623288632     0.898581285487    31.972071174400
         F            1.239964438711     1.095708111368    -1.442667414513    18.998403162730
         F            2.904853438711     0.004199111368    -0.542749414513    18.998403162730
         F            1.239934438711    -1.087372888632    -1.442537414513    18.998403162730
         O            1.045194438711     1.291897111368     1.508828585487    15.994914619570
         O            1.045197438711    -1.283188888632     1.508997585487    15.994914619570
         C           -0.973491561289     0.004278111368     0.384423585487    12.000000000000
         C            1.584659438711     0.004205111368    -0.743959414513    12.000000000000
         C           -1.614586561289    -1.219947888632     0.179045585487    12.000000000000
         C           -1.614591561289     1.228477111368     0.178898585487    12.000000000000
         C           -2.946416561289    -1.208709888632    -0.235277414513    12.000000000000
         C           -2.946421561289     1.217183111368    -0.235423414513    12.000000000000
         C           -3.607396561289     0.004222111368    -0.447880414513    12.000000000000
         H           -1.086240561289    -2.150294888632     0.367176585487     1.007825032230
         H           -1.086249561289     2.158849111368     0.366917585487     1.007825032230
         H           -3.468241561289    -2.148665888632    -0.394022414513     1.007825032230
         H           -3.468250561289     2.157117111368    -0.394281414513     1.007825032230
         H           -4.645329561289     0.004201111368    -0.770978414513     1.007825032230

  Basis Set: AUG-CC-PVTZ
    Blend: AUG-CC-PVTZ
  Basis Set: (AUG-CC-PVTZ AUX)
    Blend: AUG-CC-PVTZ-JKFIT
	 Reference Energy          =   -1113.7779164377752750 [Eh]
	 Singles Energy            =      -0.0000000000000000 [Eh]
	 Same-Spin Energy          =      -0.7256072273052876 [Eh]
	 Opposite-Spin Energy      =      -2.0865497867664233 [Eh]
	 Correlation Energy        =      -2.8121570140717109 [Eh]
	 Total Energy              =   -1116.5900734518470472 [Eh]

	 ================> DF-SCS-MP2 Energies <==================
	-----------------------------------------------------------
	 SCS Same-Spin Scale       =       0.3333333333333333 [-]
	 SCS Opposite-Spin Scale   =       1.2000000000000000 [-]
	 SCS Same-Spin Energy      =      -0.2418690757684292 [Eh]
	 SCS Opposite-Spin Energy  =      -2.5038597441197079 [Eh]
	 SCS Correlation Energy    =      -2.7457288198881371 [Eh]
	 SCS Total Energy          =   -1116.5236452576634747 [Eh]
	-----------------------------------------------------------

  Dipole Moment: [D]
     X:    -4.4349      Y:    -0.2182      Z:    -2.2360     Total:     4.9714

*** Psi4 exiting successfully. Buy a developer a beer!
