                               Psi4 1.3.2 release

  ==> Input File <==

--------------------------------------------------------------------------
#psi4
#
memory 32 gb

molecule  {
0 1
  S        0.9039826    -0.1672623     0.9160980
  F        1.3317230     1.0914540    -1.4540400
  F        2.9966120    -0.0000550    -0.5541220
  F        1.3316930    -1.0916270    -1.4539100
  O        1.1369530     1.2876430     1.4974560
  O        1.1369560    -1.2874430     1.4976250
  C       -0.8817330     0.0000240     0.3730510
  C        1.6764180    -0.0000490    -0.7553320
  C       -1.5228280    -1.2242020     0.1676730
  C       -1.5228330     1.2242230     0.1675260
  C       -2.8546580    -1.2129640    -0.2466500
  C       -2.8546630     1.2129290    -0.2467960
  C       -3.5156380    -0.0000320    -0.4592530
  H       -0.9944820    -2.1545490     0.3558040
  H       -0.9944910     2.1545950     0.3555450
  H       -3.3764830    -2.1529200    -0.4053950
  H       -3.3764920     2.1528630    -0.4056540
  H       -4.5535710    -0.0000530    -0.7823510
units angstrom
no_reorient  #important for SAPT in psi4, default
symmetry c1  #important for SAPT in psi4, default
}

set PROPERTIES_ORIGIN ["COM"]
properties('MP2/aug-cc-pvtz', properties = ['dipole'])
--------------------------------------------------------------------------

    Molecular point group: c1
  Charge       = 0
  Multiplicity = 1
  Basis Set: AUG-CC-PVTZ
    Blend: AUG-CC-PVTZ
  Basis Set: (AUG-CC-PVTZ AUX)
    Blend: AUG-CC-PVTZ-JKFIT

    Orbital Energies [Eh]
    ---------------------

    Doubly Occupied:

       1A    -92.210260     2A    -26.377101     3A    -26.376014
       4A    -26.372688     5A    -20.617517     6A    -20.554894
       7A    -11.555162     8A    -11.295417     9A    -11.277184
      10A    -11.276199    11A    -11.272114    12A    -11.265942
      13A    -11.265750    14A     -9.185628    15A     -6.871604
      16A     -6.869112    17A     -6.867982    18A     -1.761968
      19A     -1.670784    20A     -1.668668    21A     -1.581290
      22A     -1.321732    23A     -1.186666    24A     -1.069162
      25A     -1.048948    26A     -1.031943    27A     -0.930252
      28A     -0.870301    29A     -0.860128    30A     -0.855271
      31A     -0.849588    32A     -0.805332    33A     -0.762185
      34A     -0.741510    35A     -0.736913    36A     -0.709803
      37A     -0.703395    38A     -0.699423    39A     -0.696050
      40A     -0.693099    41A     -0.682867    42A     -0.653861
      43A     -0.650309    44A     -0.621441    45A     -0.572611
      46A     -0.546315    47A     -0.532358    48A     -0.529243
      49A     -0.513741    50A     -0.481967    51A     -0.447645
      52A     -0.377091    53A     -0.367227

  @DF-RHF Final Energy: -1113.70914651718181

   => Energetics <=

    Nuclear Repulsion Energy =            996.7568874070489073
    One-Electron Energy =               -3517.4487595757923373
    Two-Electron Energy =                1406.9827256515616227
    Total Energy =                      -1113.7091465171818072
  Basis Set: (AUG-CC-PVTZ AUX)
    Blend: AUG-CC-PVTZ-RI
    Molecular point group: c1

    Geometry (in Angstrom), charge = 0, multiplicity = 1:

       Center              X                  Y                   Z               Mass
    ------------   -----------------  -----------------  -----------------  -----------------
         S            0.800676493962    -0.141786741771     0.923072169699    31.972071174400
         F            1.228416893962     1.116929558229    -1.447065830301    18.998403162730
         F            2.893305893962     0.025420558229    -0.547147830301    18.998403162730
         F            1.228386893962    -1.066151441771    -1.446935830301    18.998403162730
         O            1.033646893962     1.313118558229     1.504430169699    15.994914619570
         O            1.033649893962    -1.261967441771     1.504599169699    15.994914619570
         C           -0.985039106038     0.025499558229     0.380025169699    12.000000000000
         C            1.573111893962     0.025426558229    -0.748357830301    12.000000000000
         C           -1.626134106038    -1.198726441771     0.174647169699    12.000000000000
         C           -1.626139106038     1.249698558229     0.174500169699    12.000000000000
         C           -2.957964106038    -1.187488441771    -0.239675830301    12.000000000000
         C           -2.957969106038     1.238404558229    -0.239821830301    12.000000000000
         C           -3.618944106038     0.025443558229    -0.452278830301    12.000000000000
         H           -1.097788106038    -2.129073441771     0.362778169699     1.007825032230
         H           -1.097797106038     2.180070558229     0.362519169699     1.007825032230
         H           -3.479789106038    -2.127444441771    -0.398420830301     1.007825032230
         H           -3.479798106038     2.178338558229    -0.398679830301     1.007825032230
         H           -4.656877106038     0.025422558229    -0.775376830301     1.007825032230

  Basis Set: AUG-CC-PVTZ
    Blend: AUG-CC-PVTZ
  Basis Set: (AUG-CC-PVTZ AUX)
    Blend: AUG-CC-PVTZ-JKFIT
	 Reference Energy          =   -1113.7091465171818072 [Eh]
	 Singles Energy            =      -0.0000000000000000 [Eh]
	 Same-Spin Energy          =      -0.7237231884932265 [Eh]
	 Opposite-Spin Energy      =      -2.0844208612544111 [Eh]
	 Correlation Energy        =      -2.8081440497476375 [Eh]
	 Total Energy              =   -1116.5172905669294323 [Eh]

	 ================> DF-SCS-MP2 Energies <==================
	-----------------------------------------------------------
	 SCS Same-Spin Scale       =       0.3333333333333333 [-]
	 SCS Opposite-Spin Scale   =       1.2000000000000000 [-]
	 SCS Same-Spin Energy      =      -0.2412410628310755 [Eh]
	 SCS Opposite-Spin Energy  =      -2.5013050335052931 [Eh]
	 SCS Correlation Energy    =      -2.7425460963363686 [Eh]
	 SCS Total Energy          =   -1116.4516926135181620 [Eh]
	-----------------------------------------------------------

  Dipole Moment: [D]
     X:    -3.5902      Y:    -1.2996      Z:    -1.9598     Total:     4.2917

*** Psi4 exiting successfully. Buy a developer a beer!
