                               Psi4 1.3.2 release

  ==> Input File <==

--------------------------------------------------------------------------
#psi4
#
memory 32 gb

molecule  {
0 1
  S        0.8137250     0.0000590     0.8799220
  F        1.3317230     1.0914540    -1.4540400
  F        2.9966120    -0.0000550    -0.5541220
  F        1.3316930    -1.0916270    -1.4539100
  O        1.0803455     1.2593181     1.5776879
  O        1.1369560    -1.2874430     1.4976250
  C       -0.8817330     0.0000240     0.3730510
  C        1.6764180    -0.0000490    -0.7553320
  C       -1.5228280    -1.2242020     0.1676730
  C       -1.5228330     1.2242230     0.1675260
  C       -2.8546580    -1.2129640    -0.2466500
  C       -2.8546630     1.2129290    -0.2467960
  C       -3.5156380    -0.0000320    -0.4592530
  H       -0.9944820    -2.1545490     0.3558040
  H       -0.9944910     2.1545950     0.3555450
  H       -3.3764830    -2.1529200    -0.4053950
  H       -3.3764920     2.1528630    -0.4056540
  H       -4.5535710    -0.0000530    -0.7823510
units angstrom
no_reorient  #important for SAPT in psi4, default
symmetry c1  #important for SAPT in psi4, default
}

set PROPERTIES_ORIGIN ["COM"]
properties('MP2/aug-cc-pvtz', properties = ['dipole'])
--------------------------------------------------------------------------

    Molecular point group: c1
  Charge       = 0
  Multiplicity = 1
  Basis Set: AUG-CC-PVTZ
    Blend: AUG-CC-PVTZ
  Basis Set: (AUG-CC-PVTZ AUX)
    Blend: AUG-CC-PVTZ-JKFIT

    Orbital Energies [Eh]
    ---------------------

    Doubly Occupied:

       1A    -92.219271     2A    -26.378214     3A    -26.377805
       4A    -26.375067     5A    -20.577469     6A    -20.574644
       7A    -11.558722     8A    -11.298723     9A    -11.286542
      10A    -11.286348    11A    -11.281465    12A    -11.272110
      13A    -11.271973    14A     -9.188218    15A     -6.873065
      16A     -6.872302    17A     -6.872049    18A     -1.763283
      19A     -1.671544    20A     -1.670627    21A     -1.468955
      22A     -1.359129    23A     -1.197803    24A     -1.086223
      25A     -1.057048    26A     -1.035126    27A     -0.939186
      28A     -0.874013    29A     -0.869501    30A     -0.856885
      31A     -0.854763    32A     -0.802196    33A     -0.751418
      34A     -0.742386    35A     -0.737879    36A     -0.701506
      37A     -0.701081    38A     -0.688056    39A     -0.684276
      40A     -0.676705    41A     -0.672027    42A     -0.650983
      43A     -0.644570    44A     -0.629127    45A     -0.561502
      46A     -0.546056    47A     -0.536835    48A     -0.523642
      49A     -0.519641    50A     -0.498198    51A     -0.472323
      52A     -0.387638    53A     -0.374145

  @DF-RHF Final Energy: -1113.77770541682844

   => Energetics <=

    Nuclear Repulsion Energy =            996.7864106863089546
    One-Electron Energy =               -3517.5877047024200692
    Two-Electron Energy =                1407.0235885992826752
    Total Energy =                      -1113.7777054168284394
  Basis Set: (AUG-CC-PVTZ AUX)
    Blend: AUG-CC-PVTZ-RI
    Molecular point group: c1

    Geometry (in Angstrom), charge = 0, multiplicity = 1:

       Center              X                  Y                   Z               Mass
    ------------   -----------------  -----------------  -----------------  -----------------
         S            0.728472334489     0.002217215639     0.886292917248    31.972071174400
         F            1.246470334489     1.093612215639    -1.447669082752    18.998403162730
         F            2.911359334489     0.002103215639    -0.547751082752    18.998403162730
         F            1.246440334489    -1.089468784361    -1.447539082752    18.998403162730
         O            0.995092834489     1.261476315639     1.584058817248    15.994914619570
         O            1.051703334489    -1.285284784361     1.503995917248    15.994914619570
         C           -0.966985665511     0.002182215639     0.379421917248    12.000000000000
         C            1.591165334489     0.002109215639    -0.748961082752    12.000000000000
         C           -1.608080665511    -1.222043784361     0.174043917248    12.000000000000
         C           -1.608085665511     1.226381215639     0.173896917248    12.000000000000
         C           -2.939910665511    -1.210805784361    -0.240279082752    12.000000000000
         C           -2.939915665511     1.215087215639    -0.240425082752    12.000000000000
         C           -3.600890665511     0.002126215639    -0.452882082752    12.000000000000
         H           -1.079734665511    -2.152390784361     0.362174917248     1.007825032230
         H           -1.079743665511     2.156753215639     0.361915917248     1.007825032230
         H           -3.461735665511    -2.150761784361    -0.399024082752     1.007825032230
         H           -3.461744665511     2.155021215639    -0.399283082752     1.007825032230
         H           -4.638823665511     0.002105215639    -0.775980082752     1.007825032230

  Basis Set: AUG-CC-PVTZ
    Blend: AUG-CC-PVTZ
  Basis Set: (AUG-CC-PVTZ AUX)
    Blend: AUG-CC-PVTZ-JKFIT
	 Reference Energy          =   -1113.7777054168284394 [Eh]
	 Singles Energy            =      -0.0000000000000000 [Eh]
	 Same-Spin Energy          =      -0.7258590374394183 [Eh]
	 Opposite-Spin Energy      =      -2.0869949450316230 [Eh]
	 Correlation Energy        =      -2.8128539824710410 [Eh]
	 Total Energy              =   -1116.5905593992995364 [Eh]

	 ================> DF-SCS-MP2 Energies <==================
	-----------------------------------------------------------
	 SCS Same-Spin Scale       =       0.3333333333333333 [-]
	 SCS Opposite-Spin Scale   =       1.2000000000000000 [-]
	 SCS Same-Spin Energy      =      -0.2419530124798061 [Eh]
	 SCS Opposite-Spin Energy  =      -2.5043939340379473 [Eh]
	 SCS Correlation Energy    =      -2.7463469465177535 [Eh]
	 SCS Total Energy          =   -1116.5240523633462999 [Eh]
	-----------------------------------------------------------

  Dipole Moment: [D]
     X:    -4.4163      Y:     0.0632      Z:    -2.4925     Total:     5.0715

*** Psi4 exiting successfully. Buy a developer a beer!
