                               Psi4 1.3.2 release

  ==> Input File <==

--------------------------------------------------------------------------
#psi4
#
memory 32 gb

molecule  {
0 1
  S        0.8137250     0.0000590     0.8799220
  F        1.3317230     1.0914540    -1.4540400
  F        2.9966120    -0.0000550    -0.5541220
  F        1.3316930    -1.0916270    -1.4539100
  O        1.1508694     1.2937488     1.4769123
  O        1.1369560    -1.2874430     1.4976250
  C       -0.8817330     0.0000240     0.3730510
  C        1.6764180    -0.0000490    -0.7553320
  C       -1.5228280    -1.2242020     0.1676730
  C       -1.5228330     1.2242230     0.1675260
  C       -2.8546580    -1.2129640    -0.2466500
  C       -2.8546630     1.2129290    -0.2467960
  C       -3.5156380    -0.0000320    -0.4592530
  H       -0.9944820    -2.1545490     0.3558040
  H       -0.9944910     2.1545950     0.3555450
  H       -3.3764830    -2.1529200    -0.4053950
  H       -3.3764920     2.1528630    -0.4056540
  H       -4.5535710    -0.0000530    -0.7823510
units angstrom
no_reorient  #important for SAPT in psi4, default
symmetry c1  #important for SAPT in psi4, default
}

set PROPERTIES_ORIGIN ["COM"]
properties('MP2/aug-cc-pvtz', properties = ['dipole'])
--------------------------------------------------------------------------

    Molecular point group: c1
  Charge       = 0
  Multiplicity = 1
  Basis Set: AUG-CC-PVTZ
    Blend: AUG-CC-PVTZ
  Basis Set: (AUG-CC-PVTZ AUX)
    Blend: AUG-CC-PVTZ-JKFIT

    Orbital Energies [Eh]
    ---------------------

    Doubly Occupied:

       1A    -92.219746     2A    -26.373248     3A    -26.373135
       4A    -26.370831     5A    -20.578122     6A    -20.577402
       7A    -11.551904     8A    -11.300668     9A    -11.287947
      10A    -11.287865    11A    -11.282828    12A    -11.273148
      13A    -11.273061    14A     -9.188494    15A     -6.873355
      16A     -6.872638    17A     -6.872305    18A     -1.758756
      19A     -1.667015    20A     -1.666267    21A     -1.469416
      22A     -1.362518    23A     -1.199120    24A     -1.085933
      25A     -1.058264    26A     -1.031302    27A     -0.937206
      28A     -0.872409    29A     -0.870720    30A     -0.852419
      31A     -0.850803    32A     -0.802997    33A     -0.750891
      34A     -0.738378    35A     -0.735049    36A     -0.698347
      37A     -0.696953    38A     -0.687655    39A     -0.680121
      40A     -0.677849    41A     -0.669736    42A     -0.652017
      43A     -0.646599    44A     -0.630277    45A     -0.562551
      46A     -0.547148    47A     -0.538008    48A     -0.526824
      49A     -0.518915    50A     -0.501184    51A     -0.470902
      52A     -0.389218    53A     -0.375263

  @DF-RHF Final Energy: -1113.77873110163114

   => Energetics <=

    Nuclear Repulsion Energy =            997.5819922271607538
    One-Electron Energy =               -3519.2499975519726831
    Two-Electron Energy =                1407.8892742231807915
    Total Energy =                      -1113.7787311016311378
  Basis Set: (AUG-CC-PVTZ AUX)
    Blend: AUG-CC-PVTZ-RI
    Molecular point group: c1

    Geometry (in Angstrom), charge = 0, multiplicity = 1:

       Center              X                  Y                   Z               Mass
    ------------   -----------------  -----------------  -----------------  -----------------
         S            0.723100696475    -0.000405289029     0.893968755423    31.972071174400
         F            1.241098696475     1.090989710971    -1.439993244577    18.998403162730
         F            2.905987696475    -0.000519289029    -0.540075244577    18.998403162730
         F            1.241068696475    -1.092091289029    -1.439863244577    18.998403162730
         O            1.060245096475     1.293284510971     1.490959055423    15.994914619570
         O            1.046331696475    -1.287907289029     1.511671755423    15.994914619570
         C           -0.972357303525    -0.000440289029     0.387097755423    12.000000000000
         C            1.585793696475    -0.000513289029    -0.741285244577    12.000000000000
         C           -1.613452303525    -1.224666289029     0.181719755423    12.000000000000
         C           -1.613457303525     1.223758710971     0.181572755423    12.000000000000
         C           -2.945282303525    -1.213428289029    -0.232603244577    12.000000000000
         C           -2.945287303525     1.212464710971    -0.232749244577    12.000000000000
         C           -3.606262303525    -0.000496289029    -0.445206244577    12.000000000000
         H           -1.085106303525    -2.155013289029     0.369850755423     1.007825032230
         H           -1.085115303525     2.154130710971     0.369591755423     1.007825032230
         H           -3.467107303525    -2.153384289029    -0.391348244577     1.007825032230
         H           -3.467116303525     2.152398710971    -0.391607244577     1.007825032230
         H           -4.644195303525    -0.000517289029    -0.768304244577     1.007825032230

  Basis Set: AUG-CC-PVTZ
    Blend: AUG-CC-PVTZ
  Basis Set: (AUG-CC-PVTZ AUX)
    Blend: AUG-CC-PVTZ-JKFIT
	 Reference Energy          =   -1113.7787311016311378 [Eh]
	 Singles Energy            =      -0.0000000000000000 [Eh]
	 Same-Spin Energy          =      -0.7258889386995115 [Eh]
	 Opposite-Spin Energy      =      -2.0869583888963179 [Eh]
	 Correlation Energy        =      -2.8128473275958292 [Eh]
	 Total Energy              =   -1116.5915784292269564 [Eh]

	 ================> DF-SCS-MP2 Energies <==================
	-----------------------------------------------------------
	 SCS Same-Spin Scale       =       0.3333333333333333 [-]
	 SCS Opposite-Spin Scale   =       1.2000000000000000 [-]
	 SCS Same-Spin Energy      =      -0.2419629795665038 [Eh]
	 SCS Opposite-Spin Energy  =      -2.5043500666755816 [Eh]
	 SCS Correlation Energy    =      -2.7463130462420855 [Eh]
	 SCS Total Energy          =   -1116.5250441478731318 [Eh]
	-----------------------------------------------------------

  Dipole Moment: [D]
     X:    -4.6473      Y:    -0.0141      Z:    -2.2644     Total:     5.1696

*** Psi4 exiting successfully. Buy a developer a beer!
