                               Psi4 1.3.2 release

  ==> Input File <==

--------------------------------------------------------------------------
#psi4
#
memory 32 gb

molecule  {
0 1
  S        0.7856936     0.0559232     0.8638567
  F        1.3317230     1.0914540    -1.4540400
  F        2.9966120    -0.0000550    -0.5541220
  F        1.3316930    -1.0916270    -1.4539100
  O        1.1369530     1.2876430     1.4974560
  O        1.1369560    -1.2874430     1.4976250
  C       -0.8817330     0.0000240     0.3730510
  C        1.6764180    -0.0000490    -0.7553320
  C       -1.5228280    -1.2242020     0.1676730
  C       -1.5228330     1.2242230     0.1675260
  C       -2.8546580    -1.2129640    -0.2466500
  C       -2.8546630     1.2129290    -0.2467960
  C       -3.5156380    -0.0000320    -0.4592530
  H       -0.9944820    -2.1545490     0.3558040
  H       -0.9944910     2.1545950     0.3555450
  H       -3.3764830    -2.1529200    -0.4053950
  H       -3.3764920     2.1528630    -0.4056540
  H       -4.5535710    -0.0000530    -0.7823510
units angstrom
no_reorient  #important for SAPT in psi4, default
symmetry c1  #important for SAPT in psi4, default
}

set PROPERTIES_ORIGIN ["COM"]
properties('MP2/aug-cc-pvtz', properties = ['dipole'])
--------------------------------------------------------------------------

    Molecular point group: c1
  Charge       = 0
  Multiplicity = 1
  Basis Set: AUG-CC-PVTZ
    Blend: AUG-CC-PVTZ
  Basis Set: (AUG-CC-PVTZ AUX)
    Blend: AUG-CC-PVTZ-JKFIT

    Orbital Energies [Eh]
    ---------------------

    Doubly Occupied:

       1A    -92.217790     2A    -26.373752     3A    -26.373421
       4A    -26.371530     5A    -20.584591     6A    -20.562843
       7A    -11.553226     8A    -11.301389     9A    -11.291176
      10A    -11.290857    11A    -11.285846    12A    -11.275122
      13A    -11.275044    14A     -9.187315    15A     -6.872050
      16A     -6.871547    17A     -6.870884    18A     -1.759236
      19A     -1.667767    20A     -1.666404    21A     -1.471681
      22A     -1.340703    23A     -1.202724    24A     -1.092021
      25A     -1.060750    26A     -1.032190    27A     -0.940909
      28A     -0.875285    29A     -0.873065    30A     -0.852890
      31A     -0.851576    32A     -0.804197    33A     -0.751079
      34A     -0.739248    35A     -0.735574    36A     -0.699077
      37A     -0.697444    38A     -0.689771    39A     -0.680917
      40A     -0.679704    41A     -0.668944    42A     -0.653427
      43A     -0.641722    44A     -0.632286    45A     -0.564386
      46A     -0.550119    47A     -0.540441    48A     -0.521352
      49A     -0.515981    50A     -0.488097    51A     -0.469055
      52A     -0.392407    53A     -0.377399

  @DF-RHF Final Energy: -1113.77087075475811

   => Energetics <=

    Nuclear Repulsion Energy =            997.8982946726591763
    One-Electron Energy =               -3519.8619113142440256
    Two-Electron Energy =                1408.1927458868267422
    Total Energy =                      -1113.7708707547581071
  Basis Set: (AUG-CC-PVTZ AUX)
    Blend: AUG-CC-PVTZ-RI
    Molecular point group: c1

    Geometry (in Angstrom), charge = 0, multiplicity = 1:

       Center              X                  Y                   Z               Mass
    ------------   -----------------  -----------------  -----------------  -----------------
         S            0.700397075544     0.047418612399     0.878784643543    31.972071174400
         F            1.246426475544     1.082949412399    -1.439112056457    18.998403162730
         F            2.911315475544    -0.008559587601    -0.539194056457    18.998403162730
         F            1.246396475544    -1.100131587601    -1.438982056457    18.998403162730
         O            1.051656475544     1.279138412399     1.512383943543    15.994914619570
         O            1.051659475544    -1.295947587601     1.512552943543    15.994914619570
         C           -0.967029524456    -0.008480587601     0.387978943543    12.000000000000
         C            1.591121475544    -0.008553587601    -0.740404056457    12.000000000000
         C           -1.608124524456    -1.232706587601     0.182600943543    12.000000000000
         C           -1.608129524456     1.215718412399     0.182453943543    12.000000000000
         C           -2.939954524456    -1.221468587601    -0.231722056457    12.000000000000
         C           -2.939959524456     1.204424412399    -0.231868056457    12.000000000000
         C           -3.600934524456    -0.008536587601    -0.444325056457    12.000000000000
         H           -1.079778524456    -2.163053587601     0.370731943543     1.007825032230
         H           -1.079787524456     2.146090412399     0.370472943543     1.007825032230
         H           -3.461779524456    -2.161424587601    -0.390467056457     1.007825032230
         H           -3.461788524456     2.144358412399    -0.390726056457     1.007825032230
         H           -4.638867524456    -0.008557587601    -0.767423056457     1.007825032230

  Basis Set: AUG-CC-PVTZ
    Blend: AUG-CC-PVTZ
  Basis Set: (AUG-CC-PVTZ AUX)
    Blend: AUG-CC-PVTZ-JKFIT
	 Reference Energy          =   -1113.7708707547581071 [Eh]
	 Singles Energy            =      -0.0000000000000000 [Eh]
	 Same-Spin Energy          =      -0.7262468822330486 [Eh]
	 Opposite-Spin Energy      =      -2.0876384315847658 [Eh]
	 Correlation Energy        =      -2.8138853138178144 [Eh]
	 Total Energy              =   -1116.5847560685758708 [Eh]

	 ================> DF-SCS-MP2 Energies <==================
	-----------------------------------------------------------
	 SCS Same-Spin Scale       =       0.3333333333333333 [-]
	 SCS Opposite-Spin Scale   =       1.2000000000000000 [-]
	 SCS Same-Spin Energy      =      -0.2420822940776828 [Eh]
	 SCS Opposite-Spin Energy  =      -2.5051661179017191 [Eh]
	 SCS Correlation Energy    =      -2.7472484119794021 [Eh]
	 SCS Total Energy          =   -1116.5181191667375060 [Eh]
	-----------------------------------------------------------

  Dipole Moment: [D]
     X:    -4.9323      Y:     0.4398      Z:    -2.4836     Total:     5.5398

*** Psi4 exiting successfully. Buy a developer a beer!
