                               Psi4 1.3.2 release

  ==> Input File <==

--------------------------------------------------------------------------
#psi4
#
memory 32 gb

molecule  {
0 1
  S        0.8137250     0.0000590     0.8799220
  F        1.3317230     1.0914540    -1.4540400
  F        2.9966120    -0.0000550    -0.5541220
  F        1.3316930    -1.0916270    -1.4539100
  O        1.0945198     1.3331276     1.4163730
  O        1.1369560    -1.2874430     1.4976250
  C       -0.8817330     0.0000240     0.3730510
  C        1.6764180    -0.0000490    -0.7553320
  C       -1.5228280    -1.2242020     0.1676730
  C       -1.5228330     1.2242230     0.1675260
  C       -2.8546580    -1.2129640    -0.2466500
  C       -2.8546630     1.2129290    -0.2467960
  C       -3.5156380    -0.0000320    -0.4592530
  H       -0.9944820    -2.1545490     0.3558040
  H       -0.9944910     2.1545950     0.3555450
  H       -3.3764830    -2.1529200    -0.4053950
  H       -3.3764920     2.1528630    -0.4056540
  H       -4.5535710    -0.0000530    -0.7823510
units angstrom
no_reorient  #important for SAPT in psi4, default
symmetry c1  #important for SAPT in psi4, default
}

set PROPERTIES_ORIGIN ["COM"]
properties('MP2/aug-cc-pvtz', properties = ['dipole'])
--------------------------------------------------------------------------

    Molecular point group: c1
  Charge       = 0
  Multiplicity = 1
  Basis Set: AUG-CC-PVTZ
    Blend: AUG-CC-PVTZ
  Basis Set: (AUG-CC-PVTZ AUX)
    Blend: AUG-CC-PVTZ-JKFIT

    Orbital Energies [Eh]
    ---------------------

    Doubly Occupied:

       1A    -92.220723     2A    -26.372492     3A    -26.372333
       4A    -26.370801     5A    -20.583332     6A    -20.578049
       7A    -11.551249     8A    -11.297930     9A    -11.286049
      10A    -11.285582    11A    -11.281259    12A    -11.271524
      13A    -11.271377    14A     -9.189356    15A     -6.874215
      16A     -6.873581    17A     -6.873120    18A     -1.758261
      19A     -1.666311    20A     -1.665994    21A     -1.470905
      22A     -1.367462    23A     -1.197044    24A     -1.083409
      25A     -1.056482    26A     -1.030562    27A     -0.935977
      28A     -0.871759    29A     -0.868906    30A     -0.851838
      31A     -0.850333    32A     -0.802608    33A     -0.751301
      34A     -0.737829    35A     -0.734564    36A     -0.697758
      37A     -0.696420    38A     -0.686856    39A     -0.679686
      40A     -0.677719    41A     -0.669915    42A     -0.651015
      43A     -0.648422    44A     -0.628781    45A     -0.560810
      46A     -0.545280    47A     -0.536615    48A     -0.530790
      49A     -0.519052    50A     -0.505081    51A     -0.469846
      52A     -0.387423    53A     -0.373583

  @DF-RHF Final Energy: -1113.77671291623869

   => Energetics <=

    Nuclear Repulsion Energy =            998.4336967490379493
    One-Electron Energy =               -3520.9816851219534328
    Two-Electron Energy =                1408.7712754566766762
    Total Energy =                      -1113.7767129162386937
  Basis Set: (AUG-CC-PVTZ AUX)
    Blend: AUG-CC-PVTZ-RI
    Molecular point group: c1

    Geometry (in Angstrom), charge = 0, multiplicity = 1:

       Center              X                  Y                   Z               Mass
    ------------   -----------------  -----------------  -----------------  -----------------
         S            0.727392711713    -0.003404678726     0.898579890163    31.972071174400
         F            1.245390711713     1.087990321274    -1.435382109837    18.998403162730
         F            2.910279711713    -0.003518678726    -0.535464109837    18.998403162730
         F            1.245360711713    -1.095090678726    -1.435252109837    18.998403162730
         O            1.008187511713     1.329663921274     1.435030890163    15.994914619570
         O            1.050623711713    -1.290906678726     1.516282890163    15.994914619570
         C           -0.968065288287    -0.003439678726     0.391708890163    12.000000000000
         C            1.590085711713    -0.003512678726    -0.736674109837    12.000000000000
         C           -1.609160288287    -1.227665678726     0.186330890163    12.000000000000
         C           -1.609165288287     1.220759321274     0.186183890163    12.000000000000
         C           -2.940990288287    -1.216427678726    -0.227992109837    12.000000000000
         C           -2.940995288287     1.209465321274    -0.228138109837    12.000000000000
         C           -3.601970288287    -0.003495678726    -0.440595109837    12.000000000000
         H           -1.080814288287    -2.158012678726     0.374461890163     1.007825032230
         H           -1.080823288287     2.151131321274     0.374202890163     1.007825032230
         H           -3.462815288287    -2.156383678726    -0.386737109837     1.007825032230
         H           -3.462824288287     2.149399321274    -0.386996109837     1.007825032230
         H           -4.639903288287    -0.003516678726    -0.763693109837     1.007825032230

  Basis Set: AUG-CC-PVTZ
    Blend: AUG-CC-PVTZ
  Basis Set: (AUG-CC-PVTZ AUX)
    Blend: AUG-CC-PVTZ-JKFIT
	 Reference Energy          =   -1113.7767129162386937 [Eh]
	 Singles Energy            =      -0.0000000000000000 [Eh]
	 Same-Spin Energy          =      -0.7262445805101370 [Eh]
	 Opposite-Spin Energy      =      -2.0875779107587231 [Eh]
	 Correlation Energy        =      -2.8138224912688603 [Eh]
	 Total Energy              =   -1116.5905354075075593 [Eh]

	 ================> DF-SCS-MP2 Energies <==================
	-----------------------------------------------------------
	 SCS Same-Spin Scale       =       0.3333333333333333 [-]
	 SCS Opposite-Spin Scale   =       1.2000000000000000 [-]
	 SCS Same-Spin Energy      =      -0.2420815268367123 [Eh]
	 SCS Opposite-Spin Energy  =      -2.5050934929104676 [Eh]
	 SCS Correlation Energy    =      -2.7471750197471798 [Eh]
	 SCS Total Energy          =   -1116.5238879359858402 [Eh]
	-----------------------------------------------------------

  Dipole Moment: [D]
     X:    -4.4628      Y:    -0.0916      Z:    -2.1112     Total:     4.9379

*** Psi4 exiting successfully. Buy a developer a beer!
