                               Psi4 1.3.2 release

  ==> Input File <==

--------------------------------------------------------------------------
#psi4
#
memory 32 gb

molecule  {
0 1
  S        0.8137250     0.0000590     0.8799220
  F        1.3317230     1.0914540    -1.4540400
  F        2.9966120    -0.0000550    -0.5541220
  F        1.3316930    -1.0916270    -1.4539100
  O        1.1088290     1.2742567     1.5379728
  O        1.1369560    -1.2874430     1.4976250
  C       -0.8817330     0.0000240     0.3730510
  C        1.6764180    -0.0000490    -0.7553320
  C       -1.5228280    -1.2242020     0.1676730
  C       -1.5228330     1.2242230     0.1675260
  C       -2.8546580    -1.2129640    -0.2466500
  C       -2.8546630     1.2129290    -0.2467960
  C       -3.5156380    -0.0000320    -0.4592530
  H       -0.9944820    -2.1545490     0.3558040
  H       -0.9944910     2.1545950     0.3555450
  H       -3.3764830    -2.1529200    -0.4053950
  H       -3.3764920     2.1528630    -0.4056540
  H       -4.5535710    -0.0000530    -0.7823510
units angstrom
no_reorient  #important for SAPT in psi4, default
symmetry c1  #important for SAPT in psi4, default
}

set PROPERTIES_ORIGIN ["COM"]
properties('MP2/aug-cc-pvtz', properties = ['dipole'])
--------------------------------------------------------------------------

    Molecular point group: c1
  Charge       = 0
  Multiplicity = 1
  Basis Set: AUG-CC-PVTZ
    Blend: AUG-CC-PVTZ
  Basis Set: (AUG-CC-PVTZ AUX)
    Blend: AUG-CC-PVTZ-JKFIT

    Orbital Energies [Eh]
    ---------------------

    Doubly Occupied:

       1A    -92.219483     2A    -26.376239     3A    -26.376027
       4A    -26.373413     5A    -20.577476     6A    -20.576053
       7A    -11.556049     8A    -11.299490     9A    -11.287092
      10A    -11.286980    11A    -11.282022    12A    -11.272519
      13A    -11.272419    14A     -9.188342    15A     -6.873195
      16A     -6.872453    17A     -6.872168    18A     -1.761516
      19A     -1.669778    20A     -1.668924    21A     -1.469121
      22A     -1.360525    23A     -1.198335    24A     -1.086086
      25A     -1.057538    26A     -1.033679    27A     -0.938387
      28A     -0.873404    29A     -0.869994    30A     -0.855141
      31A     -0.853237    32A     -0.802508    33A     -0.751144
      34A     -0.740820    35A     -0.736844    36A     -0.700203
      37A     -0.699470    38A     -0.687966    39A     -0.682628
      40A     -0.677207    41A     -0.671139    42A     -0.651407
      43A     -0.645424    44A     -0.629593    45A     -0.561914
      46A     -0.546484    47A     -0.537308    48A     -0.524960
      49A     -0.519356    50A     -0.499455    51A     -0.471872
      52A     -0.388296    53A     -0.374596

  @DF-RHF Final Energy: -1113.77850893070149

   => Energetics <=

    Nuclear Repulsion Energy =            997.0810462844517588
    One-Electron Energy =               -3518.2037529725275817
    Two-Electron Energy =                1407.3441977573741042
    Total Energy =                      -1113.7785089307014914
  Basis Set: (AUG-CC-PVTZ AUX)
    Blend: AUG-CC-PVTZ-RI
    Molecular point group: c1

    Geometry (in Angstrom), charge = 0, multiplicity = 1:

       Center              X                  Y                   Z               Mass
    ------------   -----------------  -----------------  -----------------  -----------------
         S            0.726302813924     0.001079377947     0.889317922118    31.972071174400
         F            1.244300813924     1.092474377947    -1.444644077882    18.998403162730
         F            2.909189813924     0.000965377947    -0.544726077882    18.998403162730
         F            1.244270813924    -1.090606622053    -1.444514077882    18.998403162730
         O            1.021406813924     1.275277077947     1.547368722118    15.994914619570
         O            1.049533813924    -1.286422622053     1.507020922118    15.994914619570
         C           -0.969155186076     0.001044377947     0.382446922118    12.000000000000
         C            1.588995813924     0.000971377947    -0.745936077882    12.000000000000
         C           -1.610250186076    -1.223181622053     0.177068922118    12.000000000000
         C           -1.610255186076     1.225243377947     0.176921922118    12.000000000000
         C           -2.942080186076    -1.211943622053    -0.237254077882    12.000000000000
         C           -2.942085186076     1.213949377947    -0.237400077882    12.000000000000
         C           -3.603060186076     0.000988377947    -0.449857077882    12.000000000000
         H           -1.081904186076    -2.153528622053     0.365199922118     1.007825032230
         H           -1.081913186076     2.155615377947     0.364940922118     1.007825032230
         H           -3.463905186076    -2.151899622053    -0.395999077882     1.007825032230
         H           -3.463914186076     2.153883377947    -0.396258077882     1.007825032230
         H           -4.640993186076     0.000967377947    -0.772955077882     1.007825032230

  Basis Set: AUG-CC-PVTZ
    Blend: AUG-CC-PVTZ
  Basis Set: (AUG-CC-PVTZ AUX)
    Blend: AUG-CC-PVTZ-JKFIT
	 Reference Energy          =   -1113.7785089307014914 [Eh]
	 Singles Energy            =      -0.0000000000000000 [Eh]
	 Same-Spin Energy          =      -0.7258502442599497 [Eh]
	 Opposite-Spin Energy      =      -2.0869349522651053 [Eh]
	 Correlation Energy        =      -2.8127851965250548 [Eh]
	 Total Energy              =   -1116.5912941272265471 [Eh]

	 ================> DF-SCS-MP2 Energies <==================
	-----------------------------------------------------------
	 SCS Same-Spin Scale       =       0.3333333333333333 [-]
	 SCS Opposite-Spin Scale   =       1.2000000000000000 [-]
	 SCS Same-Spin Energy      =      -0.2419500814199832 [Eh]
	 SCS Opposite-Spin Energy  =      -2.5043219427181262 [Eh]
	 SCS Correlation Energy    =      -2.7462720241381096 [Eh]
	 SCS Total Energy          =   -1116.5247809548395708 [Eh]
	-----------------------------------------------------------

  Dipole Moment: [D]
     X:    -4.5093      Y:     0.0300      Z:    -2.4036     Total:     5.1100

*** Psi4 exiting successfully. Buy a developer a beer!
