                               Psi4 1.3.2 release

  ==> Input File <==

--------------------------------------------------------------------------
#psi4
#
memory 32 gb

molecule  {
0 1
  S        0.8137250     0.0000590     0.8799220
  F        1.3317230     1.0914540    -1.4540400
  F        2.9966120    -0.0000550    -0.5541220
  F        1.3316930    -1.0916270    -1.4539100
  O        1.1369530     1.2876430     1.4974560
  O        1.1369560    -1.2874430     1.4976250
  C       -0.8817330     0.0000240     0.3730510
  C        1.7230787    -0.0000548    -0.8437785
  C       -1.5228280    -1.2242020     0.1676730
  C       -1.5228330     1.2242230     0.1675260
  C       -2.8546580    -1.2129640    -0.2466500
  C       -2.8546630     1.2129290    -0.2467960
  C       -3.5156380    -0.0000320    -0.4592530
  H       -0.9944820    -2.1545490     0.3558040
  H       -0.9944910     2.1545950     0.3555450
  H       -3.3764830    -2.1529200    -0.4053950
  H       -3.3764920     2.1528630    -0.4056540
  H       -4.5535710    -0.0000530    -0.7823510
units angstrom
no_reorient  #important for SAPT in psi4, default
symmetry c1  #important for SAPT in psi4, default
}

set PROPERTIES_ORIGIN ["COM"]
properties('MP2/aug-cc-pvtz', properties = ['dipole'])
--------------------------------------------------------------------------

    Molecular point group: c1
  Charge       = 0
  Multiplicity = 1
  Basis Set: AUG-CC-PVTZ
    Blend: AUG-CC-PVTZ
  Basis Set: (AUG-CC-PVTZ AUX)
    Blend: AUG-CC-PVTZ-JKFIT

    Orbital Energies [Eh]
    ---------------------

    Doubly Occupied:

       1A    -92.205074     2A    -26.385580     3A    -26.385558
       4A    -26.382698     5A    -20.568669     6A    -20.568650
       7A    -11.556512     8A    -11.295246     9A    -11.283179
      10A    -11.283104    11A    -11.278692    12A    -11.269803
      13A    -11.269713    14A     -9.174069    15A     -6.858590
      16A     -6.858139    17A     -6.857916    18A     -1.781882
      19A     -1.690593    20A     -1.689487    21A     -1.458098
      22A     -1.352674    23A     -1.194498    24A     -1.077190
      25A     -1.054341    26A     -1.023682    27A     -0.938097
      28A     -0.877875    29A     -0.875738    30A     -0.868166
      31A     -0.866586    32A     -0.803298    33A     -0.753912
      34A     -0.751162    35A     -0.740562    36A     -0.716137
      37A     -0.715119    38A     -0.694345    39A     -0.683795
      40A     -0.673036    41A     -0.658653    42A     -0.647750
      43A     -0.639053    44A     -0.626469    45A     -0.557769
      46A     -0.542686    47A     -0.534062    48A     -0.517725
      49A     -0.507087    50A     -0.492757    51A     -0.448254
      52A     -0.383867    53A     -0.371795

  @DF-RHF Final Energy: -1113.77386397020678

   => Energetics <=

    Nuclear Repulsion Energy =            996.3232817158457237
    One-Electron Energy =               -3516.8155040453493712
    Two-Electron Energy =                1406.7183583592966443
    Total Energy =                      -1113.7738639702067758
  Basis Set: (AUG-CC-PVTZ AUX)
    Blend: AUG-CC-PVTZ-RI
    Molecular point group: c1

    Geometry (in Angstrom), charge = 0, multiplicity = 1:

       Center              X                  Y                   Z               Mass
    ------------   -----------------  -----------------  -----------------  -----------------
         S            0.721494302102     0.000060106694     0.897458166899    31.972071174400
         F            1.239492302102     1.091455106694    -1.436503833101    18.998403162730
         F            2.904381302102    -0.000053893306    -0.536585833101    18.998403162730
         F            1.239462302102    -1.091625893306    -1.436373833101    18.998403162730
         O            1.044722302102     1.287644106694     1.514992166899    15.994914619570
         O            1.044725302102    -1.287441893306     1.515161166899    15.994914619570
         C           -0.973963697898     0.000025106694     0.390587166899    12.000000000000
         C            1.630848002102    -0.000053693306    -0.826242333101    12.000000000000
         C           -1.615058697898    -1.224200893306     0.185209166899    12.000000000000
         C           -1.615063697898     1.224224106694     0.185062166899    12.000000000000
         C           -2.946888697898    -1.212962893306    -0.229113833101    12.000000000000
         C           -2.946893697898     1.212930106694    -0.229259833101    12.000000000000
         C           -3.607868697898    -0.000030893306    -0.441716833101    12.000000000000
         H           -1.086712697898    -2.154547893306     0.373340166899     1.007825032230
         H           -1.086721697898     2.154596106694     0.373081166899     1.007825032230
         H           -3.468713697898    -2.152918893306    -0.387858833101     1.007825032230
         H           -3.468722697898     2.152864106694    -0.388117833101     1.007825032230
         H           -4.645801697898    -0.000051893306    -0.764814833101     1.007825032230

  Basis Set: AUG-CC-PVTZ
    Blend: AUG-CC-PVTZ
  Basis Set: (AUG-CC-PVTZ AUX)
    Blend: AUG-CC-PVTZ-JKFIT
	 Reference Energy          =   -1113.7738639702067758 [Eh]
	 Singles Energy            =      -0.0000000000000000 [Eh]
	 Same-Spin Energy          =      -0.7258117732732413 [Eh]
	 Opposite-Spin Energy      =      -2.0855800966275959 [Eh]
	 Correlation Energy        =      -2.8113918699008371 [Eh]
	 Total Energy              =   -1116.5852558401077204 [Eh]

	 ================> DF-SCS-MP2 Energies <==================
	-----------------------------------------------------------
	 SCS Same-Spin Scale       =       0.3333333333333333 [-]
	 SCS Opposite-Spin Scale   =       1.2000000000000000 [-]
	 SCS Same-Spin Energy      =      -0.2419372577577471 [Eh]
	 SCS Opposite-Spin Energy  =      -2.5026961159531149 [Eh]
	 SCS Correlation Energy    =      -2.7446333737108621 [Eh]
	 SCS Total Energy          =   -1116.5184973439177156 [Eh]
	-----------------------------------------------------------

  Dipole Moment: [D]
     X:    -4.0746      Y:    -0.0002      Z:    -2.9078     Total:     5.0057

*** Psi4 exiting successfully. Buy a developer a beer!
