                               Psi4 1.3.2 release

  ==> Input File <==

--------------------------------------------------------------------------
#psi4
#
memory 32 gb

molecule  {
0 1
  S        0.8137250     0.0000590     0.8799220
  F        1.3317230     1.0914540    -1.4540400
  F        2.9966120    -0.0000550    -0.5541220
  F        1.3316930    -1.0916270    -1.4539100
  O        1.2787454     1.2331676     1.5178062
  O        1.1369560    -1.2874430     1.4976250
  C       -0.8817330     0.0000240     0.3730510
  C        1.6764180    -0.0000490    -0.7553320
  C       -1.5228280    -1.2242020     0.1676730
  C       -1.5228330     1.2242230     0.1675260
  C       -2.8546580    -1.2129640    -0.2466500
  C       -2.8546630     1.2129290    -0.2467960
  C       -3.5156380    -0.0000320    -0.4592530
  H       -0.9944820    -2.1545490     0.3558040
  H       -0.9944910     2.1545950     0.3555450
  H       -3.3764830    -2.1529200    -0.4053950
  H       -3.3764920     2.1528630    -0.4056540
  H       -4.5535710    -0.0000530    -0.7823510
units angstrom
no_reorient  #important for SAPT in psi4, default
symmetry c1  #important for SAPT in psi4, default
}

set PROPERTIES_ORIGIN ["COM"]
properties('MP2/aug-cc-pvtz', properties = ['dipole'])
--------------------------------------------------------------------------

    Molecular point group: c1
  Charge       = 0
  Multiplicity = 1
  Basis Set: AUG-CC-PVTZ
    Blend: AUG-CC-PVTZ
  Basis Set: (AUG-CC-PVTZ AUX)
    Blend: AUG-CC-PVTZ-JKFIT

    Orbital Energies [Eh]
    ---------------------

    Doubly Occupied:

       1A    -92.218073     2A    -26.372251     3A    -26.371396
       4A    -26.368512     5A    -20.575718     6A    -20.570878
       7A    -11.549370     8A    -11.306012     9A    -11.292061
      10A    -11.291542    11A    -11.285890    12A    -11.276211
      13A    -11.276111    14A     -9.187009    15A     -6.871870
      16A     -6.871065    17A     -6.870835    18A     -1.757091
      19A     -1.665862    20A     -1.664116    21A     -1.467422
      22A     -1.355363    23A     -1.202945    24A     -1.089712
      25A     -1.061598    26A     -1.030310    27A     -0.938235
      28A     -0.874127    29A     -0.872467    30A     -0.850933
      31A     -0.849300    32A     -0.804126    33A     -0.750157
      34A     -0.737095    35A     -0.734163    36A     -0.697891
      37A     -0.695588    38A     -0.688249    39A     -0.679475
      40A     -0.677992    41A     -0.667927    42A     -0.654128
      43A     -0.643525    44A     -0.633148    45A     -0.565818
      46A     -0.550650    47A     -0.541087    48A     -0.520885
      49A     -0.517983    50A     -0.494716    51A     -0.471099
      52A     -0.392653    53A     -0.378381

  @DF-RHF Final Energy: -1113.77753917472182

   => Energetics <=

    Nuclear Repulsion Energy =            996.8548728487766084
    One-Electron Energy =               -3517.8027775062378169
    Two-Electron Energy =                1407.1703654827392711
    Total Energy =                      -1113.7775391747218237
  Basis Set: (AUG-CC-PVTZ AUX)
    Blend: AUG-CC-PVTZ-RI
    Molecular point group: c1

    Geometry (in Angstrom), charge = 0, multiplicity = 1:

       Center              X                  Y                   Z               Mass
    ------------   -----------------  -----------------  -----------------  -----------------
         S            0.713360685177     0.004209037134     0.890853964157    31.972071174400
         F            1.231358685177     1.095604037134    -1.443108035843    18.998403162730
         F            2.896247685177     0.004095037134    -0.543190035843    18.998403162730
         F            1.231328685177    -1.087476962866    -1.442978035843    18.998403162730
         O            1.178381085177     1.237317637134     1.528738164157    15.994914619570
         O            1.036591685177    -1.283292962866     1.508556964157    15.994914619570
         C           -0.982097314823     0.004174037134     0.383982964157    12.000000000000
         C            1.576053685177     0.004101037134    -0.744400035843    12.000000000000
         C           -1.623192314823    -1.220051962866     0.178604964157    12.000000000000
         C           -1.623197314823     1.228373037134     0.178457964157    12.000000000000
         C           -2.955022314823    -1.208813962866    -0.235718035843    12.000000000000
         C           -2.955027314823     1.217079037134    -0.235864035843    12.000000000000
         C           -3.616002314823     0.004118037134    -0.448321035843    12.000000000000
         H           -1.094846314823    -2.150398962866     0.366735964157     1.007825032230
         H           -1.094855314823     2.158745037134     0.366476964157     1.007825032230
         H           -3.476847314823    -2.148769962866    -0.394463035843     1.007825032230
         H           -3.476856314823     2.157013037134    -0.394722035843     1.007825032230
         H           -4.653935314823     0.004097037134    -0.771419035843     1.007825032230

  Basis Set: AUG-CC-PVTZ
    Blend: AUG-CC-PVTZ
  Basis Set: (AUG-CC-PVTZ AUX)
    Blend: AUG-CC-PVTZ-JKFIT
	 Reference Energy          =   -1113.7775391747218237 [Eh]
	 Singles Energy            =      -0.0000000000000000 [Eh]
	 Same-Spin Energy          =      -0.7255996046877804 [Eh]
	 Opposite-Spin Energy      =      -2.0864746263948142 [Eh]
	 Correlation Energy        =      -2.8120742310825948 [Eh]
	 Total Energy              =   -1116.5896134058043572 [Eh]

	 ================> DF-SCS-MP2 Energies <==================
	-----------------------------------------------------------
	 SCS Same-Spin Scale       =       0.3333333333333333 [-]
	 SCS Opposite-Spin Scale   =       1.2000000000000000 [-]
	 SCS Same-Spin Energy      =      -0.2418665348959268 [Eh]
	 SCS Opposite-Spin Energy  =      -2.5037695516737770 [Eh]
	 SCS Correlation Energy    =      -2.7456360865697036 [Eh]
	 SCS Total Energy          =   -1116.5231752612914988 [Eh]
	-----------------------------------------------------------

  Dipole Moment: [D]
     X:    -5.0539      Y:     0.1017      Z:    -2.3786     Total:     5.5866

*** Psi4 exiting successfully. Buy a developer a beer!
