                               Psi4 1.3.2 release

  ==> Input File <==

--------------------------------------------------------------------------
#psi4
#
memory 32 gb

molecule  {
0 1
  S        0.8133712     0.0309411     0.8801623
  F        1.3317230     1.0914540    -1.4540400
  F        2.9966120    -0.0000550    -0.5541220
  F        1.3316930    -1.0916270    -1.4539100
  O        1.1369530     1.2876430     1.4974560
  O        1.1369560    -1.2874430     1.4976250
  C       -0.8817330     0.0000240     0.3730510
  C        1.6764180    -0.0000490    -0.7553320
  C       -1.5228280    -1.2242020     0.1676730
  C       -1.5228330     1.2242230     0.1675260
  C       -2.8546580    -1.2129640    -0.2466500
  C       -2.8546630     1.2129290    -0.2467960
  C       -3.5156380    -0.0000320    -0.4592530
  H       -0.9944820    -2.1545490     0.3558040
  H       -0.9944910     2.1545950     0.3555450
  H       -3.3764830    -2.1529200    -0.4053950
  H       -3.3764920     2.1528630    -0.4056540
  H       -4.5535710    -0.0000530    -0.7823510
units angstrom
no_reorient  #important for SAPT in psi4, default
symmetry c1  #important for SAPT in psi4, default
}

set PROPERTIES_ORIGIN ["COM"]
properties('MP2/aug-cc-pvtz', properties = ['dipole'])
--------------------------------------------------------------------------

    Molecular point group: c1
  Charge       = 0
  Multiplicity = 1
  Basis Set: AUG-CC-PVTZ
    Blend: AUG-CC-PVTZ
  Basis Set: (AUG-CC-PVTZ AUX)
    Blend: AUG-CC-PVTZ-JKFIT

    Orbital Energies [Eh]
    ---------------------

    Doubly Occupied:

       1A    -92.219310     2A    -26.374204     3A    -26.374028
       4A    -26.371634     5A    -20.583437     6A    -20.571355
       7A    -11.553222     8A    -11.300294     9A    -11.287717
      10A    -11.287528    11A    -11.282564    12A    -11.272944
      13A    -11.272859    14A     -9.188266    15A     -6.873097
      16A     -6.872457    17A     -6.872022    18A     -1.759616
      19A     -1.667938    20A     -1.667037    21A     -1.473527
      22A     -1.358291    23A     -1.198854    24A     -1.085951
      25A     -1.058021    26A     -1.031971    27A     -0.937568
      28A     -0.872871    29A     -0.870371    30A     -0.853256
      31A     -0.851543    32A     -0.802916    33A     -0.751151
      34A     -0.739177    35A     -0.735625    36A     -0.698979
      37A     -0.697771    38A     -0.688237    39A     -0.680890
      40A     -0.677959    41A     -0.670919    42A     -0.652018
      43A     -0.646406    44A     -0.630021    45A     -0.562958
      46A     -0.547142    47A     -0.537872    48A     -0.526412
      49A     -0.519310    50A     -0.498600    51A     -0.470300
      52A     -0.388907    53A     -0.375044

  @DF-RHF Final Energy: -1113.77714539752992

   => Energetics <=

    Nuclear Repulsion Energy =            997.4157525083592191
    One-Electron Energy =               -3518.9010688332177779
    Two-Electron Energy =                1407.7081709273286378
    Total Energy =                      -1113.7771453975299210
  Basis Set: (AUG-CC-PVTZ AUX)
    Blend: AUG-CC-PVTZ-RI
    Molecular point group: c1

    Geometry (in Angstrom), charge = 0, multiplicity = 1:

       Center              X                  Y                   Z               Mass
    ------------   -----------------  -----------------  -----------------  -----------------
         S            0.723860741913     0.026240054301     0.892607704732    31.972071174400
         F            1.242212541913     1.086752954301    -1.441594595268    18.998403162730
         F            2.907101541913    -0.004756045699    -0.541676595268    18.998403162730
         F            1.242182541913    -1.096328045699    -1.441464595268    18.998403162730
         O            1.047442541913     1.282941954301     1.509901404732    15.994914619570
         O            1.047445541913    -1.292144045699     1.510070404732    15.994914619570
         C           -0.971243458087    -0.004677045699     0.385496404732    12.000000000000
         C            1.586907541913    -0.004750045699    -0.742886595268    12.000000000000
         C           -1.612338458087    -1.228903045699     0.180118404732    12.000000000000
         C           -1.612343458087     1.219521954301     0.179971404732    12.000000000000
         C           -2.944168458087    -1.217665045699    -0.234204595268    12.000000000000
         C           -2.944173458087     1.208227954301    -0.234350595268    12.000000000000
         C           -3.605148458087    -0.004733045699    -0.446807595268    12.000000000000
         H           -1.083992458087    -2.159250045699     0.368249404732     1.007825032230
         H           -1.084001458087     2.149893954301     0.367990404732     1.007825032230
         H           -3.465993458087    -2.157621045699    -0.392949595268     1.007825032230
         H           -3.466002458087     2.148161954301    -0.393208595268     1.007825032230
         H           -4.643081458087    -0.004754045699    -0.769905595268     1.007825032230

  Basis Set: AUG-CC-PVTZ
    Blend: AUG-CC-PVTZ
  Basis Set: (AUG-CC-PVTZ AUX)
    Blend: AUG-CC-PVTZ-JKFIT
	 Reference Energy          =   -1113.7771453975299210 [Eh]
	 Singles Energy            =      -0.0000000000000000 [Eh]
	 Same-Spin Energy          =      -0.7258240722677352 [Eh]
	 Opposite-Spin Energy      =      -2.0868881312080276 [Eh]
	 Correlation Energy        =      -2.8127122034757628 [Eh]
	 Total Energy              =   -1116.5898576010056331 [Eh]

	 ================> DF-SCS-MP2 Energies <==================
	-----------------------------------------------------------
	 SCS Same-Spin Scale       =       0.3333333333333333 [-]
	 SCS Opposite-Spin Scale   =       1.2000000000000000 [-]
	 SCS Same-Spin Energy      =      -0.2419413574225784 [Eh]
	 SCS Opposite-Spin Energy  =      -2.5042657574496330 [Eh]
	 SCS Correlation Energy    =      -2.7462071148722114 [Eh]
	 SCS Total Energy          =   -1116.5233525124021980 [Eh]
	-----------------------------------------------------------

  Dipole Moment: [D]
     X:    -4.6053      Y:     0.2416      Z:    -2.3125     Total:     5.1590

*** Psi4 exiting successfully. Buy a developer a beer!
