                               Psi4 1.4a3.dev225

  ==> Input File <==

--------------------------------------------------------------------------
#psi4
#
memory 32 gb

molecule  {
0 1
  S        0.8137250     0.0000590     0.8799220
  F        1.3317230     1.0914540    -1.4540400
  F        2.9966120    -0.0000550    -0.5541220
  F        1.3316930    -1.0916270    -1.4539100
  O        1.1369530     1.2876430     1.4974560
  O        1.1369560    -1.2874430     1.4976250
  C       -0.8817330     0.0000240     0.3730510
  C        1.6670859    -0.0000478    -0.7376427
  C       -1.5228280    -1.2242020     0.1676730
  C       -1.5228330     1.2242230     0.1675260
  C       -2.8546580    -1.2129640    -0.2466500
  C       -2.8546630     1.2129290    -0.2467960
  C       -3.5156380    -0.0000320    -0.4592530
  H       -0.9944820    -2.1545490     0.3558040
  H       -0.9944910     2.1545950     0.3555450
  H       -3.3764830    -2.1529200    -0.4053950
  H       -3.3764920     2.1528630    -0.4056540
  H       -4.5535710    -0.0000530    -0.7823510
units angstrom
no_reorient  #important for SAPT in psi4, default
symmetry c1  #important for SAPT in psi4, default
}

set PROPERTIES_ORIGIN ["COM"]
properties('MP2/aug-cc-pvtz', properties = ['dipole'])
--------------------------------------------------------------------------

    Molecular point group: c1
  Charge       = 0
  Multiplicity = 1
  Basis Set: AUG-CC-PVTZ
    Blend: AUG-CC-PVTZ
  Basis Set: (AUG-CC-PVTZ AUX)
    Blend: AUG-CC-PVTZ-JKFIT

    Orbital Energies [Eh]
    ---------------------

    Doubly Occupied:

       1A    -92.222070     2A    -26.372228     3A    -26.372207
       4A    -26.369823     5A    -20.579022     6A    -20.579003
       7A    -11.553485     8A    -11.301169     9A    -11.288468
      10A    -11.288396    11A    -11.283271    12A    -11.273506
      13A    -11.273423    14A     -9.190918    15A     -6.875851
      16A     -6.875049    17A     -6.874721    18A     -1.755200
      19A     -1.663516    20A     -1.662785    21A     -1.471489
      22A     -1.363556    23A     -1.199673    24A     -1.088103
      25A     -1.058693    26A     -1.034816    27A     -0.937029
      28A     -0.872871    29A     -0.871189    30A     -0.848884
      31A     -0.847460    32A     -0.802628    33A     -0.751207
      34A     -0.736919    35A     -0.733906    36A     -0.696597
      37A     -0.694363    38A     -0.687611    39A     -0.679040
      40A     -0.677837    41A     -0.672332    42A     -0.652536
      43A     -0.647494    44A     -0.630701    45A     -0.563174
      46A     -0.547698    47A     -0.538463    48A     -0.527784
      49A     -0.521562    50A     -0.502047    51A     -0.474985
      52A     -0.389799    53A     -0.375634

  @DF-RHF Final Energy: -1113.77731412604544

   => Energetics <=

    Nuclear Repulsion Energy =            997.6167150018590064
    One-Electron Energy =               -3519.2836789329940075
    Two-Electron Energy =                1407.8896498050894479
    Total Energy =                      -1113.7773141260454395
  Basis Set: (AUG-CC-PVTZ AUX)
    Blend: AUG-CC-PVTZ-RI
    Molecular point group: c1

    Geometry (in Angstrom), charge = 0, multiplicity = 1:

       Center              X                  Y                   Z               Mass
    ------------   -----------------  -----------------  -----------------  -----------------
         S            0.724693948038     0.000059706687     0.891393155307    31.972071174400
         F            1.242691948038     1.091454706687    -1.442568844693    18.998403162730
         F            2.907580948038    -0.000054293313    -0.542650844693    18.998403162730
         F            1.242661948038    -1.091626293313    -1.442438844693    18.998403162730
         O            1.047921948038     1.287643706687     1.508927155307    15.994914619570
         O            1.047924948038    -1.287442293313     1.509096155307    15.994914619570
         C           -0.970764051962     0.000024706687     0.384522155307    12.000000000000
         C            1.578054848038    -0.000047093313    -0.726171544693    12.000000000000
         C           -1.611859051962    -1.224201293313     0.179144155307    12.000000000000
         C           -1.611864051962     1.224223706687     0.178997155307    12.000000000000
         C           -2.943689051962    -1.212963293313    -0.235178844693    12.000000000000
         C           -2.943694051962     1.212929706687    -0.235324844693    12.000000000000
         C           -3.604669051962    -0.000031293313    -0.447781844693    12.000000000000
         H           -1.083513051962    -2.154548293313     0.367275155307     1.007825032230
         H           -1.083522051962     2.154595706687     0.367016155307     1.007825032230
         H           -3.465514051962    -2.152919293313    -0.393923844693     1.007825032230
         H           -3.465523051962     2.152863706687    -0.394182844693     1.007825032230
         H           -4.642602051962    -0.000052293313    -0.770879844693     1.007825032230

  Basis Set: AUG-CC-PVTZ
    Blend: AUG-CC-PVTZ
  Basis Set: (AUG-CC-PVTZ AUX)
    Blend: AUG-CC-PVTZ-JKFIT
	 Reference Energy          =   -1113.7773141260454395 [Eh]
	 Singles Energy            =      -0.0000000000000000 [Eh]
	 Same-Spin Energy          =      -0.7259953824573530 [Eh]
	 Opposite-Spin Energy      =      -2.0874618302071162 [Eh]
	 Correlation Energy        =      -2.8134572126644692 [Eh]
	 Total Energy              =   -1116.5907713387098283 [Eh]

	 ================> DF-SCS-MP2 Energies <==================
	-----------------------------------------------------------
	 SCS Same-Spin Scale       =       0.3333333333333333 [-]
	 SCS Opposite-Spin Scale   =       1.2000000000000000 [-]
	 SCS Same-Spin Energy      =      -0.2419984608191176 [Eh]
	 SCS Opposite-Spin Energy  =      -2.5049541962485393 [Eh]
	 SCS Correlation Energy    =      -2.7469526570676570 [Eh]
	 SCS Total Energy          =   -1116.5242667831130348 [Eh]
	-----------------------------------------------------------

  Dipole Moment: [D]
     X:    -4.6985      Y:    -0.0001      Z:    -2.2029     Total:     5.1892

*** Psi4 exiting successfully. Buy a developer a beer!
