                               Psi4 1.3.2 release

  ==> Input File <==

--------------------------------------------------------------------------
#psi4
#
memory 32 gb

molecule  {
0 1
  S        0.8137250     0.0000590     0.8799220
  F        1.3317230     1.0914540    -1.4540400
  F        2.9966120    -0.0000550    -0.5541220
  F        1.3316930    -1.0916270    -1.4539100
  O        1.1129340     1.2953646     1.4933994
  O        1.1369560    -1.2874430     1.4976250
  C       -0.8817330     0.0000240     0.3730510
  C        1.6764180    -0.0000490    -0.7553320
  C       -1.5228280    -1.2242020     0.1676730
  C       -1.5228330     1.2242230     0.1675260
  C       -2.8546580    -1.2129640    -0.2466500
  C       -2.8546630     1.2129290    -0.2467960
  C       -3.5156380    -0.0000320    -0.4592530
  H       -0.9944820    -2.1545490     0.3558040
  H       -0.9944910     2.1545950     0.3555450
  H       -3.3764830    -2.1529200    -0.4053950
  H       -3.3764920     2.1528630    -0.4056540
  H       -4.5535710    -0.0000530    -0.7823510
units angstrom
no_reorient  #important for SAPT in psi4, default
symmetry c1  #important for SAPT in psi4, default
}

set PROPERTIES_ORIGIN ["COM"]
properties('MP2/aug-cc-pvtz', properties = ['dipole'])
--------------------------------------------------------------------------

    Molecular point group: c1
  Charge       = 0
  Multiplicity = 1
  Basis Set: AUG-CC-PVTZ
    Blend: AUG-CC-PVTZ
  Basis Set: (AUG-CC-PVTZ AUX)
    Blend: AUG-CC-PVTZ-JKFIT

    Orbital Energies [Eh]
    ---------------------

    Doubly Occupied:

       1A    -92.219906     2A    -26.374655     3A    -26.374518
       4A    -26.372226     5A    -20.578509     6A    -20.577670
       7A    -11.553972     8A    -11.299277     9A    -11.286928
      10A    -11.286811    11A    -11.281969    12A    -11.272355
      13A    -11.272270    14A     -9.188674    15A     -6.873531
      16A     -6.872824    17A     -6.872482    18A     -1.760124
      19A     -1.668309    20A     -1.667661    21A     -1.469657
      22A     -1.362898    23A     -1.198132    24A     -1.085324
      25A     -1.057388    26A     -1.032410    27A     -0.937504
      28A     -0.872773    29A     -0.869839    30A     -0.853744
      31A     -0.852005    32A     -0.802616    33A     -0.751114
      34A     -0.739557    35A     -0.735919    36A     -0.699176
      37A     -0.698176    38A     -0.687634    39A     -0.681346
      40A     -0.677480    41A     -0.670566    42A     -0.651404
      43A     -0.646571    44A     -0.629501    45A     -0.561718
      46A     -0.546278    47A     -0.537216    48A     -0.527024
      49A     -0.519230    50A     -0.501496    51A     -0.471187
      52A     -0.388239    53A     -0.374447

  @DF-RHF Final Energy: -1113.77847509497042

   => Energetics <=

    Nuclear Repulsion Energy =            997.5275763593158445
    One-Electron Energy =               -3519.1236202485870308
    Two-Electron Energy =                1407.8175687943007688
    Total Energy =                      -1113.7784750949704176
  Basis Set: (AUG-CC-PVTZ AUX)
    Blend: AUG-CC-PVTZ-RI
    Molecular point group: c1

    Geometry (in Angstrom), charge = 0, multiplicity = 1:

       Center              X                  Y                   Z               Mass
    ------------   -----------------  -----------------  -----------------  -----------------
         S            0.725990145821    -0.000528360679     0.892712972163    31.972071174400
         F            1.243988145821     1.090866639321    -1.441249027837    18.998403162730
         F            2.908877145821    -0.000642360679    -0.541331027837    18.998403162730
         F            1.243958145821    -1.092214360679    -1.441119027837    18.998403162730
         O            1.025199145821     1.294777239321     1.506190372163    15.994914619570
         O            1.049221145821    -1.288030360679     1.510415972163    15.994914619570
         C           -0.969467854179    -0.000563360679     0.385841972163    12.000000000000
         C            1.588683145821    -0.000636360679    -0.742541027837    12.000000000000
         C           -1.610562854179    -1.224789360679     0.180463972163    12.000000000000
         C           -1.610567854179     1.223635639321     0.180316972163    12.000000000000
         C           -2.942392854179    -1.213551360679    -0.233859027837    12.000000000000
         C           -2.942397854179     1.212341639321    -0.234005027837    12.000000000000
         C           -3.603372854179    -0.000619360679    -0.446462027837    12.000000000000
         H           -1.082216854179    -2.155136360679     0.368594972163     1.007825032230
         H           -1.082225854179     2.154007639321     0.368335972163     1.007825032230
         H           -3.464217854179    -2.153507360679    -0.392604027837     1.007825032230
         H           -3.464226854179     2.152275639321    -0.392863027837     1.007825032230
         H           -4.641305854179    -0.000640360679    -0.769560027837     1.007825032230

  Basis Set: AUG-CC-PVTZ
    Blend: AUG-CC-PVTZ
  Basis Set: (AUG-CC-PVTZ AUX)
    Blend: AUG-CC-PVTZ-JKFIT
	 Reference Energy          =   -1113.7784750949704176 [Eh]
	 Singles Energy            =      -0.0000000000000000 [Eh]
	 Same-Spin Energy          =      -0.7259446929318563 [Eh]
	 Opposite-Spin Energy      =      -2.0870698342910425 [Eh]
	 Correlation Energy        =      -2.8130145272228990 [Eh]
	 Total Energy              =   -1116.5914896221934214 [Eh]

	 ================> DF-SCS-MP2 Energies <==================
	-----------------------------------------------------------
	 SCS Same-Spin Scale       =       0.3333333333333333 [-]
	 SCS Opposite-Spin Scale   =       1.2000000000000000 [-]
	 SCS Same-Spin Energy      =      -0.2419815643106187 [Eh]
	 SCS Opposite-Spin Energy  =      -2.5044838011492510 [Eh]
	 SCS Correlation Energy    =      -2.7464653654598696 [Eh]
	 SCS Total Energy          =   -1116.5249404604303436 [Eh]
	-----------------------------------------------------------

  Dipole Moment: [D]
     X:    -4.5227      Y:    -0.0144      Z:    -2.2982     Total:     5.0731

*** Psi4 exiting successfully. Buy a developer a beer!
