                               Psi4 1.3.2 release

  ==> Input File <==

--------------------------------------------------------------------------
#psi4
#
memory 32 gb

molecule  {
0 1
  S        0.8137250     0.0000590     0.8799220
  F        1.3317230     1.0914540    -1.4540400
  F        2.9966120    -0.0000550    -0.5541220
  F        1.3316930    -1.0916270    -1.4539100
  O        1.0515371     1.2428452     1.6165529
  O        1.1369560    -1.2874430     1.4976250
  C       -0.8817330     0.0000240     0.3730510
  C        1.6764180    -0.0000490    -0.7553320
  C       -1.5228280    -1.2242020     0.1676730
  C       -1.5228330     1.2242230     0.1675260
  C       -2.8546580    -1.2129640    -0.2466500
  C       -2.8546630     1.2129290    -0.2467960
  C       -3.5156380    -0.0000320    -0.4592530
  H       -0.9944820    -2.1545490     0.3558040
  H       -0.9944910     2.1545950     0.3555450
  H       -3.3764830    -2.1529200    -0.4053950
  H       -3.3764920     2.1528630    -0.4056540
  H       -4.5535710    -0.0000530    -0.7823510
units angstrom
no_reorient  #important for SAPT in psi4, default
symmetry c1  #important for SAPT in psi4, default
}

set PROPERTIES_ORIGIN ["COM"]
properties('MP2/aug-cc-pvtz', properties = ['dipole'])
--------------------------------------------------------------------------

    Molecular point group: c1
  Charge       = 0
  Multiplicity = 1
  Basis Set: AUG-CC-PVTZ
    Blend: AUG-CC-PVTZ
  Basis Set: (AUG-CC-PVTZ AUX)
    Blend: AUG-CC-PVTZ-JKFIT

    Orbital Energies [Eh]
    ---------------------

    Doubly Occupied:

       1A    -92.219029     2A    -26.380115     3A    -26.379522
       4A    -26.376667     5A    -20.577420     6A    -20.573212
       7A    -11.561319     8A    -11.297972     9A    -11.285992
      10A    -11.285700    11A    -11.280892    12A    -11.271705
      13A    -11.271518    14A     -9.188075    15A     -6.872918
      16A     -6.872130    17A     -6.871908    18A     -1.764991
      19A     -1.673247    20A     -1.672273    21A     -1.468814
      22A     -1.357678    23A     -1.197264    24A     -1.086387
      25A     -1.056552    26A     -1.036460    27A     -0.939990
      28A     -0.874581    29A     -0.869005    30A     -0.858569
      31A     -0.856205    32A     -0.801897    33A     -0.751787
      34A     -0.743901    35A     -0.738769    36A     -0.702851
      37A     -0.702614    38A     -0.688087    39A     -0.685873
      40A     -0.676177    41A     -0.672869    42A     -0.650547
      43A     -0.643663    44A     -0.628654    45A     -0.561101
      46A     -0.545641    47A     -0.536357    48A     -0.522271
      49A     -0.519907    50A     -0.496858    51A     -0.472633
      52A     -0.386946    53A     -0.373688

  @DF-RHF Final Energy: -1113.77639491631066

   => Energetics <=

    Nuclear Repulsion Energy =            996.5223322660635858
    One-Electron Energy =               -3517.0350414693825769
    Two-Electron Energy =                1406.7363142870083266
    Total Energy =                      -1113.7763949163106645
  Basis Set: (AUG-CC-PVTZ AUX)
    Blend: AUG-CC-PVTZ-RI
    Molecular point group: c1

    Geometry (in Angstrom), charge = 0, multiplicity = 1:

       Center              X                  Y                   Z               Mass
    ------------   -----------------  -----------------  -----------------  -----------------
         S            0.730666601916     0.003471917320     0.883332662477    31.972071174400
         F            1.248664601916     1.094866917320    -1.450629337523    18.998403162730
         F            2.913553601916     0.003357917320    -0.550711337523    18.998403162730
         F            1.248634601916    -1.088214082680    -1.450499337523    18.998403162730
         O            0.968478701916     1.246258117320     1.619963562477    15.994914619570
         O            1.053897601916    -1.284030082680     1.501035662477    15.994914619570
         C           -0.964791398084     0.003436917320     0.376461662477    12.000000000000
         C            1.593359601916     0.003363917320    -0.751921337523    12.000000000000
         C           -1.605886398084    -1.220789082680     0.171083662477    12.000000000000
         C           -1.605891398084     1.227635917320     0.170936662477    12.000000000000
         C           -2.937716398084    -1.209551082680    -0.243239337523    12.000000000000
         C           -2.937721398084     1.216341917320    -0.243385337523    12.000000000000
         C           -3.598696398084     0.003380917320    -0.455842337523    12.000000000000
         H           -1.077540398084    -2.151136082680     0.359214662477     1.007825032230
         H           -1.077549398084     2.158007917320     0.358955662477     1.007825032230
         H           -3.459541398084    -2.149507082680    -0.401984337523     1.007825032230
         H           -3.459550398084     2.156275917320    -0.402243337523     1.007825032230
         H           -4.636629398084     0.003359917320    -0.778940337523     1.007825032230

  Basis Set: AUG-CC-PVTZ
    Blend: AUG-CC-PVTZ
  Basis Set: (AUG-CC-PVTZ AUX)
    Blend: AUG-CC-PVTZ-JKFIT
	 Reference Energy          =   -1113.7763949163106645 [Eh]
	 Singles Energy            =      -0.0000000000000000 [Eh]
	 Same-Spin Energy          =      -0.7258948369663043 [Eh]
	 Opposite-Spin Energy      =      -2.0871130739812687 [Eh]
	 Correlation Energy        =      -2.8130079109475732 [Eh]
	 Total Energy              =   -1116.5894028272582545 [Eh]

	 ================> DF-SCS-MP2 Energies <==================
	-----------------------------------------------------------
	 SCS Same-Spin Scale       =       0.3333333333333333 [-]
	 SCS Opposite-Spin Scale   =       1.2000000000000000 [-]
	 SCS Same-Spin Energy      =      -0.2419649456554347 [Eh]
	 SCS Opposite-Spin Energy  =      -2.5045356887775223 [Eh]
	 SCS Correlation Energy    =      -2.7465006344329570 [Eh]
	 SCS Total Energy          =   -1116.5228955507436694 [Eh]
	-----------------------------------------------------------

  Dipole Moment: [D]
     X:    -4.3228      Y:     0.0992      Z:    -2.5779     Total:     5.0341

*** Psi4 exiting successfully. Buy a developer a beer!
