                               Psi4 1.3.2 release

  ==> Input File <==

--------------------------------------------------------------------------
#psi4
#
memory 32 gb

molecule  {
0 1
  S        0.8137250     0.0000590     0.8799220
  F        1.3317230     1.0914540    -1.4540400
  F        2.9966120    -0.0000550    -0.5541220
  F        1.3316930    -1.0916270    -1.4539100
  O        1.1229381     1.2811450     1.5178116
  O        1.1369560    -1.2874430     1.4976250
  C       -0.8817330     0.0000240     0.3730510
  C        1.6764180    -0.0000490    -0.7553320
  C       -1.5228280    -1.2242020     0.1676730
  C       -1.5228330     1.2242230     0.1675260
  C       -2.8546580    -1.2129640    -0.2466500
  C       -2.8546630     1.2129290    -0.2467960
  C       -3.5156380    -0.0000320    -0.4592530
  H       -0.9944820    -2.1545490     0.3558040
  H       -0.9944910     2.1545950     0.3555450
  H       -3.3764830    -2.1529200    -0.4053950
  H       -3.3764920     2.1528630    -0.4056540
  H       -4.5535710    -0.0000530    -0.7823510
units angstrom
no_reorient  #important for SAPT in psi4, default
symmetry c1  #important for SAPT in psi4, default
}

set PROPERTIES_ORIGIN ["COM"]
properties('MP2/aug-cc-pvtz', properties = ['dipole'])
--------------------------------------------------------------------------

    Molecular point group: c1
  Charge       = 0
  Multiplicity = 1
  Basis Set: AUG-CC-PVTZ
    Blend: AUG-CC-PVTZ
  Basis Set: (AUG-CC-PVTZ AUX)
    Blend: AUG-CC-PVTZ-JKFIT

    Orbital Energies [Eh]
    ---------------------

    Doubly Occupied:

       1A    -92.219578     2A    -26.375224     3A    -26.375114
       4A    -26.372565     5A    -20.577463     6A    -20.576749
       7A    -11.554685     8A    -11.299879     9A    -11.287370
      10A    -11.287286    11A    -11.282295    12A    -11.272726
      13A    -11.272638    14A     -9.188397    15A     -6.873252
      16A     -6.872520    17A     -6.872219    18A     -1.760610
      19A     -1.668872    20A     -1.668052    21A     -1.469213
      22A     -1.361202    23A     -1.198598    24A     -1.086029
      25A     -1.057781    26A     -1.032915    27A     -0.937990
      28A     -0.873083    29A     -0.870239    30A     -0.854248
      31A     -0.852444    32A     -0.802668    33A     -0.751040
      34A     -0.740018    35A     -0.736276    36A     -0.699568
      37A     -0.698643    38A     -0.687890    39A     -0.681790
      40A     -0.677443    41A     -0.670680    42A     -0.651614
      43A     -0.645830    44A     -0.629823    45A     -0.562124
      46A     -0.546702    47A     -0.537543    48A     -0.525597
      49A     -0.519210    50A     -0.500053    51A     -0.471589
      52A     -0.388612    53A     -0.374820

  @DF-RHF Final Energy: -1113.77871608985174

   => Energetics <=

    Nuclear Repulsion Energy =            997.2400555987974258
    One-Electron Energy =               -3518.5360022970630780
    Two-Electron Energy =                1407.5172306084139109
    Total Energy =                      -1113.7787160898517413
  Basis Set: (AUG-CC-PVTZ AUX)
    Blend: AUG-CC-PVTZ-RI
    Molecular point group: c1

    Geometry (in Angstrom), charge = 0, multiplicity = 1:

       Center              X                  Y                   Z               Mass
    ------------   -----------------  -----------------  -----------------  -----------------
         S            0.725228157277     0.000554712491     0.890853552852    31.972071174400
         F            1.243226157277     1.091949712491    -1.443108447148    18.998403162730
         F            2.908115157277     0.000440712491    -0.543190447148    18.998403162730
         F            1.243196157277    -1.091131287509    -1.442978447148    18.998403162730
         O            1.034441257277     1.281640712491     1.528743152852    15.994914619570
         O            1.048459157277    -1.286947287509     1.508556552852    15.994914619570
         C           -0.970229842723     0.000519712491     0.383982552852    12.000000000000
         C            1.587921157277     0.000446712491    -0.744400447148    12.000000000000
         C           -1.611324842723    -1.223706287509     0.178604552852    12.000000000000
         C           -1.611329842723     1.224718712491     0.178457552852    12.000000000000
         C           -2.943154842723    -1.212468287509    -0.235718447148    12.000000000000
         C           -2.943159842723     1.213424712491    -0.235864447148    12.000000000000
         C           -3.604134842723     0.000463712491    -0.448321447148    12.000000000000
         H           -1.082978842723    -2.154053287509     0.366735552852     1.007825032230
         H           -1.082987842723     2.155090712491     0.366476552852     1.007825032230
         H           -3.464979842723    -2.152424287509    -0.394463447148     1.007825032230
         H           -3.464988842723     2.153358712491    -0.394722447148     1.007825032230
         H           -4.642067842723     0.000442712491    -0.771419447148     1.007825032230

  Basis Set: AUG-CC-PVTZ
    Blend: AUG-CC-PVTZ
  Basis Set: (AUG-CC-PVTZ AUX)
    Blend: AUG-CC-PVTZ-JKFIT
	 Reference Energy          =   -1113.7787160898517413 [Eh]
	 Singles Energy            =      -0.0000000000000000 [Eh]
	 Same-Spin Energy          =      -0.7258561487058195 [Eh]
	 Opposite-Spin Energy      =      -2.0869274011608456 [Eh]
	 Correlation Energy        =      -2.8127835498666651 [Eh]
	 Total Energy              =   -1116.5914996397184495 [Eh]

	 ================> DF-SCS-MP2 Energies <==================
	-----------------------------------------------------------
	 SCS Same-Spin Scale       =       0.3333333333333333 [-]
	 SCS Opposite-Spin Scale   =       1.2000000000000000 [-]
	 SCS Same-Spin Energy      =      -0.2419520495686065 [Eh]
	 SCS Opposite-Spin Energy  =      -2.5043128813930147 [Eh]
	 SCS Correlation Energy    =      -2.7462649309616212 [Eh]
	 SCS Total Energy          =   -1116.5249810208133567 [Eh]
	-----------------------------------------------------------

  Dipole Moment: [D]
     X:    -4.5555      Y:     0.0146      Z:    -2.3580     Total:     5.1296

*** Psi4 exiting successfully. Buy a developer a beer!
