                               Psi4 1.3.2 release

  ==> Input File <==

--------------------------------------------------------------------------
#psi4
#
memory 32 gb

molecule  {
0 1
  S        0.8137250     0.0000590     0.8799220
  F        1.3317230     1.0914540    -1.4540400
  F        2.9966120    -0.0000550    -0.5541220
  F        1.3316930    -1.0916270    -1.4539100
  O        1.1369530     1.2876430     1.4974560
  O        1.1369560    -1.2874430     1.4976250
  C       -0.9254276     0.0000359     0.5530513
  C        1.6764180    -0.0000490    -0.7553320
  C       -1.5228280    -1.2242020     0.1676730
  C       -1.5228330     1.2242230     0.1675260
  C       -2.8546580    -1.2129640    -0.2466500
  C       -2.8546630     1.2129290    -0.2467960
  C       -3.5156380    -0.0000320    -0.4592530
  H       -0.9944820    -2.1545490     0.3558040
  H       -0.9944910     2.1545950     0.3555450
  H       -3.3764830    -2.1529200    -0.4053950
  H       -3.3764920     2.1528630    -0.4056540
  H       -4.5535710    -0.0000530    -0.7823510
units angstrom
no_reorient  #important for SAPT in psi4, default
symmetry c1  #important for SAPT in psi4, default
}

set PROPERTIES_ORIGIN ["COM"]
properties('MP2/aug-cc-pvtz', properties = ['dipole'])
--------------------------------------------------------------------------

    Molecular point group: c1
  Charge       = 0
  Multiplicity = 1
  Basis Set: AUG-CC-PVTZ
    Blend: AUG-CC-PVTZ
  Basis Set: (AUG-CC-PVTZ AUX)
    Blend: AUG-CC-PVTZ-JKFIT

    Orbital Energies [Eh]
    ---------------------

    Doubly Occupied:

       1A    -92.217536     2A    -26.376396     3A    -26.376375
       4A    -26.375405     5A    -20.572121     6A    -20.572102
       7A    -11.558516     8A    -11.302709     9A    -11.290996
      10A    -11.290929    11A    -11.285474    12A    -11.273381
      13A    -11.273311    14A     -9.186333    15A     -6.871052
      16A     -6.870609    17A     -6.870085    18A     -1.762206
      19A     -1.670062    20A     -1.669957    21A     -1.466151
      22A     -1.358124    23A     -1.196093    24A     -1.083177
      25A     -1.057210    26A     -1.033780    27A     -0.936662
      28A     -0.876482    29A     -0.867666    30A     -0.855787
      31A     -0.854496    32A     -0.801613    33A     -0.749982
      34A     -0.741315    35A     -0.737225    36A     -0.700855
      37A     -0.699774    38A     -0.689674    39A     -0.683211
      40A     -0.675340    41A     -0.668584    42A     -0.651144
      43A     -0.643127    44A     -0.629145    45A     -0.562311
      46A     -0.545235    47A     -0.536374    48A     -0.522557
      49A     -0.513727    50A     -0.496057    51A     -0.469208
      52A     -0.389204    53A     -0.374573

  @DF-RHF Final Energy: -1113.76813239996613

   => Energetics <=

    Nuclear Repulsion Energy =            995.8942497939864325
    One-Electron Energy =               -3515.8619282027002555
    Two-Electron Energy =                1406.1995460087475749
    Total Energy =                      -1113.7681323999661345
  Basis Set: (AUG-CC-PVTZ AUX)
    Blend: AUG-CC-PVTZ-RI
    Molecular point group: c1

    Geometry (in Angstrom), charge = 0, multiplicity = 1:

       Center              X                  Y                   Z               Mass
    ------------   -----------------  -----------------  -----------------  -----------------
         S            0.726657554671     0.000059095247     0.882118074735    31.972071174400
         F            1.244655554671     1.091454095247    -1.451843925265    18.998403162730
         F            2.909544554671    -0.000054904753    -0.551925925265    18.998403162730
         F            1.244625554671    -1.091626904753    -1.451713925265    18.998403162730
         O            1.049885554671     1.287643095247     1.499652074735    15.994914619570
         O            1.049888554671    -1.287442904753     1.499821074735    15.994914619570
         C           -1.012495045329     0.000035995247     0.555247374735    12.000000000000
         C            1.589350554671    -0.000048904753    -0.753135925265    12.000000000000
         C           -1.609895445329    -1.224201904753     0.169869074735    12.000000000000
         C           -1.609900445329     1.224223095247     0.169722074735    12.000000000000
         C           -2.941725445329    -1.212963904753    -0.244453925265    12.000000000000
         C           -2.941730445329     1.212929095247    -0.244599925265    12.000000000000
         C           -3.602705445329    -0.000031904753    -0.457056925265    12.000000000000
         H           -1.081549445329    -2.154548904753     0.358000074735     1.007825032230
         H           -1.081558445329     2.154595095247     0.357741074735     1.007825032230
         H           -3.463550445329    -2.152919904753    -0.403198925265     1.007825032230
         H           -3.463559445329     2.152863095247    -0.403457925265     1.007825032230
         H           -4.640638445329    -0.000052904753    -0.780154925265     1.007825032230

  Basis Set: AUG-CC-PVTZ
    Blend: AUG-CC-PVTZ
  Basis Set: (AUG-CC-PVTZ AUX)
    Blend: AUG-CC-PVTZ-JKFIT
	 Reference Energy          =   -1113.7681323999661345 [Eh]
	 Singles Energy            =      -0.0000000000000000 [Eh]
	 Same-Spin Energy          =      -0.7259512797253416 [Eh]
	 Opposite-Spin Energy      =      -2.0878800990861510 [Eh]
	 Correlation Energy        =      -2.8138313788114928 [Eh]
	 Total Energy              =   -1116.5819637787776628 [Eh]

	 ================> DF-SCS-MP2 Energies <==================
	-----------------------------------------------------------
	 SCS Same-Spin Scale       =       0.3333333333333333 [-]
	 SCS Opposite-Spin Scale   =       1.2000000000000000 [-]
	 SCS Same-Spin Energy      =      -0.2419837599084472 [Eh]
	 SCS Opposite-Spin Energy  =      -2.5054561189033810 [Eh]
	 SCS Correlation Energy    =      -2.7474398788118282 [Eh]
	 SCS Total Energy          =   -1116.5155722787778814 [Eh]
	-----------------------------------------------------------

  Dipole Moment: [D]
     X:    -4.6907      Y:    -0.0002      Z:    -2.5009     Total:     5.3158

*** Psi4 exiting successfully. Buy a developer a beer!
