                               Psi4 1.3.2 release

  ==> Input File <==

--------------------------------------------------------------------------
#psi4
#
memory 32 gb

molecule  {
0 1
  S        0.8038648     0.1850221     0.8790468
  F        1.3317230     1.0914540    -1.4540400
  F        2.9966120    -0.0000550    -0.5541220
  F        1.3316930    -1.0916270    -1.4539100
  O        1.1369530     1.2876430     1.4974560
  O        1.1369560    -1.2874430     1.4976250
  C       -0.8817330     0.0000240     0.3730510
  C        1.6764180    -0.0000490    -0.7553320
  C       -1.5228280    -1.2242020     0.1676730
  C       -1.5228330     1.2242230     0.1675260
  C       -2.8546580    -1.2129640    -0.2466500
  C       -2.8546630     1.2129290    -0.2467960
  C       -3.5156380    -0.0000320    -0.4592530
  H       -0.9944820    -2.1545490     0.3558040
  H       -0.9944910     2.1545950     0.3555450
  H       -3.3764830    -2.1529200    -0.4053950
  H       -3.3764920     2.1528630    -0.4056540
  H       -4.5535710    -0.0000530    -0.7823510
units angstrom
no_reorient  #important for SAPT in psi4, default
symmetry c1  #important for SAPT in psi4, default
}

set PROPERTIES_ORIGIN ["COM"]
properties('MP2/aug-cc-pvtz', properties = ['dipole'])
--------------------------------------------------------------------------

    Molecular point group: c1
  Charge       = 0
  Multiplicity = 1
  Basis Set: AUG-CC-PVTZ
    Blend: AUG-CC-PVTZ
  Basis Set: (AUG-CC-PVTZ AUX)
    Blend: AUG-CC-PVTZ-JKFIT

    Orbital Energies [Eh]
    ---------------------

    Doubly Occupied:

       1A    -92.207694     2A    -26.373371     3A    -26.372160
       4A    -26.370358     5A    -20.610190     6A    -20.540531
       7A    -11.552002     8A    -11.301263     9A    -11.288329
      10A    -11.287337    11A    -11.282630    12A    -11.273270
      13A    -11.273177    14A     -9.182760    15A     -6.868194
      16A     -6.866368    17A     -6.865356    18A     -1.758371
      19A     -1.667603    20A     -1.664922    21A     -1.557628
      22A     -1.290886    23A     -1.198494    24A     -1.085931
      25A     -1.057953    26A     -1.029246    27A     -0.937455
      28A     -0.876001    29A     -0.868898    30A     -0.851730
      31A     -0.849637    32A     -0.805999    33A     -0.759257
      34A     -0.739717    35A     -0.734288    36A     -0.705747
      37A     -0.699985    38A     -0.695690    39A     -0.691969
      40A     -0.686705    41A     -0.679620    42A     -0.659007
      43A     -0.653436    44A     -0.629444    45A     -0.575062
      46A     -0.550888    47A     -0.539427    48A     -0.526492
      49A     -0.503850    50A     -0.462428    51A     -0.446664
      52A     -0.388458    53A     -0.375117

  @DF-RHF Final Energy: -1113.71626304176243

   => Energetics <=

    Nuclear Repulsion Energy =            997.9286218730202336
    One-Electron Energy =               -3519.8517780005631721
    Two-Electron Energy =                1408.2068930857803934
    Total Energy =                      -1113.7162630417624314
  Basis Set: (AUG-CC-PVTZ AUX)
    Blend: AUG-CC-PVTZ-RI
    Molecular point group: c1

    Geometry (in Angstrom), charge = 0, multiplicity = 1:

       Center              X                  Y                   Z               Mass
    ------------   -----------------  -----------------  -----------------  -----------------
         S            0.715801697850     0.156862116110     0.891662040374    31.972071174400
         F            1.243659897850     1.063294016110    -1.441424759626    18.998403162730
         F            2.908548897850    -0.028214983890    -0.541506759626    18.998403162730
         F            1.243629897850    -1.119786983890    -1.441294759626    18.998403162730
         O            1.048889897850     1.259483016110     1.510071240374    15.994914619570
         O            1.048892897850    -1.315602983890     1.510240240374    15.994914619570
         C           -0.969796102150    -0.028135983890     0.385666240374    12.000000000000
         C            1.588354897850    -0.028208983890    -0.742716759626    12.000000000000
         C           -1.610891102150    -1.252361983890     0.180288240374    12.000000000000
         C           -1.610896102150     1.196063016110     0.180141240374    12.000000000000
         C           -2.942721102150    -1.241123983890    -0.234034759626    12.000000000000
         C           -2.942726102150     1.184769016110    -0.234180759626    12.000000000000
         C           -3.603701102150    -0.028191983890    -0.446637759626    12.000000000000
         H           -1.082545102150    -2.182708983890     0.368419240374     1.007825032230
         H           -1.082554102150     2.126435016110     0.368160240374     1.007825032230
         H           -3.464546102150    -2.181079983890    -0.392779759626     1.007825032230
         H           -3.464555102150     2.124703016110    -0.393038759626     1.007825032230
         H           -4.641634102150    -0.028212983890    -0.769735759626     1.007825032230

  Basis Set: AUG-CC-PVTZ
    Blend: AUG-CC-PVTZ
  Basis Set: (AUG-CC-PVTZ AUX)
    Blend: AUG-CC-PVTZ-JKFIT
	 Reference Energy          =   -1113.7162630417624314 [Eh]
	 Singles Energy            =      -0.0000000000000000 [Eh]
	 Same-Spin Energy          =      -0.7245437050640318 [Eh]
	 Opposite-Spin Energy      =      -2.0857340835494864 [Eh]
	 Correlation Energy        =      -2.8102777886135182 [Eh]
	 Total Energy              =   -1116.5265408303760069 [Eh]

	 ================> DF-SCS-MP2 Energies <==================
	-----------------------------------------------------------
	 SCS Same-Spin Scale       =       0.3333333333333333 [-]
	 SCS Opposite-Spin Scale   =       1.2000000000000000 [-]
	 SCS Same-Spin Energy      =      -0.2415145683546772 [Eh]
	 SCS Opposite-Spin Energy  =      -2.5028809002593837 [Eh]
	 SCS Correlation Energy    =      -2.7443954686140608 [Eh]
	 SCS Total Energy          =   -1116.4606585103765610 [Eh]
	-----------------------------------------------------------

  Dipole Moment: [D]
     X:    -4.7254      Y:     1.4607      Z:    -2.4067     Total:     5.5005

*** Psi4 exiting successfully. Buy a developer a beer!
