                               Psi4 1.4a3.dev225

  ==> Input File <==

--------------------------------------------------------------------------
#psi4
#
memory 32 gb

molecule  {
0 1
  S        0.8137250     0.0000590     0.8799220
  F        1.3317230     1.0914540    -1.4540400
  F        2.9966120    -0.0000550    -0.5541220
  F        1.3316930    -1.0916270    -1.4539100
  O        1.1369530     1.2876430     1.4974560
  O        1.1369560    -1.2874430     1.4976250
  C       -0.8817330     0.0000240     0.3730510
  C        1.6530876    -0.0000461    -0.7111088
  C       -1.5228280    -1.2242020     0.1676730
  C       -1.5228330     1.2242230     0.1675260
  C       -2.8546580    -1.2129640    -0.2466500
  C       -2.8546630     1.2129290    -0.2467960
  C       -3.5156380    -0.0000320    -0.4592530
  H       -0.9944820    -2.1545490     0.3558040
  H       -0.9944910     2.1545950     0.3555450
  H       -3.3764830    -2.1529200    -0.4053950
  H       -3.3764920     2.1528630    -0.4056540
  H       -4.5535710    -0.0000530    -0.7823510
units angstrom
no_reorient  #important for SAPT in psi4, default
symmetry c1  #important for SAPT in psi4, default
}

set PROPERTIES_ORIGIN ["COM"]
properties('MP2/aug-cc-pvtz', properties = ['dipole'])
--------------------------------------------------------------------------

    Molecular point group: c1
  Charge       = 0
  Multiplicity = 1
  Basis Set: AUG-CC-PVTZ
    Blend: AUG-CC-PVTZ
  Basis Set: (AUG-CC-PVTZ AUX)
    Blend: AUG-CC-PVTZ-JKFIT

    Orbital Energies [Eh]
    ---------------------

    Doubly Occupied:

       1A    -92.225364     2A    -26.369432     3A    -26.369410
       4A    -26.367169     5A    -20.581288     6A    -20.581269
       7A    -11.554171     8A    -11.302460     9A    -11.289646
      10A    -11.289574    11A    -11.284298    12A    -11.274332
      13A    -11.274250    14A     -9.194385    15A     -6.879435
      16A     -6.878504    17A     -6.878162    18A     -1.748425
      19A     -1.656924    20A     -1.656268    21A     -1.474741
      22A     -1.366010    23A     -1.200866    24A     -1.091683
      25A     -1.059663    26A     -1.039302    27A     -0.935925
      28A     -0.873224    29A     -0.872216    30A     -0.842212
      31A     -0.841144    32A     -0.802295    33A     -0.751738
      34A     -0.733563    35A     -0.731108    36A     -0.694726
      37A     -0.689460    38A     -0.685623    39A     -0.679497
      40A     -0.675344    41A     -0.674635    42A     -0.653562
      43A     -0.649311    44A     -0.631641    45A     -0.564390
      46A     -0.548819    47A     -0.539468    48A     -0.530053
      49A     -0.525340    50A     -0.504089    51A     -0.480003
      52A     -0.391055    53A     -0.376490

  @DF-RHF Final Energy: -1113.77340614675700

   => Energetics <=

    Nuclear Repulsion Energy =            997.9303280728015579
    One-Electron Energy =               -3519.8795456672933142
    Two-Electron Energy =                1408.1758114477345316
    Total Energy =                      -1113.7734061467569973
  Basis Set: (AUG-CC-PVTZ AUX)
    Blend: AUG-CC-PVTZ-RI
    Molecular point group: c1

    Geometry (in Angstrom), charge = 0, multiplicity = 1:

       Center              X                  Y                   Z               Mass
    ------------   -----------------  -----------------  -----------------  -----------------
         S            0.725493865236     0.000059609542     0.889876905266    31.972071174400
         F            1.243491865236     1.091454609542    -1.444085094734    18.998403162730
         F            2.908380865236    -0.000054390458    -0.544167094734    18.998403162730
         F            1.243461865236    -1.091626390458    -1.443955094734    18.998403162730
         O            1.048721865236     1.287643609542     1.507410905266    15.994914619570
         O            1.048724865236    -1.287442390458     1.507579905266    15.994914619570
         C           -0.969964134764     0.000024609542     0.383005905266    12.000000000000
         C            1.564856465236    -0.000045490458    -0.701153894734    12.000000000000
         C           -1.611059134764    -1.224201390458     0.177627905266    12.000000000000
         C           -1.611064134764     1.224223609542     0.177480905266    12.000000000000
         C           -2.942889134764    -1.212963390458    -0.236695094734    12.000000000000
         C           -2.942894134764     1.212929609542    -0.236841094734    12.000000000000
         C           -3.603869134764    -0.000031390458    -0.449298094734    12.000000000000
         H           -1.082713134764    -2.154548390458     0.365758905266     1.007825032230
         H           -1.082722134764     2.154595609542     0.365499905266     1.007825032230
         H           -3.464714134764    -2.152919390458    -0.395440094734     1.007825032230
         H           -3.464723134764     2.152863609542    -0.395699094734     1.007825032230
         H           -4.641802134764    -0.000052390458    -0.772396094734     1.007825032230

  Basis Set: AUG-CC-PVTZ
    Blend: AUG-CC-PVTZ
  Basis Set: (AUG-CC-PVTZ AUX)
    Blend: AUG-CC-PVTZ-JKFIT
	 Reference Energy          =   -1113.7734061467569973 [Eh]
	 Singles Energy            =      -0.0000000000000000 [Eh]
	 Same-Spin Energy          =      -0.7262644574833532 [Eh]
	 Opposite-Spin Energy      =      -2.0884280323314033 [Eh]
	 Correlation Energy        =      -2.8146924898147567 [Eh]
	 Total Energy              =   -1116.5880986365716581 [Eh]

	 ================> DF-SCS-MP2 Energies <==================
	-----------------------------------------------------------
	 SCS Same-Spin Scale       =       0.3333333333333333 [-]
	 SCS Opposite-Spin Scale   =       1.2000000000000000 [-]
	 SCS Same-Spin Energy      =      -0.2420881524944511 [Eh]
	 SCS Opposite-Spin Energy  =      -2.5061136387976837 [Eh]
	 SCS Correlation Energy    =      -2.7482017912921348 [Eh]
	 SCS Total Energy          =   -1116.5216079380491010 [Eh]
	-----------------------------------------------------------

  Dipole Moment: [D]
     X:    -4.8394      Y:    -0.0001      Z:    -2.0457     Total:     5.2541

*** Psi4 exiting successfully. Buy a developer a beer!
