                               Psi4 1.4a3.dev225

  ==> Input File <==

--------------------------------------------------------------------------
#psi4
#
memory 32 gb

molecule  {
0 1
  O        0.1020250    -0.5936610     0.2432790
  O        2.2583290    -0.7266490     0.4785580
  O        1.4190320     0.9870310    -0.7687790
  C       -1.0945380     0.0672860    -0.2723740
  C       -2.1583360    -1.0099580    -0.2947280
  C       -1.4377530     1.2430580     0.6217300
  C        1.2597240    -0.0090520    -0.0847670
  H       -0.8680500     0.4152130    -1.2840580
  H       -3.0925200    -0.6019470    -0.6907100
  H       -1.7887379    -1.9994178    -1.0391915
  H       -2.3397190    -1.3819350     0.7169650
  H       -2.3557360     1.7247410     0.2719260
  H       -0.6338990     1.9813890     0.6069580
  H       -1.5931290     0.8972140     1.6473570
  H        3.0793230    -0.2701740     0.2118980
units angstrom
no_reorient  #important for SAPT in psi4, default
symmetry c1  #important for SAPT in psi4, default
}

set PROPERTIES_ORIGIN ["COM"]
properties('MP2/aug-cc-pvtz', properties = ['dipole'])
--------------------------------------------------------------------------

    Molecular point group: c1
  Charge       = 0
  Multiplicity = 1
  Basis Set: AUG-CC-PVTZ
    Blend: AUG-CC-PVTZ
  Basis Set: (AUG-CC-PVTZ AUX)
    Blend: AUG-CC-PVTZ-JKFIT

    Orbital Energies [Eh]
    ---------------------

    Doubly Occupied:

       1A    -20.622871     2A    -20.612790     3A    -20.552012
       4A    -11.441197     5A    -11.303621     6A    -11.249354
       7A    -11.225968     8A     -1.505331     9A     -1.400819
      10A     -1.364150    11A     -1.075536    12A     -0.945071
      13A     -0.883185    14A     -0.787915    15A     -0.746071
      16A     -0.715710    17A     -0.686468    18A     -0.637718
      19A     -0.613796    20A     -0.604186    21A     -0.572221
      22A     -0.555258    23A     -0.541342    24A     -0.515889
      25A     -0.496676    26A     -0.485834    27A     -0.477861
      28A     -0.461259

  @DF-RHF Final Energy:  -380.88041293618153

   => Energetics <=

    Nuclear Repulsion Energy =            323.6204068831059999
    One-Electron Energy =               -1162.8414194874567329
    Two-Electron Energy =                 458.3405996681692613
    Total Energy =                       -380.8804129361815285
  Basis Set: (AUG-CC-PVTZ AUX)
    Blend: AUG-CC-PVTZ-RI
    Molecular point group: c1

    Geometry (in Angstrom), charge = 0, multiplicity = 1:

       Center              X                  Y                   Z               Mass
    ------------   -----------------  -----------------  -----------------  -----------------
         O            0.009638296663    -0.583437854394     0.249698239413    15.994914619570
         O            2.165942296663    -0.716425854394     0.484977239413    15.994914619570
         O            1.326645296663     0.997254145606    -0.762359760587    15.994914619570
         C           -1.186924703337     0.077509145606    -0.265954760587    12.000000000000
         C           -2.250722703337    -0.999734854394    -0.288308760587    12.000000000000
         C           -1.530139703337     1.253281145606     0.628149239413    12.000000000000
         C            1.167337296663     0.001171145606    -0.078347760587    12.000000000000
         H           -0.960436703337     0.425436145606    -1.277638760587     1.007825032230
         H           -3.184906703337    -0.591723854394    -0.684290760587     1.007825032230
         H           -1.881124603337    -1.989194654394    -1.032772260587     1.007825032230
         H           -2.432105703337    -1.371711854394     0.723384239413     1.007825032230
         H           -2.448122703337     1.734964145606     0.278345239413     1.007825032230
         H           -0.726285703337     1.991612145606     0.613377239413     1.007825032230
         H           -1.685515703337     0.907437145606     1.653776239413     1.007825032230
         H            2.986936296663    -0.259950854394     0.218317239413     1.007825032230

  Basis Set: AUG-CC-PVTZ
    Blend: AUG-CC-PVTZ
  Basis Set: (AUG-CC-PVTZ AUX)
    Blend: AUG-CC-PVTZ-JKFIT
	 Reference Energy          =    -380.8804129361815285 [Eh]
	 Singles Energy            =      -0.0000000000000000 [Eh]
	 Same-Spin Energy          =      -0.3680692920768064 [Eh]
	 Opposite-Spin Energy      =      -1.1643378625273171 [Eh]
	 Correlation Energy        =      -1.5324071546041234 [Eh]
	 Total Energy              =    -382.4128200907856581 [Eh]

	 ================> DF-SCS-MP2 Energies <==================
	-----------------------------------------------------------
	 SCS Same-Spin Scale       =       0.3333333333333333 [-]
	 SCS Opposite-Spin Scale   =       1.2000000000000000 [-]
	 SCS Same-Spin Energy      =      -0.1226897640256021 [Eh]
	 SCS Opposite-Spin Energy  =      -1.3972054350327805 [Eh]
	 SCS Correlation Energy    =      -1.5198951990583827 [Eh]
	 SCS Total Energy          =    -382.4003081352399249 [Eh]
	-----------------------------------------------------------

  Dipole Moment: [D]
     X:    -0.9891      Y:     0.0374      Z:     0.1639     Total:     1.0033

*** Psi4 exiting successfully. Buy a developer a beer!
