                               Psi4 1.4a3.dev225

  ==> Input File <==

--------------------------------------------------------------------------
#psi4
#
memory 32 gb

molecule  {
0 1
  O        0.1020250    -0.5936610     0.2432790
  O        2.2583290    -0.7266490     0.4785580
  O        1.4190320     0.9870310    -0.7687790
  C       -1.0606113     0.0320702    -0.2523234
  C       -2.1583360    -1.0099580    -0.2947280
  C       -1.4377530     1.2430580     0.6217300
  C        1.2597240    -0.0090520    -0.0847670
  H       -0.8680500     0.4152130    -1.2840580
  H       -3.0925200    -0.6019470    -0.6907100
  H       -1.8459410    -1.8462780    -0.9239700
  H       -2.3397190    -1.3819350     0.7169650
  H       -2.3557360     1.7247410     0.2719260
  H       -0.6338990     1.9813890     0.6069580
  H       -1.5931290     0.8972140     1.6473570
  H        3.0793230    -0.2701740     0.2118980
units angstrom
no_reorient  #important for SAPT in psi4, default
symmetry c1  #important for SAPT in psi4, default
}

set PROPERTIES_ORIGIN ["COM"]
properties('MP2/aug-cc-pvtz', properties = ['dipole'])
--------------------------------------------------------------------------

    Molecular point group: c1
  Charge       = 0
  Multiplicity = 1
  Basis Set: AUG-CC-PVTZ
    Blend: AUG-CC-PVTZ
  Basis Set: (AUG-CC-PVTZ AUX)
    Blend: AUG-CC-PVTZ-JKFIT

    Orbital Energies [Eh]
    ---------------------

    Doubly Occupied:

       1A    -20.625975     2A    -20.619125     3A    -20.555345
       4A    -11.445522     5A    -11.299753     6A    -11.224994
       7A    -11.221894     8A     -1.513242     9A     -1.412350
      10A     -1.368142    11A     -1.072123    12A     -0.948161
      13A     -0.895925    14A     -0.784816    15A     -0.754046
      16A     -0.718370    17A     -0.692702    18A     -0.640095
      19A     -0.623807    20A     -0.606702    21A     -0.571478
      22A     -0.552840    23A     -0.550092    24A     -0.528414
      25A     -0.501176    26A     -0.482746    27A     -0.479611
      28A     -0.456704

  @DF-RHF Final Energy:  -380.89879999324734

   => Energetics <=

    Nuclear Repulsion Energy =            324.9831903499741657
    One-Electron Energy =               -1165.4716867596355314
    Two-Electron Energy =                 459.5896964164140286
    Total Energy =                       -380.8987999932473372
  Basis Set: (AUG-CC-PVTZ AUX)
    Blend: AUG-CC-PVTZ-RI
    Molecular point group: c1

    Geometry (in Angstrom), charge = 0, multiplicity = 1:

       Center              X                  Y                   Z               Mass
    ------------   -----------------  -----------------  -----------------  -----------------
         O            0.006279540254    -0.580859686942     0.246269701039    15.994914619570
         O            2.162583540254    -0.713847686942     0.481548701039    15.994914619570
         O            1.323286540254     0.999832313058    -0.765788298961    15.994914619570
         C           -1.156356759746     0.044871513058    -0.249332698961    12.000000000000
         C           -2.254081459746    -0.997156686942    -0.291737298961    12.000000000000
         C           -1.533498459746     1.255859313058     0.624720701039    12.000000000000
         C            1.163978540254     0.003749313058    -0.081776298961    12.000000000000
         H           -0.963795459746     0.428014313058    -1.281067298961     1.007825032230
         H           -3.188265459746    -0.589145686942    -0.687719298961     1.007825032230
         H           -1.941686459746    -1.833476686942    -0.920979298961     1.007825032230
         H           -2.435464459746    -1.369133686942     0.719955701039     1.007825032230
         H           -2.451481459746     1.737542313058     0.274916701039     1.007825032230
         H           -0.729644459746     1.994190313058     0.609948701039     1.007825032230
         H           -1.688874459746     0.910015313058     1.650347701039     1.007825032230
         H            2.983577540254    -0.257372686942     0.214888701039     1.007825032230

  Basis Set: AUG-CC-PVTZ
    Blend: AUG-CC-PVTZ
  Basis Set: (AUG-CC-PVTZ AUX)
    Blend: AUG-CC-PVTZ-JKFIT
	 Reference Energy          =    -380.8987999932473372 [Eh]
	 Singles Energy            =      -0.0000000000000000 [Eh]
	 Same-Spin Energy          =      -0.3680757519398288 [Eh]
	 Opposite-Spin Energy      =      -1.1624274660133396 [Eh]
	 Correlation Energy        =      -1.5305032179531683 [Eh]
	 Total Energy              =    -382.4293032112005335 [Eh]

	 ================> DF-SCS-MP2 Energies <==================
	-----------------------------------------------------------
	 SCS Same-Spin Scale       =       0.3333333333333333 [-]
	 SCS Opposite-Spin Scale   =       1.2000000000000000 [-]
	 SCS Same-Spin Energy      =      -0.1226919173132762 [Eh]
	 SCS Opposite-Spin Energy  =      -1.3949129592160074 [Eh]
	 SCS Correlation Energy    =      -1.5176048765292838 [Eh]
	 SCS Total Energy          =    -382.4164048697766134 [Eh]
	-----------------------------------------------------------

  Dipole Moment: [D]
     X:    -0.7759      Y:    -0.1450      Z:     0.1048     Total:     0.7962

*** Psi4 exiting successfully. Buy a developer a beer!
