                               Psi4 1.4a3.dev225

  ==> Input File <==

--------------------------------------------------------------------------
#psi4
#
memory 32 gb

molecule  {
0 1
  O        0.1020250    -0.5936610     0.2432790
  O        2.2583290    -0.7266490     0.4785580
  O        1.4190320     0.9870310    -0.7687790
  C       -1.0945380     0.0672860    -0.2723740
  C       -2.1583360    -1.0099580    -0.2947280
  C       -1.4422795     1.2585648     0.6335220
  C        1.2597240    -0.0090520    -0.0847670
  H       -0.8680500     0.4152130    -1.2840580
  H       -3.0925200    -0.6019470    -0.6907100
  H       -1.8459410    -1.8462780    -0.9239700
  H       -2.3397190    -1.3819350     0.7169650
  H       -2.3557360     1.7247410     0.2719260
  H       -0.6338990     1.9813890     0.6069580
  H       -1.5931290     0.8972140     1.6473570
  H        3.0793230    -0.2701740     0.2118980
units angstrom
no_reorient  #important for SAPT in psi4, default
symmetry c1  #important for SAPT in psi4, default
}

set PROPERTIES_ORIGIN ["COM"]
properties('MP2/aug-cc-pvtz', properties = ['dipole'])
--------------------------------------------------------------------------

    Molecular point group: c1
  Charge       = 0
  Multiplicity = 1
  Basis Set: AUG-CC-PVTZ
    Blend: AUG-CC-PVTZ
  Basis Set: (AUG-CC-PVTZ AUX)
    Blend: AUG-CC-PVTZ-JKFIT

    Orbital Energies [Eh]
    ---------------------

    Doubly Occupied:

       1A    -20.622729     2A    -20.612511     3A    -20.551766
       4A    -11.440910     5A    -11.301900     6A    -11.226710
       7A    -11.223012     8A     -1.505019     9A     -1.400385
      10A     -1.363869    11A     -1.073660    12A     -0.951819
      13A     -0.885633    14A     -0.788314    15A     -0.746006
      16A     -0.715381    17A     -0.685908    18A     -0.636809
      19A     -0.624722    20A     -0.602791    21A     -0.571278
      22A     -0.554258    23A     -0.544417    24A     -0.529368
      25A     -0.503311    26A     -0.488524    27A     -0.477567
      28A     -0.461439

  @DF-RHF Final Energy:  -380.90043440160042

   => Energetics <=

    Nuclear Repulsion Energy =            324.0515333878340130
    One-Electron Energy =               -1163.7239063621600508
    Two-Electron Energy =                 458.7719385727255599
    Total Energy =                       -380.9004344016004211
  Basis Set: (AUG-CC-PVTZ AUX)
    Blend: AUG-CC-PVTZ-RI
    Molecular point group: c1

    Geometry (in Angstrom), charge = 0, multiplicity = 1:

       Center              X                  Y                   Z               Mass
    ------------   -----------------  -----------------  -----------------  -----------------
         O            0.010714429043    -0.586709631553     0.247222182824    15.994914619570
         O            2.167018429043    -0.719697631553     0.482501182824    15.994914619570
         O            1.327721429043     0.993982368447    -0.764835817176    15.994914619570
         C           -1.185848570957     0.074237368447    -0.268430817176    12.000000000000
         C           -2.249646570957    -1.003006631553    -0.290784817176    12.000000000000
         C           -1.533590070957     1.265516168447     0.637465182824    12.000000000000
         C            1.168413429043    -0.002100631553    -0.080823817176    12.000000000000
         H           -0.959360570957     0.422164368447    -1.280114817176     1.007825032230
         H           -3.183830570957    -0.594995631553    -0.686766817176     1.007825032230
         H           -1.937251570957    -1.839326631553    -0.920026817176     1.007825032230
         H           -2.431029570957    -1.374983631553     0.720908182824     1.007825032230
         H           -2.447046570957     1.731692368447     0.275869182824     1.007825032230
         H           -0.725209570957     1.988340368447     0.610901182824     1.007825032230
         H           -1.684439570957     0.904165368447     1.651300182824     1.007825032230
         H            2.988012429043    -0.263222631553     0.215841182824     1.007825032230

  Basis Set: AUG-CC-PVTZ
    Blend: AUG-CC-PVTZ
  Basis Set: (AUG-CC-PVTZ AUX)
    Blend: AUG-CC-PVTZ-JKFIT
	 Reference Energy          =    -380.9004344016004211 [Eh]
	 Singles Energy            =      -0.0000000000000000 [Eh]
	 Same-Spin Energy          =      -0.3679712483450426 [Eh]
	 Opposite-Spin Energy      =      -1.1626774508133153 [Eh]
	 Correlation Energy        =      -1.5306486991583579 [Eh]
	 Total Energy              =    -382.4310831007587694 [Eh]

	 ================> DF-SCS-MP2 Energies <==================
	-----------------------------------------------------------
	 SCS Same-Spin Scale       =       0.3333333333333333 [-]
	 SCS Opposite-Spin Scale   =       1.2000000000000000 [-]
	 SCS Same-Spin Energy      =      -0.1226570827816809 [Eh]
	 SCS Opposite-Spin Energy  =      -1.3952129409759784 [Eh]
	 SCS Correlation Energy    =      -1.5178700237576592 [Eh]
	 SCS Total Energy          =    -382.4183044253580874 [Eh]
	-----------------------------------------------------------

  Dipole Moment: [D]
     X:    -0.9880      Y:    -0.0895      Z:     0.0849     Total:     0.9956

*** Psi4 exiting successfully. Buy a developer a beer!
