                               Psi4 1.4a3.dev225

  ==> Input File <==

--------------------------------------------------------------------------
#psi4
#
memory 32 gb

molecule  {
0 1
  O        0.1020250    -0.5936610     0.2432790
  O        2.2583290    -0.7266490     0.4785580
  O        1.4190320     0.9870310    -0.7687790
  C       -1.0945380     0.0672860    -0.2723740
  C       -2.0178209    -0.8676668    -0.2917753
  C       -1.4377530     1.2430580     0.6217300
  C        1.2597240    -0.0090520    -0.0847670
  H       -0.8680500     0.4152130    -1.2840580
  H       -3.0925200    -0.6019470    -0.6907100
  H       -1.8459410    -1.8462780    -0.9239700
  H       -2.3397190    -1.3819350     0.7169650
  H       -2.3557360     1.7247410     0.2719260
  H       -0.6338990     1.9813890     0.6069580
  H       -1.5931290     0.8972140     1.6473570
  H        3.0793230    -0.2701740     0.2118980
units angstrom
no_reorient  #important for SAPT in psi4, default
symmetry c1  #important for SAPT in psi4, default
}

set PROPERTIES_ORIGIN ["COM"]
properties('MP2/aug-cc-pvtz', properties = ['dipole'])
--------------------------------------------------------------------------

    Molecular point group: c1
  Charge       = 0
  Multiplicity = 1
  Basis Set: AUG-CC-PVTZ
    Blend: AUG-CC-PVTZ
  Basis Set: (AUG-CC-PVTZ AUX)
    Blend: AUG-CC-PVTZ-JKFIT

    Orbital Energies [Eh]
    ---------------------

    Doubly Occupied:

       1A    -20.623058     2A    -20.612840     3A    -20.552276
       4A    -11.441368     5A    -11.290857     6A    -11.238076
       7A    -11.224646     8A     -1.506391     9A     -1.403589
      10A     -1.364825    11A     -1.115932    12A     -0.955052
      13A     -0.880604    14A     -0.790462    15A     -0.749687
      16A     -0.716771    17A     -0.688470    18A     -0.646579
      19A     -0.639509    20A     -0.611585    21A     -0.579353
      22A     -0.549714    23A     -0.533686    24A     -0.518530
      25A     -0.495186    26A     -0.481672    27A     -0.477005
      28A     -0.451231

  @DF-RHF Final Energy:  -380.84828835820747

   => Energetics <=

    Nuclear Repulsion Energy =            328.0231114228755018
    One-Electron Energy =               -1171.4648936821070038
    Two-Electron Energy =                 462.5934939010240896
    Total Energy =                       -380.8482883582074692
  Basis Set: (AUG-CC-PVTZ AUX)
    Blend: AUG-CC-PVTZ-RI
    Molecular point group: c1

    Geometry (in Angstrom), charge = 0, multiplicity = 1:

       Center              X                  Y                   Z               Mass
    ------------   -----------------  -----------------  -----------------  -----------------
         O           -0.006013525089    -0.601331944240     0.248241637966    15.994914619570
         O            2.150290474911    -0.734319944240     0.483520637966    15.994914619570
         O            1.310993474911     0.979360055760    -0.763816362034    15.994914619570
         C           -1.202576525089     0.059615055760    -0.267411362034    12.000000000000
         C           -2.125859425089    -0.875337744240    -0.286812662034    12.000000000000
         C           -1.545791525089     1.235387055760     0.626692637966    12.000000000000
         C            1.151685474911    -0.016722944240    -0.079804362034    12.000000000000
         H           -0.976088525089     0.407542055760    -1.279095362034     1.007825032230
         H           -3.200558525089    -0.609617944240    -0.685747362034     1.007825032230
         H           -1.953979525089    -1.853948944240    -0.919007362034     1.007825032230
         H           -2.447757525089    -1.389605944240     0.721927637966     1.007825032230
         H           -2.463774525089     1.717070055760     0.276888637966     1.007825032230
         H           -0.741937525089     1.973718055760     0.611920637966     1.007825032230
         H           -1.701167525089     0.889543055760     1.652319637966     1.007825032230
         H            2.971284474911    -0.277844944240     0.216860637966     1.007825032230

  Basis Set: AUG-CC-PVTZ
    Blend: AUG-CC-PVTZ
  Basis Set: (AUG-CC-PVTZ AUX)
    Blend: AUG-CC-PVTZ-JKFIT
	 Reference Energy          =    -380.8482883582074692 [Eh]
	 Singles Energy            =      -0.0000000000000000 [Eh]
	 Same-Spin Energy          =      -0.3712460868646500 [Eh]
	 Opposite-Spin Energy      =      -1.1669434868039745 [Eh]
	 Correlation Energy        =      -1.5381895736686246 [Eh]
	 Total Energy              =    -382.3864779318760725 [Eh]

	 ================> DF-SCS-MP2 Energies <==================
	-----------------------------------------------------------
	 SCS Same-Spin Scale       =       0.3333333333333333 [-]
	 SCS Opposite-Spin Scale   =       1.2000000000000000 [-]
	 SCS Same-Spin Energy      =      -0.1237486956215500 [Eh]
	 SCS Opposite-Spin Energy  =      -1.4003321841647693 [Eh]
	 SCS Correlation Energy    =      -1.5240808797863192 [Eh]
	 SCS Total Energy          =    -382.3723692379937802 [Eh]
	-----------------------------------------------------------

  Dipole Moment: [D]
     X:    -1.0531      Y:    -0.0948      Z:     0.0600     Total:     1.0591

*** Psi4 exiting successfully. Buy a developer a beer!
