                               Psi4 1.4a3.dev225

  ==> Input File <==

--------------------------------------------------------------------------
#psi4
#
memory 32 gb

molecule  {
0 1
  O        0.1020250    -0.5936610     0.2432790
  O        2.2583290    -0.7266490     0.4785580
  O        1.4190320     0.9870310    -0.7687790
  C       -1.0945380     0.0672860    -0.2723740
  C       -2.1449548    -1.0147891    -0.1368799
  C       -1.4377530     1.2430580     0.6217300
  C        1.2597240    -0.0090520    -0.0847670
  H       -0.8680500     0.4152130    -1.2840580
  H       -3.0925200    -0.6019470    -0.6907100
  H       -1.8459410    -1.8462780    -0.9239700
  H       -2.3397190    -1.3819350     0.7169650
  H       -2.3557360     1.7247410     0.2719260
  H       -0.6338990     1.9813890     0.6069580
  H       -1.5931290     0.8972140     1.6473570
  H        3.0793230    -0.2701740     0.2118980
units angstrom
no_reorient  #important for SAPT in psi4, default
symmetry c1  #important for SAPT in psi4, default
}

set PROPERTIES_ORIGIN ["COM"]
properties('MP2/aug-cc-pvtz', properties = ['dipole'])
--------------------------------------------------------------------------

    Molecular point group: c1
  Charge       = 0
  Multiplicity = 1
  Basis Set: AUG-CC-PVTZ
    Blend: AUG-CC-PVTZ
  Basis Set: (AUG-CC-PVTZ AUX)
    Blend: AUG-CC-PVTZ-JKFIT

    Orbital Energies [Eh]
    ---------------------

    Doubly Occupied:

       1A    -20.622663     2A    -20.611591     3A    -20.552370
       4A    -11.440677     5A    -11.303769     6A    -11.230390
       7A    -11.222647     8A     -1.505276     9A     -1.400893
      10A     -1.364400    11A     -1.078900    12A     -0.951921
      13A     -0.887005    14A     -0.795097    15A     -0.745844
      16A     -0.716607    17A     -0.686755    18A     -0.642250
      19A     -0.619930    20A     -0.615614    21A     -0.576946
      22A     -0.565857    23A     -0.531666    24A     -0.511699
      25A     -0.501684    26A     -0.488230    27A     -0.477453
      28A     -0.457851

  @DF-RHF Final Energy:  -380.86857140689608

   => Energetics <=

    Nuclear Repulsion Energy =            324.8323462013643166
    One-Electron Energy =               -1165.1898621943262242
    Two-Electron Energy =                 459.4889445860658270
    Total Energy =                       -380.8685714068960806
  Basis Set: (AUG-CC-PVTZ AUX)
    Blend: AUG-CC-PVTZ-RI
    Molecular point group: c1

    Geometry (in Angstrom), charge = 0, multiplicity = 1:

       Center              X                  Y                   Z               Mass
    ------------   -----------------  -----------------  -----------------  -----------------
         O            0.008649096172    -0.584364018581     0.230377224263    15.994914619570
         O            2.164953096172    -0.717352018581     0.465656224263    15.994914619570
         O            1.325656096172     0.996327981419    -0.781680775737    15.994914619570
         C           -1.187913903828     0.076582981419    -0.285275775737    12.000000000000
         C           -2.238330703828    -1.005492118581    -0.149781675737    12.000000000000
         C           -1.531128903828     1.252354981419     0.608828224263    12.000000000000
         C            1.166348096172     0.000244981419    -0.097668775737    12.000000000000
         H           -0.961425903828     0.424509981419    -1.296959775737     1.007825032230
         H           -3.185895903828    -0.592650018581    -0.703611775737     1.007825032230
         H           -1.939316903828    -1.836981018581    -0.936871775737     1.007825032230
         H           -2.433094903828    -1.372638018581     0.704063224263     1.007825032230
         H           -2.449111903828     1.734037981419     0.259024224263     1.007825032230
         H           -0.727274903828     1.990685981419     0.594056224263     1.007825032230
         H           -1.686504903828     0.906510981419     1.634455224263     1.007825032230
         H            2.985947096172    -0.260877018581     0.198996224263     1.007825032230

  Basis Set: AUG-CC-PVTZ
    Blend: AUG-CC-PVTZ
  Basis Set: (AUG-CC-PVTZ AUX)
    Blend: AUG-CC-PVTZ-JKFIT
	 Reference Energy          =    -380.8685714068960806 [Eh]
	 Singles Energy            =      -0.0000000000000000 [Eh]
	 Same-Spin Energy          =      -0.3686296311250047 [Eh]
	 Opposite-Spin Energy      =      -1.1642785878868152 [Eh]
	 Correlation Energy        =      -1.5329082190118197 [Eh]
	 Total Energy              =    -382.4014796259078821 [Eh]

	 ================> DF-SCS-MP2 Energies <==================
	-----------------------------------------------------------
	 SCS Same-Spin Scale       =       0.3333333333333333 [-]
	 SCS Opposite-Spin Scale   =       1.2000000000000000 [-]
	 SCS Same-Spin Energy      =      -0.1228765437083349 [Eh]
	 SCS Opposite-Spin Energy  =      -1.3971343054641781 [Eh]
	 SCS Correlation Energy    =      -1.5200108491725128 [Eh]
	 SCS Total Energy          =    -382.3885822560686165 [Eh]
	-----------------------------------------------------------

  Dipole Moment: [D]
     X:    -0.9674      Y:    -0.0631      Z:     0.1330     Total:     0.9785

*** Psi4 exiting successfully. Buy a developer a beer!
