                               Psi4 1.4a3.dev225

  ==> Input File <==

--------------------------------------------------------------------------
#psi4
#
memory 32 gb

molecule  {
0 1
  O        0.1020250    -0.5936610     0.2432790
  O        2.2583290    -0.7266490     0.4785580
  O        1.4190320     0.9870310    -0.7687790
  C       -1.0781579     0.0582381    -0.2653151
  C       -2.1583360    -1.0099580    -0.2947280
  C       -1.4377530     1.2430580     0.6217300
  C        1.2597240    -0.0090520    -0.0847670
  H       -0.8680500     0.4152130    -1.2840580
  H       -3.0925200    -0.6019470    -0.6907100
  H       -1.8459410    -1.8462780    -0.9239700
  H       -2.3397190    -1.3819350     0.7169650
  H       -2.3557360     1.7247410     0.2719260
  H       -0.6338990     1.9813890     0.6069580
  H       -1.5931290     0.8972140     1.6473570
  H        3.0793230    -0.2701740     0.2118980
units angstrom
no_reorient  #important for SAPT in psi4, default
symmetry c1  #important for SAPT in psi4, default
}

set PROPERTIES_ORIGIN ["COM"]
properties('MP2/aug-cc-pvtz', properties = ['dipole'])
--------------------------------------------------------------------------

    Molecular point group: c1
  Charge       = 0
  Multiplicity = 1
  Basis Set: AUG-CC-PVTZ
    Blend: AUG-CC-PVTZ
  Basis Set: (AUG-CC-PVTZ AUX)
    Blend: AUG-CC-PVTZ-JKFIT

    Orbital Energies [Eh]
    ---------------------

    Doubly Occupied:

       1A    -20.624027     2A    -20.615342     3A    -20.553229
       4A    -11.442726     5A    -11.300332     6A    -11.226011
       7A    -11.222884     8A     -1.508268     9A     -1.405218
      10A     -1.365682    11A     -1.074035    12A     -0.950166
      13A     -0.889311    14A     -0.787539    15A     -0.749255
      16A     -0.716747    17A     -0.688900    18A     -0.638230
      19A     -0.624549    20A     -0.604452    21A     -0.570907
      22A     -0.551734    23A     -0.547557    24A     -0.527699
      25A     -0.501900    26A     -0.485642    27A     -0.479094
      28A     -0.462120

  @DF-RHF Final Energy:  -380.90054476385399

   => Energetics <=

    Nuclear Repulsion Energy =            324.6221695808227423
    One-Electron Energy =               -1164.8183142998411768
    Two-Electron Energy =                 459.2955999551644481
    Total Energy =                       -380.9005447638539863
  Basis Set: (AUG-CC-PVTZ AUX)
    Blend: AUG-CC-PVTZ-RI
    Molecular point group: c1

    Geometry (in Angstrom), charge = 0, multiplicity = 1:

       Center              X                  Y                   Z               Mass
    ------------   -----------------  -----------------  -----------------  -----------------
         O            0.008303226699    -0.583877686129     0.247768061246    15.994914619570
         O            2.164607226699    -0.716865686129     0.483047061246    15.994914619570
         O            1.325310226699     0.996814313871    -0.764289938754    15.994914619570
         C           -1.171879673301     0.068021413871    -0.260826038754    12.000000000000
         C           -2.252057773301    -1.000174686129    -0.290238938754    12.000000000000
         C           -1.531474773301     1.252841313871     0.626219061246    12.000000000000
         C            1.166002226699     0.000731313871    -0.080277938754    12.000000000000
         H           -0.961771773301     0.424996313871    -1.279568938754     1.007825032230
         H           -3.186241773301    -0.592163686129    -0.686220938754     1.007825032230
         H           -1.939662773301    -1.836494686129    -0.919480938754     1.007825032230
         H           -2.433440773301    -1.372151686129     0.721454061246     1.007825032230
         H           -2.449457773301     1.734524313871     0.276415061246     1.007825032230
         H           -0.727620773301     1.991172313871     0.611447061246     1.007825032230
         H           -1.686850773301     0.906997313871     1.651846061246     1.007825032230
         H            2.985601226699    -0.260390686129     0.216387061246     1.007825032230

  Basis Set: AUG-CC-PVTZ
    Blend: AUG-CC-PVTZ
  Basis Set: (AUG-CC-PVTZ AUX)
    Blend: AUG-CC-PVTZ-JKFIT
	 Reference Energy          =    -380.9005447638539863 [Eh]
	 Singles Energy            =      -0.0000000000000000 [Eh]
	 Same-Spin Energy          =      -0.3680581397259073 [Eh]
	 Opposite-Spin Energy      =      -1.1626028160556481 [Eh]
	 Correlation Energy        =      -1.5306609557815554 [Eh]
	 Total Energy              =    -382.4312057196355568 [Eh]

	 ================> DF-SCS-MP2 Energies <==================
	-----------------------------------------------------------
	 SCS Same-Spin Scale       =       0.3333333333333333 [-]
	 SCS Opposite-Spin Scale   =       1.2000000000000000 [-]
	 SCS Same-Spin Energy      =      -0.1226860465753024 [Eh]
	 SCS Opposite-Spin Energy  =      -1.3951233792667777 [Eh]
	 SCS Correlation Energy    =      -1.5178094258420800 [Eh]
	 SCS Total Energy          =    -382.4183541896960605 [Eh]
	-----------------------------------------------------------

  Dipole Moment: [D]
     X:    -0.8994      Y:    -0.0956      Z:     0.0960     Total:     0.9096

*** Psi4 exiting successfully. Buy a developer a beer!
