                               Psi4 1.4a3.dev225

  ==> Input File <==

--------------------------------------------------------------------------
#psi4
#
memory 32 gb

molecule  {
0 1
  O        0.1020250    -0.5936610     0.2432790
  O        2.2583290    -0.7266490     0.4785580
  O        1.4190320     0.9870310    -0.7687790
  C       -1.0945380     0.0672860    -0.2723740
  C       -2.1583360    -1.0099580    -0.2947280
  C       -1.4377530     1.2430580     0.6217300
  C        1.2597240    -0.0090520    -0.0847670
  H       -0.8680500     0.4152130    -1.2840580
  H       -3.0925200    -0.6019470    -0.6907100
  H       -1.8459410    -1.8462780    -0.9239700
  H       -2.3397190    -1.3819350     0.7169650
  H       -2.3557360     1.7247410     0.2719260
  H       -0.6338990     1.9813890     0.6069580
  H       -1.5931290     0.8972140     1.6473570
  H        2.9952459    -0.3169211     0.2392064
units angstrom
no_reorient  #important for SAPT in psi4, default
symmetry c1  #important for SAPT in psi4, default
}

set PROPERTIES_ORIGIN ["COM"]
properties('MP2/aug-cc-pvtz', properties = ['dipole'])
--------------------------------------------------------------------------

    Molecular point group: c1
  Charge       = 0
  Multiplicity = 1
  Basis Set: AUG-CC-PVTZ
    Blend: AUG-CC-PVTZ
  Basis Set: (AUG-CC-PVTZ AUX)
    Blend: AUG-CC-PVTZ-JKFIT

    Orbital Energies [Eh]
    ---------------------

    Doubly Occupied:

       1A    -20.615527     2A    -20.613433     3A    -20.553921
       4A    -11.443142     5A    -11.301830     6A    -11.227242
       7A    -11.224210     8A     -1.515522     9A     -1.415973
      10A     -1.368102    11A     -1.078005    12A     -0.952464
      13A     -0.899742    14A     -0.794203    15A     -0.754554
      16A     -0.721753    17A     -0.688718    18A     -0.644169
      19A     -0.627236    20A     -0.605639    21A     -0.572538
      22A     -0.553661    23A     -0.545597    24A     -0.528385
      25A     -0.505320    26A     -0.489526    27A     -0.479872
      28A     -0.464799

  @DF-RHF Final Energy:  -380.89549391357792

   => Energetics <=

    Nuclear Repulsion Energy =            325.0440517049377149
    One-Electron Energy =               -1165.5089261780919969
    Two-Electron Energy =                 459.5693805595763592
    Total Energy =                       -380.8954939135779227
  Basis Set: (AUG-CC-PVTZ AUX)
    Blend: AUG-CC-PVTZ-RI
    Molecular point group: c1

    Geometry (in Angstrom), charge = 0, multiplicity = 1:

       Center              X                  Y                   Z               Mass
    ------------   -----------------  -----------------  -----------------  -----------------
         O            0.011006767173    -0.584468397050     0.248317664038    15.994914619570
         O            2.167310767173    -0.717456397050     0.483596664038    15.994914619570
         O            1.328013767173     0.996223602950    -0.763740335962    15.994914619570
         C           -1.185556232827     0.076478602950    -0.267335335962    12.000000000000
         C           -2.249354232827    -1.000765397050    -0.289689335962    12.000000000000
         C           -1.528771232827     1.252250602950     0.626768664038    12.000000000000
         C            1.168705767173     0.000140602950    -0.079728335962    12.000000000000
         H           -0.959068232827     0.424405602950    -1.279019335962     1.007825032230
         H           -3.183538232827    -0.592754397050    -0.685671335962     1.007825032230
         H           -1.936959232827    -1.837085397050    -0.918931335962     1.007825032230
         H           -2.430737232827    -1.372742397050     0.722003664038     1.007825032230
         H           -2.446754232827     1.733933602950     0.276964664038     1.007825032230
         H           -0.724917232827     1.990581602950     0.611996664038     1.007825032230
         H           -1.684147232827     0.906406602950     1.652395664038     1.007825032230
         H            2.904227667173    -0.307728497050     0.244245064038     1.007825032230

  Basis Set: AUG-CC-PVTZ
    Blend: AUG-CC-PVTZ
  Basis Set: (AUG-CC-PVTZ AUX)
    Blend: AUG-CC-PVTZ-JKFIT
	 Reference Energy          =    -380.8954939135779227 [Eh]
	 Singles Energy            =      -0.0000000000000000 [Eh]
	 Same-Spin Energy          =      -0.3669594993432737 [Eh]
	 Opposite-Spin Energy      =      -1.1600981081172046 [Eh]
	 Correlation Energy        =      -1.5270576074604783 [Eh]
	 Total Energy              =    -382.4225515210384287 [Eh]

	 ================> DF-SCS-MP2 Energies <==================
	-----------------------------------------------------------
	 SCS Same-Spin Scale       =       0.3333333333333333 [-]
	 SCS Opposite-Spin Scale   =       1.2000000000000000 [-]
	 SCS Same-Spin Energy      =      -0.1223198331144245 [Eh]
	 SCS Opposite-Spin Energy  =      -1.3921177297406455 [Eh]
	 SCS Correlation Energy    =      -1.5144375628550701 [Eh]
	 SCS Total Energy          =    -382.4099314764329733 [Eh]
	-----------------------------------------------------------

  Dipole Moment: [D]
     X:    -1.1372      Y:    -0.1060      Z:     0.1015     Total:     1.1467

*** Psi4 exiting successfully. Buy a developer a beer!
