                               Psi4 1.4a3.dev225

  ==> Input File <==

--------------------------------------------------------------------------
#psi4
#
memory 32 gb

molecule  {
0 1
  O        0.1020250    -0.5936610     0.2432790
  O        2.2583290    -0.7266490     0.4785580
  O        1.4190320     0.9870310    -0.7687790
  C       -1.0280219    -0.0044152    -0.2323244
  C       -2.1583360    -1.0099580    -0.2947280
  C       -1.4377530     1.2430580     0.6217300
  C        1.2597240    -0.0090520    -0.0847670
  H       -0.8680500     0.4152130    -1.2840580
  H       -3.0925200    -0.6019470    -0.6907100
  H       -1.8459410    -1.8462780    -0.9239700
  H       -2.3397190    -1.3819350     0.7169650
  H       -2.3557360     1.7247410     0.2719260
  H       -0.6338990     1.9813890     0.6069580
  H       -1.5931290     0.8972140     1.6473570
  H        3.0793230    -0.2701740     0.2118980
units angstrom
no_reorient  #important for SAPT in psi4, default
symmetry c1  #important for SAPT in psi4, default
}

set PROPERTIES_ORIGIN ["COM"]
properties('MP2/aug-cc-pvtz', properties = ['dipole'])
--------------------------------------------------------------------------

    Molecular point group: c1
  Charge       = 0
  Multiplicity = 1
  Basis Set: AUG-CC-PVTZ
    Blend: AUG-CC-PVTZ
  Basis Set: (AUG-CC-PVTZ AUX)
    Blend: AUG-CC-PVTZ-JKFIT

    Orbital Energies [Eh]
    ---------------------

    Doubly Occupied:

       1A    -20.629141     2A    -20.625177     3A    -20.558949
       4A    -11.450059     5A    -11.299379     6A    -11.223672
       7A    -11.220220     8A     -1.522902     9A     -1.424538
      10A     -1.372033    11A     -1.068990    12A     -0.944568
      13A     -0.907351    14A     -0.781792    15A     -0.761935
      16A     -0.721091    17A     -0.699458    18A     -0.643589
      19A     -0.623338    20A     -0.611069    21A     -0.572590
      22A     -0.559697    23A     -0.547286    24A     -0.529485
      25A     -0.500261    26A     -0.485096    27A     -0.474301
      28A     -0.444524

  @DF-RHF Final Energy:  -380.89144784489281

   => Energetics <=

    Nuclear Repulsion Energy =            325.5967000431755878
    One-Electron Energy =               -1166.5713158810629011
    Two-Electron Energy =                 460.0831679929945039
    Total Energy =                       -380.8914478448928094
  Basis Set: (AUG-CC-PVTZ AUX)
    Blend: AUG-CC-PVTZ-RI
    Molecular point group: c1

    Geometry (in Angstrom), charge = 0, multiplicity = 1:

       Center              X                  Y                   Z               Mass
    ------------   -----------------  -----------------  -----------------  -----------------
         O            0.002520935906    -0.576651748683     0.243963174121    15.994914619570
         O            2.158824935906    -0.709639748683     0.479242174121    15.994914619570
         O            1.319527935906     1.004040251317    -0.768094825879    15.994914619570
         C           -1.127525964094     0.012594051317    -0.231640225879    12.000000000000
         C           -2.257840064094    -0.992948748683    -0.294043825879    12.000000000000
         C           -1.537257064094     1.260067251317     0.622414174121    12.000000000000
         C            1.160219935906     0.007957251317    -0.084082825879    12.000000000000
         H           -0.967554064094     0.432222251317    -1.283373825879     1.007825032230
         H           -3.192024064094    -0.584937748683    -0.690025825879     1.007825032230
         H           -1.945445064094    -1.829268748683    -0.923285825879     1.007825032230
         H           -2.439223064094    -1.364925748683     0.717649174121     1.007825032230
         H           -2.455240064094     1.741750251317     0.272610174121     1.007825032230
         H           -0.733403064094     1.998398251317     0.607642174121     1.007825032230
         H           -1.692633064094     0.914223251317     1.648041174121     1.007825032230
         H            2.979818935906    -0.253164748683     0.212582174121     1.007825032230

  Basis Set: AUG-CC-PVTZ
    Blend: AUG-CC-PVTZ
  Basis Set: (AUG-CC-PVTZ AUX)
    Blend: AUG-CC-PVTZ-JKFIT
	 Reference Energy          =    -380.8914478448928094 [Eh]
	 Singles Energy            =      -0.0000000000000000 [Eh]
	 Same-Spin Energy          =      -0.3682460582526108 [Eh]
	 Opposite-Spin Energy      =      -1.1624145554255874 [Eh]
	 Correlation Energy        =      -1.5306606136781982 [Eh]
	 Total Energy              =    -382.4221084585710173 [Eh]

	 ================> DF-SCS-MP2 Energies <==================
	-----------------------------------------------------------
	 SCS Same-Spin Scale       =       0.3333333333333333 [-]
	 SCS Opposite-Spin Scale   =       1.2000000000000000 [-]
	 SCS Same-Spin Energy      =      -0.1227486860842036 [Eh]
	 SCS Opposite-Spin Energy  =      -1.3948974665107048 [Eh]
	 SCS Correlation Energy    =      -1.5176461525949083 [Eh]
	 SCS Total Energy          =    -382.4090939974877301 [Eh]
	-----------------------------------------------------------

  Dipole Moment: [D]
     X:    -0.5603      Y:    -0.2167      Z:     0.1239     Total:     0.6134

*** Psi4 exiting successfully. Buy a developer a beer!
