                               Psi4 1.4a3.dev225

  ==> Input File <==

--------------------------------------------------------------------------
#psi4
#
memory 32 gb

molecule  {
0 1
  O        0.1020250    -0.5936610     0.2432790
  O        2.2583290    -0.7266490     0.4785580
  O        1.4190320     0.9870310    -0.7687790
  C       -1.1764384     0.1125255    -0.3076686
  C       -2.1583360    -1.0099580    -0.2947280
  C       -1.4377530     1.2430580     0.6217300
  C        1.2597240    -0.0090520    -0.0847670
  H       -0.8680500     0.4152130    -1.2840580
  H       -3.0925200    -0.6019470    -0.6907100
  H       -1.8459410    -1.8462780    -0.9239700
  H       -2.3397190    -1.3819350     0.7169650
  H       -2.3557360     1.7247410     0.2719260
  H       -0.6338990     1.9813890     0.6069580
  H       -1.5931290     0.8972140     1.6473570
  H        3.0793230    -0.2701740     0.2118980
units angstrom
no_reorient  #important for SAPT in psi4, default
symmetry c1  #important for SAPT in psi4, default
}

set PROPERTIES_ORIGIN ["COM"]
properties('MP2/aug-cc-pvtz', properties = ['dipole'])
--------------------------------------------------------------------------

    Molecular point group: c1
  Charge       = 0
  Multiplicity = 1
  Basis Set: AUG-CC-PVTZ
    Blend: AUG-CC-PVTZ
  Basis Set: (AUG-CC-PVTZ AUX)
    Blend: AUG-CC-PVTZ-JKFIT

    Orbital Energies [Eh]
    ---------------------

    Doubly Occupied:

       1A    -20.615735     2A    -20.596242     3A    -20.544104
       4A    -11.431422     5A    -11.307292     6A    -11.230922
       7A    -11.227835     8A     -1.491180     9A     -1.379482
      10A     -1.353160    11A     -1.087694    12A     -0.960814
      13A     -0.868283    14A     -0.793790    15A     -0.731045
      16A     -0.708538    17A     -0.674072    18A     -0.635898
      19A     -0.630527    20A     -0.598334    21A     -0.572685
      22A     -0.557878    23A     -0.532088    24A     -0.520845
      25A     -0.509942    26A     -0.497075    27A     -0.469841
      28A     -0.463766

  @DF-RHF Final Energy:  -380.89217257163267

   => Energetics <=

    Nuclear Repulsion Energy =            323.2061739926950281
    One-Electron Energy =               -1162.2157177039518956
    Two-Electron Energy =                 458.1173711396241401
    Total Energy =                       -380.8921725716326705
  Basis Set: (AUG-CC-PVTZ AUX)
    Blend: AUG-CC-PVTZ-RI
    Molecular point group: c1

    Geometry (in Angstrom), charge = 0, multiplicity = 1:

       Center              X                  Y                   Z               Mass
    ------------   -----------------  -----------------  -----------------  -----------------
         O            0.019638124385    -0.590138766655     0.252652779874    15.994914619570
         O            2.175942124385    -0.723126766655     0.487931779874    15.994914619570
         O            1.336645124385     0.990553233345    -0.759405220126    15.994914619570
         C           -1.258825275615     0.116047733345    -0.298294820126    12.000000000000
         C           -2.240722875615    -1.006435766655    -0.285354220126    12.000000000000
         C           -1.520139875615     1.246580233345     0.631103779874    12.000000000000
         C            1.177337124385    -0.005529766655    -0.075393220126    12.000000000000
         H           -0.950436875615     0.418735233345    -1.274684220126     1.007825032230
         H           -3.174906875615    -0.598424766655    -0.681336220126     1.007825032230
         H           -1.928327875615    -1.842755766655    -0.914596220126     1.007825032230
         H           -2.422105875615    -1.378412766655     0.726338779874     1.007825032230
         H           -2.438122875615     1.728263233345     0.281299779874     1.007825032230
         H           -0.716285875615     1.984911233345     0.616331779874     1.007825032230
         H           -1.675515875615     0.900736233345     1.656730779874     1.007825032230
         H            2.996936124385    -0.266651766655     0.221271779874     1.007825032230

  Basis Set: AUG-CC-PVTZ
    Blend: AUG-CC-PVTZ
  Basis Set: (AUG-CC-PVTZ AUX)
    Blend: AUG-CC-PVTZ-JKFIT
	 Reference Energy          =    -380.8921725716326705 [Eh]
	 Singles Energy            =      -0.0000000000000000 [Eh]
	 Same-Spin Energy          =      -0.3686212514489750 [Eh]
	 Opposite-Spin Energy      =      -1.1639919788059392 [Eh]
	 Correlation Energy        =      -1.5326132302549142 [Eh]
	 Total Energy              =    -382.4247858018875945 [Eh]

	 ================> DF-SCS-MP2 Energies <==================
	-----------------------------------------------------------
	 SCS Same-Spin Scale       =       0.3333333333333333 [-]
	 SCS Opposite-Spin Scale   =       1.2000000000000000 [-]
	 SCS Same-Spin Energy      =      -0.1228737504829917 [Eh]
	 SCS Opposite-Spin Energy  =      -1.3967903745671271 [Eh]
	 SCS Correlation Energy    =      -1.5196641250501186 [Eh]
	 SCS Total Energy          =    -382.4118366966827693 [Eh]
	-----------------------------------------------------------

  Dipole Moment: [D]
     X:    -1.4627      Y:     0.0106      Z:     0.0574     Total:     1.4639

*** Psi4 exiting successfully. Buy a developer a beer!
