                               Psi4 1.4a3.dev225

  ==> Input File <==

--------------------------------------------------------------------------
#psi4
#
memory 32 gb

molecule  {
0 1
  O        0.1020250    -0.5936610     0.2432790
  O        2.2583290    -0.7266490     0.4785580
  O        1.4190320     0.9870310    -0.7687790
  C       -1.0945380     0.0672860    -0.2723740
  C       -2.1583360    -1.0099580    -0.2947280
  C       -1.4377530     1.2430580     0.6217300
  C        1.2597240    -0.0090520    -0.0847670
  H       -0.8680500     0.4152130    -1.2840580
  H       -3.0925200    -0.6019470    -0.6907100
  H       -1.8459410    -1.8462780    -0.9239700
  H       -2.3397190    -1.3819350     0.7169650
  H       -2.3557360     1.7247410     0.2719260
  H       -0.6338990     1.9813890     0.6069580
  H       -1.5931290     0.8972140     1.6473570
  H        3.1213616    -0.2468004     0.1982438
units angstrom
no_reorient  #important for SAPT in psi4, default
symmetry c1  #important for SAPT in psi4, default
}

set PROPERTIES_ORIGIN ["COM"]
properties('MP2/aug-cc-pvtz', properties = ['dipole'])
--------------------------------------------------------------------------

    Molecular point group: c1
  Charge       = 0
  Multiplicity = 1
  Basis Set: AUG-CC-PVTZ
    Blend: AUG-CC-PVTZ
  Basis Set: (AUG-CC-PVTZ AUX)
    Blend: AUG-CC-PVTZ-JKFIT

    Orbital Energies [Eh]
    ---------------------

    Doubly Occupied:

       1A    -20.625465     2A    -20.611968     3A    -20.550670
       4A    -11.439826     5A    -11.300826     6A    -11.226452
       7A    -11.223337     8A     -1.501500     9A     -1.394379
      10A     -1.361302    11A     -1.075417    12A     -0.951553
      13A     -0.879890    14A     -0.786235    15A     -0.742021
      16A     -0.711769    17A     -0.685072    18A     -0.632766
      19A     -0.625235    20A     -0.601770    21A     -0.569859
      22A     -0.552585    23A     -0.543352    24A     -0.526533
      25A     -0.502545    26A     -0.487347    27A     -0.476592
      28A     -0.463211

  @DF-RHF Final Energy:  -380.89563708039645

   => Energetics <=

    Nuclear Repulsion Energy =            324.0842174887910119
    One-Electron Energy =               -1163.8607538017099614
    Two-Electron Energy =                 458.8808992325225518
    Total Energy =                       -380.8956370803964546
  Basis Set: (AUG-CC-PVTZ AUX)
    Blend: AUG-CC-PVTZ-RI
    Molecular point group: c1

    Geometry (in Angstrom), charge = 0, multiplicity = 1:

       Center              X                  Y                   Z               Mass
    ------------   -----------------  -----------------  -----------------  -----------------
         O            0.009785183283    -0.585147601285     0.248714436623    15.994914619570
         O            2.166089183283    -0.718135601285     0.483993436623    15.994914619570
         O            1.326792183283     0.995544398715    -0.763343563377    15.994914619570
         C           -1.186777816717     0.075799398715    -0.266938563377    12.000000000000
         C           -2.250575816717    -1.001444601284    -0.289292563377    12.000000000000
         C           -1.529992816717     1.251571398715     0.627165436623    12.000000000000
         C            1.167484183283    -0.000538601285    -0.079331563377    12.000000000000
         H           -0.960289816717     0.423726398715    -1.278622563377     1.007825032230
         H           -3.184759816717    -0.593433601285    -0.685274563377     1.007825032230
         H           -1.938180816717    -1.837764601285    -0.918534563377     1.007825032230
         H           -2.431958816717    -1.373421601284     0.722400436623     1.007825032230
         H           -2.447975816717     1.733254398715     0.277361436623     1.007825032230
         H           -0.726138816717     1.989902398716     0.612393436623     1.007825032230
         H           -1.685368816717     0.905727398715     1.652792436623     1.007825032230
         H            3.029121783283    -0.238287001285     0.203679236623     1.007825032230

  Basis Set: AUG-CC-PVTZ
    Blend: AUG-CC-PVTZ
  Basis Set: (AUG-CC-PVTZ AUX)
    Blend: AUG-CC-PVTZ-JKFIT
	 Reference Energy          =    -380.8956370803964546 [Eh]
	 Singles Energy            =      -0.0000000000000000 [Eh]
	 Same-Spin Energy          =      -0.3686708985817334 [Eh]
	 Opposite-Spin Energy      =      -1.1642142522203980 [Eh]
	 Correlation Energy        =      -1.5328851508021313 [Eh]
	 Total Energy              =    -382.4285222311985990 [Eh]

	 ================> DF-SCS-MP2 Energies <==================
	-----------------------------------------------------------
	 SCS Same-Spin Scale       =       0.3333333333333333 [-]
	 SCS Opposite-Spin Scale   =       1.2000000000000000 [-]
	 SCS Same-Spin Energy      =      -0.1228902995272445 [Eh]
	 SCS Opposite-Spin Energy  =      -1.3970571026644776 [Eh]
	 SCS Correlation Energy    =      -1.5199474021917221 [Eh]
	 SCS Total Energy          =    -382.4155844825882014 [Eh]
	-----------------------------------------------------------

  Dipole Moment: [D]
     X:    -0.9212      Y:    -0.0612      Z:     0.0811     Total:     0.9268

*** Psi4 exiting successfully. Buy a developer a beer!
