                               Psi4 1.4a3.dev225

  ==> Input File <==

--------------------------------------------------------------------------
#psi4
#
memory 32 gb

molecule  {
0 1
  O        0.1020250    -0.5936610     0.2432790
  O        2.2583290    -0.7266490     0.4785580
  O        1.4190320     0.9870310    -0.7687790
  C       -1.0945380     0.0672860    -0.2723740
  C       -2.1602099    -1.0057185    -0.3473751
  C       -1.4377530     1.2430580     0.6217300
  C        1.2597240    -0.0090520    -0.0847670
  H       -0.8680500     0.4152130    -1.2840580
  H       -3.0925200    -0.6019470    -0.6907100
  H       -1.8459410    -1.8462780    -0.9239700
  H       -2.3397190    -1.3819350     0.7169650
  H       -2.3557360     1.7247410     0.2719260
  H       -0.6338990     1.9813890     0.6069580
  H       -1.5931290     0.8972140     1.6473570
  H        3.0793230    -0.2701740     0.2118980
units angstrom
no_reorient  #important for SAPT in psi4, default
symmetry c1  #important for SAPT in psi4, default
}

set PROPERTIES_ORIGIN ["COM"]
properties('MP2/aug-cc-pvtz', properties = ['dipole'])
--------------------------------------------------------------------------

    Molecular point group: c1
  Charge       = 0
  Multiplicity = 1
  Basis Set: AUG-CC-PVTZ
    Blend: AUG-CC-PVTZ
  Basis Set: (AUG-CC-PVTZ AUX)
    Blend: AUG-CC-PVTZ-JKFIT

    Orbital Energies [Eh]
    ---------------------

    Doubly Occupied:

       1A    -20.622854     2A    -20.612958     3A    -20.551693
       4A    -11.441146     5A    -11.301244     6A    -11.227337
       7A    -11.224204     8A     -1.505194     9A     -1.400649
      10A     -1.363867    11A     -1.075992    12A     -0.952917
      13A     -0.885865    14A     -0.787840    15A     -0.746502
      16A     -0.715371    17A     -0.686449    18A     -0.636917
      19A     -0.628930    20A     -0.602264    21A     -0.573770
      22A     -0.551341    23A     -0.543314    24A     -0.529321
      25A     -0.504469    26A     -0.481735    27A     -0.477696
      28A     -0.464620

  @DF-RHF Final Energy:  -380.89773633693386

   => Energetics <=

    Nuclear Repulsion Energy =            324.2560897381828227
    One-Electron Energy =               -1164.1147312993764444
    Two-Electron Energy =                 458.9609052242597613
    Total Energy =                       -380.8977363369338605
  Basis Set: (AUG-CC-PVTZ AUX)
    Blend: AUG-CC-PVTZ-RI
    Molecular point group: c1

    Geometry (in Angstrom), charge = 0, multiplicity = 1:

       Center              X                  Y                   Z               Mass
    ------------   -----------------  -----------------  -----------------  -----------------
         O            0.010408499082    -0.585410150041     0.254654080356    15.994914619570
         O            2.166712499082    -0.718398150041     0.489933080356    15.994914619570
         O            1.327415499082     0.995281849959    -0.757403919644    15.994914619570
         C           -1.186154500918     0.075536849959    -0.260998919644    12.000000000000
         C           -2.251826400918    -0.997467650041    -0.336000019644    12.000000000000
         C           -1.529369500918     1.251308849959     0.633105080356    12.000000000000
         C            1.168107499082    -0.000801150041    -0.073391919644    12.000000000000
         H           -0.959666500918     0.423463849959    -1.272682919644     1.007825032230
         H           -3.184136500918    -0.593696150041    -0.679334919644     1.007825032230
         H           -1.937557500918    -1.838027150041    -0.912594919644     1.007825032230
         H           -2.431335500918    -1.373684150041     0.728340080356     1.007825032230
         H           -2.447352500918     1.732991849959     0.283301080356     1.007825032230
         H           -0.725515500918     1.989639849959     0.618333080356     1.007825032230
         H           -1.684745500918     0.905464849959     1.658732080356     1.007825032230
         H            2.987706499082    -0.261923150041     0.223273080356     1.007825032230

  Basis Set: AUG-CC-PVTZ
    Blend: AUG-CC-PVTZ
  Basis Set: (AUG-CC-PVTZ AUX)
    Blend: AUG-CC-PVTZ-JKFIT
	 Reference Energy          =    -380.8977363369338605 [Eh]
	 Singles Energy            =      -0.0000000000000000 [Eh]
	 Same-Spin Energy          =      -0.3681160331775283 [Eh]
	 Opposite-Spin Energy      =      -1.1628548283243660 [Eh]
	 Correlation Energy        =      -1.5309708615018942 [Eh]
	 Total Energy              =    -382.4287071984357453 [Eh]

	 ================> DF-SCS-MP2 Energies <==================
	-----------------------------------------------------------
	 SCS Same-Spin Scale       =       0.3333333333333333 [-]
	 SCS Opposite-Spin Scale   =       1.2000000000000000 [-]
	 SCS Same-Spin Energy      =      -0.1227053443925094 [Eh]
	 SCS Opposite-Spin Energy  =      -1.3954257939892392 [Eh]
	 SCS Correlation Energy    =      -1.5181311383817486 [Eh]
	 SCS Total Energy          =    -382.4158674753156220 [Eh]
	-----------------------------------------------------------

  Dipole Moment: [D]
     X:    -0.9860      Y:    -0.0672      Z:     0.0660     Total:     0.9905

*** Psi4 exiting successfully. Buy a developer a beer!
