                               Psi4 1.4a3.dev225

  ==> Input File <==

--------------------------------------------------------------------------
#psi4
#
memory 32 gb

molecule  {
0 1
  O        0.1020250    -0.5936610     0.2432790
  O        2.2583290    -0.7266490     0.4785580
  O        1.4190320     0.9870310    -0.7687790
  C       -1.0945380     0.0672860    -0.2723740
  C       -2.1583360    -1.0099580    -0.2947280
  C       -1.4264367     1.2042911     0.5922501
  C        1.2597240    -0.0090520    -0.0847670
  H       -0.8680500     0.4152130    -1.2840580
  H       -3.0925200    -0.6019470    -0.6907100
  H       -1.8459410    -1.8462780    -0.9239700
  H       -2.3397190    -1.3819350     0.7169650
  H       -2.3557360     1.7247410     0.2719260
  H       -0.6338990     1.9813890     0.6069580
  H       -1.5931290     0.8972140     1.6473570
  H        3.0793230    -0.2701740     0.2118980
units angstrom
no_reorient  #important for SAPT in psi4, default
symmetry c1  #important for SAPT in psi4, default
}

set PROPERTIES_ORIGIN ["COM"]
properties('MP2/aug-cc-pvtz', properties = ['dipole'])
--------------------------------------------------------------------------

    Molecular point group: c1
  Charge       = 0
  Multiplicity = 1
  Basis Set: AUG-CC-PVTZ
    Blend: AUG-CC-PVTZ
  Basis Set: (AUG-CC-PVTZ AUX)
    Blend: AUG-CC-PVTZ-JKFIT

    Orbital Energies [Eh]
    ---------------------

    Doubly Occupied:

       1A    -20.622668     2A    -20.612275     3A    -20.551644
       4A    -11.440924     5A    -11.299067     6A    -11.226753
       7A    -11.225636     8A     -1.505223     9A     -1.400985
      10A     -1.363873    11A     -1.083372    12A     -0.952156
      13A     -0.885013    14A     -0.788944    15A     -0.746668
      16A     -0.715606    17A     -0.687369    18A     -0.637443
      19A     -0.629745    20A     -0.604160    21A     -0.570094
      22A     -0.550424    23A     -0.543950    24A     -0.519963
      25A     -0.504967    26A     -0.485390    27A     -0.478072
      28A     -0.467432

  @DF-RHF Final Energy:  -380.89753040299871

   => Energetics <=

    Nuclear Repulsion Energy =            325.2173280396488622
    One-Electron Energy =               -1166.0300891175520519
    Two-Electron Energy =                 459.9152306749044214
    Total Energy =                       -380.8975304029987115
  Basis Set: (AUG-CC-PVTZ AUX)
    Blend: AUG-CC-PVTZ-RI
    Molecular point group: c1

    Geometry (in Angstrom), charge = 0, multiplicity = 1:

       Center              X                  Y                   Z               Mass
    ------------   -----------------  -----------------  -----------------  -----------------
         O            0.008887245451    -0.580450131077     0.251982158239    15.994914619570
         O            2.165191245451    -0.713438131077     0.487261158239    15.994914619570
         O            1.325894245451     1.000241868923    -0.760075841761    15.994914619570
         C           -1.187675754549     0.080496868923    -0.263670841761    12.000000000000
         C           -2.251473754549    -0.996747131077    -0.286024841761    12.000000000000
         C           -1.519574454549     1.217501968923     0.600953258239    12.000000000000
         C            1.166586245451     0.004158868923    -0.076063841761    12.000000000000
         H           -0.961187754549     0.428423868923    -1.275354841761     1.007825032230
         H           -3.185657754549    -0.588736131077    -0.682006841761     1.007825032230
         H           -1.939078754549    -1.833067131077    -0.915266841761     1.007825032230
         H           -2.432856754549    -1.368724131077     0.725668158239     1.007825032230
         H           -2.448873754549     1.737951868923     0.280629158239     1.007825032230
         H           -0.727036754549     1.994599868923     0.615661158239     1.007825032230
         H           -1.686266754549     0.910424868923     1.656060158239     1.007825032230
         H            2.986185245451    -0.256963131077     0.220601158239     1.007825032230

  Basis Set: AUG-CC-PVTZ
    Blend: AUG-CC-PVTZ
  Basis Set: (AUG-CC-PVTZ AUX)
    Blend: AUG-CC-PVTZ-JKFIT
	 Reference Energy          =    -380.8975304029987115 [Eh]
	 Singles Energy            =      -0.0000000000000000 [Eh]
	 Same-Spin Energy          =      -0.3685603911219785 [Eh]
	 Opposite-Spin Energy      =      -1.1632316733510022 [Eh]
	 Correlation Energy        =      -1.5317920644729808 [Eh]
	 Total Energy              =    -382.4293224674717067 [Eh]

	 ================> DF-SCS-MP2 Energies <==================
	-----------------------------------------------------------
	 SCS Same-Spin Scale       =       0.3333333333333333 [-]
	 SCS Opposite-Spin Scale   =       1.2000000000000000 [-]
	 SCS Same-Spin Energy      =      -0.1228534637073262 [Eh]
	 SCS Opposite-Spin Energy  =      -1.3958780080212025 [Eh]
	 SCS Correlation Energy    =      -1.5187314717285287 [Eh]
	 SCS Total Energy          =    -382.4162618747272404 [Eh]
	-----------------------------------------------------------

  Dipole Moment: [D]
     X:    -1.0027      Y:    -0.0501      Z:     0.0980     Total:     1.0087

*** Psi4 exiting successfully. Buy a developer a beer!
