                               Psi4 1.4a3.dev225

  ==> Input File <==

--------------------------------------------------------------------------
#psi4
#
memory 32 gb

molecule  {
0 1
  O        0.1020250    -0.5936610     0.2432790
  O        2.2583290    -0.7266490     0.4785580
  O        1.4190320     0.9870310    -0.7687790
  C       -1.0945380     0.0672860    -0.2723740
  C       -2.1583360    -1.0099580    -0.2947280
  C       -1.4377530     1.2430580     0.6217300
  C        1.2597240    -0.0090520    -0.0847670
  H       -0.8680500     0.4152130    -1.2840580
  H       -3.0925200    -0.6019470    -0.6907100
  H       -1.8459410    -1.8462780    -0.9239700
  H       -2.3397190    -1.3819350     0.7169650
  H       -2.3557360     1.7247410     0.2719260
  H       -0.6338990     1.9813890     0.6069580
  H       -1.5931290     0.8972140     1.6473570
  H        3.0625076    -0.2795234     0.2173597
units angstrom
no_reorient  #important for SAPT in psi4, default
symmetry c1  #important for SAPT in psi4, default
}

set PROPERTIES_ORIGIN ["COM"]
properties('MP2/aug-cc-pvtz', properties = ['dipole'])
--------------------------------------------------------------------------

    Molecular point group: c1
  Charge       = 0
  Multiplicity = 1
  Basis Set: AUG-CC-PVTZ
    Blend: AUG-CC-PVTZ
  Basis Set: (AUG-CC-PVTZ AUX)
    Blend: AUG-CC-PVTZ-JKFIT

    Orbital Energies [Eh]
    ---------------------

    Doubly Occupied:

       1A    -20.621456     2A    -20.612630     3A    -20.552161
       4A    -11.441353     5A    -11.301285     6A    -11.226815
       7A    -11.223739     8A     -1.506749     9A     -1.403315
      10A     -1.364808    11A     -1.076532    12A     -0.951967
      13A     -0.887977    14A     -0.789533    15A     -0.747886
      16A     -0.716817    17A     -0.686769    18A     -0.638532
      19A     -0.626210    20A     -0.603637    21A     -0.571118
      22A     -0.553079    23A     -0.544427    24A     -0.527371
      25A     -0.503800    26A     -0.488375    27A     -0.478130
      28A     -0.463955

  @DF-RHF Final Energy:  -380.90144791198804

   => Energetics <=

    Nuclear Repulsion Energy =            324.5038747786917384
    One-Electron Energy =               -1164.5897947093760649
    Two-Electron Energy =                 459.1844720186962832
    Total Energy =                       -380.9014479119880434
  Basis Set: (AUG-CC-PVTZ AUX)
    Blend: AUG-CC-PVTZ-RI
    Molecular point group: c1

    Geometry (in Angstrom), charge = 0, multiplicity = 1:

       Center              X                  Y                   Z               Mass
    ------------   -----------------  -----------------  -----------------  -----------------
         O            0.010355255830    -0.584830639244     0.248529275890    15.994914619570
         O            2.166659255830    -0.717818639244     0.483808275890    15.994914619570
         O            1.327362255830     0.995861360756    -0.763528724110    15.994914619570
         C           -1.186207744170     0.076116360756    -0.267123724110    12.000000000000
         C           -2.250005744170    -1.001127639244    -0.289477724110    12.000000000000
         C           -1.529422744170     1.251888360756     0.626980275890    12.000000000000
         C            1.168054255830    -0.000221639244    -0.079516724110    12.000000000000
         H           -0.959719744170     0.424043360756    -1.278807724110     1.007825032230
         H           -3.184189744170    -0.593116639244    -0.685459724110     1.007825032230
         H           -1.937610744170    -1.837447639244    -0.918719724110     1.007825032230
         H           -2.431388744170    -1.373104639244     0.722215275890     1.007825032230
         H           -2.447405744170     1.733571360756     0.277176275890     1.007825032230
         H           -0.725568744170     1.990219360756     0.612208275890     1.007825032230
         H           -1.684798744170     0.906044360756     1.652607275890     1.007825032230
         H            2.970837855830    -0.270693039244     0.222609975890     1.007825032230

  Basis Set: AUG-CC-PVTZ
    Blend: AUG-CC-PVTZ
  Basis Set: (AUG-CC-PVTZ AUX)
    Blend: AUG-CC-PVTZ-JKFIT
	 Reference Energy          =    -380.9014479119880434 [Eh]
	 Singles Energy            =      -0.0000000000000000 [Eh]
	 Same-Spin Energy          =      -0.3678694592253445 [Eh]
	 Opposite-Spin Energy      =      -1.1622065921575624 [Eh]
	 Correlation Energy        =      -1.5300760513829070 [Eh]
	 Total Energy              =    -382.4315239633709780 [Eh]

	 ================> DF-SCS-MP2 Energies <==================
	-----------------------------------------------------------
	 SCS Same-Spin Scale       =       0.3333333333333333 [-]
	 SCS Opposite-Spin Scale   =       1.2000000000000000 [-]
	 SCS Same-Spin Energy      =      -0.1226231530751148 [Eh]
	 SCS Opposite-Spin Energy  =      -1.3946479105890748 [Eh]
	 SCS Correlation Energy    =      -1.5172710636641895 [Eh]
	 SCS Total Energy          =    -382.4187189756522116 [Eh]
	-----------------------------------------------------------

  Dipole Moment: [D]
     X:    -1.0210      Y:    -0.0841      Z:     0.0920     Total:     1.0286

*** Psi4 exiting successfully. Buy a developer a beer!
