                               Psi4 1.4a3.dev225

  ==> Input File <==

--------------------------------------------------------------------------
#psi4
#
memory 32 gb

molecule  {
0 1
  O        0.1020250    -0.5936610     0.2432790
  O        2.2583290    -0.7266490     0.4785580
  O        1.4190320     0.9870310    -0.7687790
  C       -0.9968097    -0.0421256    -0.2124015
  C       -2.1583360    -1.0099580    -0.2947280
  C       -1.4377530     1.2430580     0.6217300
  C        1.2597240    -0.0090520    -0.0847670
  H       -0.8680500     0.4152130    -1.2840580
  H       -3.0925200    -0.6019470    -0.6907100
  H       -1.8459410    -1.8462780    -0.9239700
  H       -2.3397190    -1.3819350     0.7169650
  H       -2.3557360     1.7247410     0.2719260
  H       -0.6338990     1.9813890     0.6069580
  H       -1.5931290     0.8972140     1.6473570
  H        3.0793230    -0.2701740     0.2118980
units angstrom
no_reorient  #important for SAPT in psi4, default
symmetry c1  #important for SAPT in psi4, default
}

set PROPERTIES_ORIGIN ["COM"]
properties('MP2/aug-cc-pvtz', properties = ['dipole'])
--------------------------------------------------------------------------

    Molecular point group: c1
  Charge       = 0
  Multiplicity = 1
  Basis Set: AUG-CC-PVTZ
    Blend: AUG-CC-PVTZ
  Basis Set: (AUG-CC-PVTZ AUX)
    Blend: AUG-CC-PVTZ-JKFIT

    Orbital Energies [Eh]
    ---------------------

    Doubly Occupied:

       1A    -20.632284     2A    -20.630807     3A    -20.562628
       4A    -11.454617     5A    -11.300043     6A    -11.222740
       7A    -11.218460     8A     -1.534701     9A     -1.436691
      10A     -1.375721    11A     -1.067056    12A     -0.941035
      13A     -0.919538    14A     -0.779806    15A     -0.769880
      16A     -0.723833    17A     -0.706478    18A     -0.647456
      19A     -0.625125    20A     -0.615611    21A     -0.573704
      22A     -0.564475    23A     -0.544582    24A     -0.530245
      25A     -0.500831    26A     -0.488431    27A     -0.466992
      28A     -0.429324

  @DF-RHF Final Energy:  -380.87770891968307

   => Energetics <=

    Nuclear Repulsion Energy =            326.2226890471063143
    One-Electron Energy =               -1167.6746157309053160
    Two-Electron Energy =                 460.5742177641159287
    Total Energy =                       -380.8777089196830730
  Basis Set: (AUG-CC-PVTZ AUX)
    Blend: AUG-CC-PVTZ-RI
    Molecular point group: c1

    Geometry (in Angstrom), charge = 0, multiplicity = 1:

       Center              X                  Y                   Z               Mass
    ------------   -----------------  -----------------  -----------------  -----------------
         O           -0.001078833057    -0.572302528587     0.241665423976    15.994914619570
         O            2.155225166943    -0.705290528587     0.476944423976    15.994914619570
         O            1.315928166943     1.008389471413    -0.770392576024    15.994914619570
         C           -1.099913533057    -0.020767128587    -0.214015076024    12.000000000000
         C           -2.261439833057    -0.988599528587    -0.296341576024    12.000000000000
         C           -1.540856833057     1.264416471413     0.620116423976    12.000000000000
         C            1.156620166943     0.012306471413    -0.086380576024    12.000000000000
         H           -0.971153833057     0.436571471413    -1.285671576024     1.007825032230
         H           -3.195623833057    -0.580588528587    -0.692323576024     1.007825032230
         H           -1.949044833057    -1.824919528587    -0.925583576024     1.007825032230
         H           -2.442822833057    -1.360576528587     0.715351423976     1.007825032230
         H           -2.458839833057     1.746099471413     0.270312423976     1.007825032230
         H           -0.737002833057     2.002747471413     0.605344423976     1.007825032230
         H           -1.696232833057     0.918572471413     1.645743423976     1.007825032230
         H            2.976219166943    -0.248815528587     0.210284423976     1.007825032230

  Basis Set: AUG-CC-PVTZ
    Blend: AUG-CC-PVTZ
  Basis Set: (AUG-CC-PVTZ AUX)
    Blend: AUG-CC-PVTZ-JKFIT
	 Reference Energy          =    -380.8777089196830730 [Eh]
	 Singles Energy            =      -0.0000000000000000 [Eh]
	 Same-Spin Energy          =      -0.3686330297257566 [Eh]
	 Opposite-Spin Energy      =      -1.1627857639963053 [Eh]
	 Correlation Energy        =      -1.5314187937220618 [Eh]
	 Total Energy              =    -382.4091277134051552 [Eh]

	 ================> DF-SCS-MP2 Energies <==================
	-----------------------------------------------------------
	 SCS Same-Spin Scale       =       0.3333333333333333 [-]
	 SCS Opposite-Spin Scale   =       1.2000000000000000 [-]
	 SCS Same-Spin Energy      =      -0.1228776765752522 [Eh]
	 SCS Opposite-Spin Energy  =      -1.3953429167955662 [Eh]
	 SCS Correlation Energy    =      -1.5182205933708184 [Eh]
	 SCS Total Energy          =    -382.3959295130538862 [Eh]
	-----------------------------------------------------------

  Dipole Moment: [D]
     X:    -0.3415      Y:    -0.2960      Z:     0.1477     Total:     0.4755

*** Psi4 exiting successfully. Buy a developer a beer!
