                               Psi4 1.4a3.dev225

  ==> Input File <==

--------------------------------------------------------------------------
#psi4
#
memory 32 gb

molecule  {
0 1
  O        0.1020250    -0.5936610     0.2432790
  O        2.2583290    -0.7266490     0.4785580
  O        1.4190320     0.9870310    -0.7687790
  C       -1.0945380     0.0672860    -0.2723740
  C       -2.1583360    -1.0099580    -0.2947280
  C       -1.4603856     1.3205919     0.6806899
  C        1.2597240    -0.0090520    -0.0847670
  H       -0.8680500     0.4152130    -1.2840580
  H       -3.0925200    -0.6019470    -0.6907100
  H       -1.8459410    -1.8462780    -0.9239700
  H       -2.3397190    -1.3819350     0.7169650
  H       -2.3557360     1.7247410     0.2719260
  H       -0.6338990     1.9813890     0.6069580
  H       -1.5931290     0.8972140     1.6473570
  H        3.0793230    -0.2701740     0.2118980
units angstrom
no_reorient  #important for SAPT in psi4, default
symmetry c1  #important for SAPT in psi4, default
}

set PROPERTIES_ORIGIN ["COM"]
properties('MP2/aug-cc-pvtz', properties = ['dipole'])
--------------------------------------------------------------------------

    Molecular point group: c1
  Charge       = 0
  Multiplicity = 1
  Basis Set: AUG-CC-PVTZ
    Blend: AUG-CC-PVTZ
  Basis Set: (AUG-CC-PVTZ AUX)
    Blend: AUG-CC-PVTZ-JKFIT

    Orbital Energies [Eh]
    ---------------------

    Doubly Occupied:

       1A    -20.622810     2A    -20.612879     3A    -20.551922
       4A    -11.440917     5A    -11.304456     6A    -11.226794
       7A    -11.221760     8A     -1.504876     9A     -1.399897
      10A     -1.363901    11A     -1.065122    12A     -0.952138
      13A     -0.886204    14A     -0.787476    15A     -0.745453
      16A     -0.715196    17A     -0.684696    18A     -0.636418
      19A     -0.621653    20A     -0.602046    21A     -0.574808
      22A     -0.560233    23A     -0.547440    24A     -0.534184
      25A     -0.504515    26A     -0.488193    27A     -0.477272
      28A     -0.447997

  @DF-RHF Final Energy:  -380.89313611616802

   => Energetics <=

    Nuclear Repulsion Energy =            322.7740387125390953
    One-Electron Energy =               -1161.1718307920007192
    Two-Electron Energy =                 457.5046559632936010
    Total Energy =                       -380.8931361161680229
  Basis Set: (AUG-CC-PVTZ AUX)
    Blend: AUG-CC-PVTZ-RI
    Molecular point group: c1

    Geometry (in Angstrom), charge = 0, multiplicity = 1:

       Center              X                  Y                   Z               Mass
    ------------   -----------------  -----------------  -----------------  -----------------
         O            0.012802643806    -0.593863348030     0.241782209273    15.994914619570
         O            2.169106643806    -0.726851348030     0.477061209273    15.994914619570
         O            1.329809643806     0.986828651970    -0.770275790727    15.994914619570
         C           -1.183760356194     0.067083651970    -0.273870790727    12.000000000000
         C           -2.247558356194    -1.010160348030    -0.296224790727    12.000000000000
         C           -1.549607956194     1.320389551970     0.679193109273    12.000000000000
         C            1.170501643806    -0.009254348030    -0.086263790727    12.000000000000
         H           -0.957272356194     0.415010651970    -1.285554790727     1.007825032230
         H           -3.181742356194    -0.602149348030    -0.692206790727     1.007825032230
         H           -1.935163356194    -1.846480348030    -0.925466790727     1.007825032230
         H           -2.428941356194    -1.382137348030     0.715468209273     1.007825032230
         H           -2.444958356194     1.724538651970     0.270429209273     1.007825032230
         H           -0.723121356194     1.981186651970     0.605461209273     1.007825032230
         H           -1.682351356194     0.897011651970     1.645860209273     1.007825032230
         H            2.990100643806    -0.270376348030     0.210401209273     1.007825032230

  Basis Set: AUG-CC-PVTZ
    Blend: AUG-CC-PVTZ
  Basis Set: (AUG-CC-PVTZ AUX)
    Blend: AUG-CC-PVTZ-JKFIT
	 Reference Energy          =    -380.8931361161680229 [Eh]
	 Singles Energy            =      -0.0000000000000000 [Eh]
	 Same-Spin Energy          =      -0.3677542096007496 [Eh]
	 Opposite-Spin Energy      =      -1.1628514198587538 [Eh]
	 Correlation Energy        =      -1.5306056294595034 [Eh]
	 Total Energy              =    -382.4237417456275239 [Eh]

	 ================> DF-SCS-MP2 Energies <==================
	-----------------------------------------------------------
	 SCS Same-Spin Scale       =       0.3333333333333333 [-]
	 SCS Opposite-Spin Scale   =       1.2000000000000000 [-]
	 SCS Same-Spin Energy      =      -0.1225847365335832 [Eh]
	 SCS Opposite-Spin Energy  =      -1.3954217038305046 [Eh]
	 SCS Correlation Energy    =      -1.5180064403640878 [Eh]
	 SCS Total Energy          =    -382.4111425565321269 [Eh]
	-----------------------------------------------------------

  Dipole Moment: [D]
     X:    -0.9689      Y:    -0.1403      Z:     0.0637     Total:     0.9811

*** Psi4 exiting successfully. Buy a developer a beer!
