                               Psi4 1.4a3.dev225

  ==> Input File <==

--------------------------------------------------------------------------
#psi4
#
memory 32 gb

molecule  {
0 1
  O        0.1020250    -0.5936610     0.2432790
  O        2.2583290    -0.7266490     0.4785580
  O        1.4190320     0.9870310    -0.7687790
  C       -1.0945380     0.0672860    -0.2723740
  C       -2.1583360    -1.0099580    -0.2947280
  C       -1.4377530     1.2430580     0.6217300
  C        1.2597240    -0.0090520    -0.0847670
  H       -0.8680500     0.4152130    -1.2840580
  H       -3.0925200    -0.6019470    -0.6907100
  H       -1.9031441    -1.6931382    -0.8087485
  H       -2.3397190    -1.3819350     0.7169650
  H       -2.3557360     1.7247410     0.2719260
  H       -0.6338990     1.9813890     0.6069580
  H       -1.5931290     0.8972140     1.6473570
  H        3.0793230    -0.2701740     0.2118980
units angstrom
no_reorient  #important for SAPT in psi4, default
symmetry c1  #important for SAPT in psi4, default
}

set PROPERTIES_ORIGIN ["COM"]
properties('MP2/aug-cc-pvtz', properties = ['dipole'])
--------------------------------------------------------------------------

    Molecular point group: c1
  Charge       = 0
  Multiplicity = 1
  Basis Set: AUG-CC-PVTZ
    Blend: AUG-CC-PVTZ
  Basis Set: (AUG-CC-PVTZ AUX)
    Blend: AUG-CC-PVTZ-JKFIT

    Orbital Energies [Eh]
    ---------------------

    Doubly Occupied:

       1A    -20.622695     2A    -20.612437     3A    -20.551671
       4A    -11.440870     5A    -11.299728     6A    -11.222205
       7A    -11.202285     8A     -1.505044     9A     -1.400540
      10A     -1.363812    11A     -1.081698    12A     -0.967807
      13A     -0.889510    14A     -0.791180    15A     -0.747171
      16A     -0.715502    17A     -0.686645    18A     -0.648598
      19A     -0.636399    20A     -0.602611    21A     -0.570191
      22A     -0.558393    23A     -0.548747    24A     -0.532566
      25A     -0.505010    26A     -0.487655    27A     -0.477637
      28A     -0.464285

  @DF-RHF Final Energy:  -380.86611709648275

   => Energetics <=

    Nuclear Repulsion Energy =            325.3517622241406002
    One-Electron Energy =               -1166.1699733939242378
    Two-Electron Energy =                 459.9520940733008274
    Total Energy =                       -380.8661170964827534
  Basis Set: (AUG-CC-PVTZ AUX)
    Blend: AUG-CC-PVTZ-RI
    Molecular point group: c1

    Geometry (in Angstrom), charge = 0, multiplicity = 1:

       Center              X                  Y                   Z               Mass
    ------------   -----------------  -----------------  -----------------  -----------------
         O            0.010746459809    -0.586404544706     0.247466118777    15.994914619570
         O            2.167050459809    -0.719392544706     0.482745118777    15.994914619570
         O            1.327753459809     0.994287455294    -0.764591881223    15.994914619570
         C           -1.185816540191     0.074542455294    -0.268186881223    12.000000000000
         C           -2.249614540191    -1.002701544706    -0.290540881223    12.000000000000
         C           -1.529031540191     1.250314455294     0.625917118777    12.000000000000
         C            1.168445459809    -0.001795544706    -0.080579881223    12.000000000000
         H           -0.959328540191     0.422469455294    -1.279870881223     1.007825032230
         H           -3.183798540191    -0.594690544706    -0.686522881223     1.007825032230
         H           -1.994422640191    -1.685881744706    -0.804561381223     1.007825032230
         H           -2.430997540191    -1.374678544706     0.721152118777     1.007825032230
         H           -2.447014540191     1.731997455294     0.276113118777     1.007825032230
         H           -0.725177540191     1.988645455294     0.611145118777     1.007825032230
         H           -1.684407540191     0.904470455294     1.651544118777     1.007825032230
         H            2.988044459809    -0.262917544706     0.216085118777     1.007825032230

  Basis Set: AUG-CC-PVTZ
    Blend: AUG-CC-PVTZ
  Basis Set: (AUG-CC-PVTZ AUX)
    Blend: AUG-CC-PVTZ-JKFIT
	 Reference Energy          =    -380.8661170964827534 [Eh]
	 Singles Energy            =      -0.0000000000000000 [Eh]
	 Same-Spin Energy          =      -0.3682435745558245 [Eh]
	 Opposite-Spin Energy      =      -1.1621878988722707 [Eh]
	 Correlation Energy        =      -1.5304314734280950 [Eh]
	 Total Energy              =    -382.3965485699108626 [Eh]

	 ================> DF-SCS-MP2 Energies <==================
	-----------------------------------------------------------
	 SCS Same-Spin Scale       =       0.3333333333333333 [-]
	 SCS Opposite-Spin Scale   =       1.2000000000000000 [-]
	 SCS Same-Spin Energy      =      -0.1227478581852748 [Eh]
	 SCS Opposite-Spin Energy  =      -1.3946254786467247 [Eh]
	 SCS Correlation Energy    =      -1.5173733368319995 [Eh]
	 SCS Total Energy          =    -382.3834904333147620 [Eh]
	-----------------------------------------------------------

  Dipole Moment: [D]
     X:    -0.9973      Y:    -0.1425      Z:     0.0477     Total:     1.0086

*** Psi4 exiting successfully. Buy a developer a beer!
