                               Psi4 1.4a3.dev225

  ==> Input File <==

--------------------------------------------------------------------------
#psi4
#
memory 32 gb

molecule  {
0 1
  O        0.1020250    -0.5936610     0.2432790
  O        2.2583290    -0.7266490     0.4785580
  O        1.4190320     0.9870310    -0.7687790
  C       -1.0945380     0.0672860    -0.2723740
  C       -2.1507038    -1.0144961    -0.1894162
  C       -1.4377530     1.2430580     0.6217300
  C        1.2597240    -0.0090520    -0.0847670
  H       -0.8680500     0.4152130    -1.2840580
  H       -3.0925200    -0.6019470    -0.6907100
  H       -1.8459410    -1.8462780    -0.9239700
  H       -2.3397190    -1.3819350     0.7169650
  H       -2.3557360     1.7247410     0.2719260
  H       -0.6338990     1.9813890     0.6069580
  H       -1.5931290     0.8972140     1.6473570
  H        3.0793230    -0.2701740     0.2118980
units angstrom
no_reorient  #important for SAPT in psi4, default
symmetry c1  #important for SAPT in psi4, default
}

set PROPERTIES_ORIGIN ["COM"]
properties('MP2/aug-cc-pvtz', properties = ['dipole'])
--------------------------------------------------------------------------

    Molecular point group: c1
  Charge       = 0
  Multiplicity = 1
  Basis Set: AUG-CC-PVTZ
    Blend: AUG-CC-PVTZ
  Basis Set: (AUG-CC-PVTZ AUX)
    Blend: AUG-CC-PVTZ-JKFIT

    Orbital Energies [Eh]
    ---------------------

    Doubly Occupied:

       1A    -20.622612     2A    -20.611747     3A    -20.552066
       4A    -11.440674     5A    -11.302392     6A    -11.228254
       7A    -11.222835     8A     -1.505106     9A     -1.400656
      10A     -1.364131    11A     -1.077647    12A     -0.951221
      13A     -0.885902    14A     -0.792141    15A     -0.745760
      16A     -0.716062    17A     -0.686445    18A     -0.639654
      19A     -0.620806    20A     -0.610121    21A     -0.571608
      22A     -0.566772    23A     -0.533765    24A     -0.516594
      25A     -0.501988    26A     -0.492222    27A     -0.477687
      28A     -0.460330

  @DF-RHF Final Energy:  -380.88693387513649

   => Energetics <=

    Nuclear Repulsion Energy =            324.6649046556139524
    One-Electron Energy =               -1164.9092809548135392
    Two-Electron Energy =                 459.3574424240630378
    Total Energy =                       -380.8869338751364921
  Basis Set: (AUG-CC-PVTZ AUX)
    Blend: AUG-CC-PVTZ-RI
    Molecular point group: c1

    Geometry (in Angstrom), charge = 0, multiplicity = 1:

       Center              X                  Y                   Z               Mass
    ------------   -----------------  -----------------  -----------------  -----------------
         O            0.009312140487    -0.584397810890     0.236436346727    15.994914619570
         O            2.165616140487    -0.717385810890     0.471715346727    15.994914619570
         O            1.326319140487     0.996294189110    -0.775621653273    15.994914619570
         C           -1.187250859513     0.076549189110    -0.279216653273    12.000000000000
         C           -2.243416659513    -1.005232910890    -0.196258853273    12.000000000000
         C           -1.530465859513     1.252321189110     0.614887346727    12.000000000000
         C            1.167011140487     0.000211189110    -0.091609653273    12.000000000000
         H           -0.960762859513     0.424476189110    -1.290900653273     1.007825032230
         H           -3.185232859513    -0.592683810890    -0.697552653273     1.007825032230
         H           -1.938653859513    -1.837014810890    -0.930812653273     1.007825032230
         H           -2.432431859513    -1.372671810890     0.710122346727     1.007825032230
         H           -2.448448859513     1.734004189110     0.265083346727     1.007825032230
         H           -0.726611859513     1.990652189110     0.600115346727     1.007825032230
         H           -1.685841859513     0.906477189110     1.640514346727     1.007825032230
         H            2.986610140487    -0.260910810890     0.205055346727     1.007825032230

  Basis Set: AUG-CC-PVTZ
    Blend: AUG-CC-PVTZ
  Basis Set: (AUG-CC-PVTZ AUX)
    Blend: AUG-CC-PVTZ-JKFIT
	 Reference Energy          =    -380.8869338751364921 [Eh]
	 Singles Energy            =      -0.0000000000000000 [Eh]
	 Same-Spin Energy          =      -0.3683509084961405 [Eh]
	 Opposite-Spin Energy      =      -1.1634510475606992 [Eh]
	 Correlation Energy        =      -1.5318019560568397 [Eh]
	 Total Energy              =    -382.4187358311933167 [Eh]

	 ================> DF-SCS-MP2 Energies <==================
	-----------------------------------------------------------
	 SCS Same-Spin Scale       =       0.3333333333333333 [-]
	 SCS Opposite-Spin Scale   =       1.2000000000000000 [-]
	 SCS Same-Spin Energy      =      -0.1227836361653802 [Eh]
	 SCS Opposite-Spin Energy  =      -1.3961412570728389 [Eh]
	 SCS Correlation Energy    =      -1.5189248932382191 [Eh]
	 SCS Total Energy          =    -382.4058587683746850 [Eh]
	-----------------------------------------------------------

  Dipole Moment: [D]
     X:    -0.9835      Y:    -0.0763      Z:     0.1225     Total:     0.9940

*** Psi4 exiting successfully. Buy a developer a beer!
