                               Psi4 1.4a3.dev225

  ==> Input File <==

--------------------------------------------------------------------------
#psi4
#
memory 32 gb

molecule  {
0 1
  O        0.1020250    -0.5936610     0.2432790
  O        2.2583290    -0.7266490     0.4785580
  O        1.4190320     0.9870310    -0.7687790
  C       -1.0945380     0.0672860    -0.2723740
  C       -2.1583360    -1.0099580    -0.2947280
  C       -1.4377530     1.2430580     0.6217300
  C        1.4328020     0.0783480    -0.1338104
  H       -0.8680500     0.4152130    -1.2840580
  H       -3.0925200    -0.6019470    -0.6907100
  H       -1.8459410    -1.8462780    -0.9239700
  H       -2.3397190    -1.3819350     0.7169650
  H       -2.3557360     1.7247410     0.2719260
  H       -0.6338990     1.9813890     0.6069580
  H       -1.5931290     0.8972140     1.6473570
  H        3.0793230    -0.2701740     0.2118980
units angstrom
no_reorient  #important for SAPT in psi4, default
symmetry c1  #important for SAPT in psi4, default
}

set PROPERTIES_ORIGIN ["COM"]
properties('MP2/aug-cc-pvtz', properties = ['dipole'])
--------------------------------------------------------------------------

    Molecular point group: c1
  Charge       = 0
  Multiplicity = 1
  Basis Set: AUG-CC-PVTZ
    Blend: AUG-CC-PVTZ
  Basis Set: (AUG-CC-PVTZ AUX)
    Blend: AUG-CC-PVTZ-JKFIT

    Orbital Energies [Eh]
    ---------------------

    Doubly Occupied:

       1A    -20.654166     2A    -20.591194     3A    -20.557857
       4A    -11.443380     5A    -11.274948     6A    -11.209691
       7A    -11.209294     8A     -1.546168     9A     -1.459710
      10A     -1.326358    11A     -1.042595    12A     -0.934784
      13A     -0.868009    14A     -0.777517    15A     -0.759040
      16A     -0.739331    17A     -0.702693    18A     -0.655348
      19A     -0.609805    20A     -0.600830    21A     -0.567205
      22A     -0.547618    23A     -0.537204    24A     -0.511886
      25A     -0.503213    26A     -0.496632    27A     -0.451881
      28A     -0.435580

  @DF-RHF Final Energy:  -380.85212801444504

   => Energetics <=

    Nuclear Repulsion Energy =            323.4870057517715054
    One-Electron Energy =               -1162.6503923254570054
    Two-Electron Energy =                 458.3112585592405139
    Total Energy =                       -380.8521280144450429
  Basis Set: (AUG-CC-PVTZ AUX)
    Blend: AUG-CC-PVTZ-RI
    Molecular point group: c1

    Geometry (in Angstrom), charge = 0, multiplicity = 1:

       Center              X                  Y                   Z               Mass
    ------------   -----------------  -----------------  -----------------  -----------------
         O           -0.009769073136    -0.595001226185     0.254238458022    15.994914619570
         O            2.146534926864    -0.727989226185     0.489517458022    15.994914619570
         O            1.307237926864     0.985690773815    -0.757819541978    15.994914619570
         C           -1.206332073136     0.065945773815    -0.261414541978    12.000000000000
         C           -2.270130073136    -1.011298226185    -0.283768541978    12.000000000000
         C           -1.549547073136     1.241717773815     0.632689458022    12.000000000000
         C            1.321007926864     0.077007773815    -0.122850941978    12.000000000000
         H           -0.979844073136     0.413872773815    -1.273098541978     1.007825032230
         H           -3.204314073136    -0.603287226185    -0.679750541978     1.007825032230
         H           -1.957735073136    -1.847618226185    -0.913010541978     1.007825032230
         H           -2.451513073136    -1.383275226185     0.727924458022     1.007825032230
         H           -2.467530073136     1.723400773815     0.282885458022     1.007825032230
         H           -0.745693073136     1.980048773815     0.617917458022     1.007825032230
         H           -1.704923073136     0.895873773815     1.658316458022     1.007825032230
         H            2.967528926864    -0.271514226185     0.222857458022     1.007825032230

  Basis Set: AUG-CC-PVTZ
    Blend: AUG-CC-PVTZ
  Basis Set: (AUG-CC-PVTZ AUX)
    Blend: AUG-CC-PVTZ-JKFIT
	 Reference Energy          =    -380.8521280144450429 [Eh]
	 Singles Energy            =      -0.0000000000000000 [Eh]
	 Same-Spin Energy          =      -0.3690478777743175 [Eh]
	 Opposite-Spin Energy      =      -1.1654704663143225 [Eh]
	 Correlation Energy        =      -1.5345183440886401 [Eh]
	 Total Energy              =    -382.3866463585337101 [Eh]

	 ================> DF-SCS-MP2 Energies <==================
	-----------------------------------------------------------
	 SCS Same-Spin Scale       =       0.3333333333333333 [-]
	 SCS Opposite-Spin Scale   =       1.2000000000000000 [-]
	 SCS Same-Spin Energy      =      -0.1230159592581058 [Eh]
	 SCS Opposite-Spin Energy  =      -1.3985645595771869 [Eh]
	 SCS Correlation Energy    =      -1.5215805188352929 [Eh]
	 SCS Total Energy          =    -382.3737085332803076 [Eh]
	-----------------------------------------------------------

  Dipole Moment: [D]
     X:     1.1021      Y:     0.5645      Z:    -0.3223     Total:     1.2795

*** Psi4 exiting successfully. Buy a developer a beer!
