                               Psi4 1.4a3.dev225

  ==> Input File <==

--------------------------------------------------------------------------
#psi4
#
memory 32 gb

molecule  {
0 1
  O        0.1020250    -0.5936610     0.2432790
  O        2.2583290    -0.7266490     0.4785580
  O        1.4190320     0.9870310    -0.7687790
  C       -1.0910805     0.1006343    -0.3133339
  C       -2.1583360    -1.0099580    -0.2947280
  C       -1.4377530     1.2430580     0.6217300
  C        1.2597240    -0.0090520    -0.0847670
  H       -0.8680500     0.4152130    -1.2840580
  H       -3.0925200    -0.6019470    -0.6907100
  H       -1.8459410    -1.8462780    -0.9239700
  H       -2.3397190    -1.3819350     0.7169650
  H       -2.3557360     1.7247410     0.2719260
  H       -0.6338990     1.9813890     0.6069580
  H       -1.5931290     0.8972140     1.6473570
  H        3.0793230    -0.2701740     0.2118980
units angstrom
no_reorient  #important for SAPT in psi4, default
symmetry c1  #important for SAPT in psi4, default
}

set PROPERTIES_ORIGIN ["COM"]
properties('MP2/aug-cc-pvtz', properties = ['dipole'])
--------------------------------------------------------------------------

    Molecular point group: c1
  Charge       = 0
  Multiplicity = 1
  Basis Set: AUG-CC-PVTZ
    Blend: AUG-CC-PVTZ
  Basis Set: (AUG-CC-PVTZ AUX)
    Blend: AUG-CC-PVTZ-JKFIT

    Orbital Energies [Eh]
    ---------------------

    Doubly Occupied:

       1A    -20.621144     2A    -20.610118     3A    -20.550420
       4A    -11.438558     5A    -11.301058     6A    -11.227995
       7A    -11.224731     8A     -1.502052     9A     -1.395358
      10A     -1.362030    11A     -1.074024    12A     -0.949793
      13A     -0.880030    14A     -0.798667    15A     -0.742081
      16A     -0.714960    17A     -0.683358    18A     -0.636525
      19A     -0.622685    20A     -0.601060    21A     -0.570143
      22A     -0.553387    23A     -0.539028    24A     -0.527080
      25A     -0.502813    26A     -0.497577    27A     -0.476451
      28A     -0.462889

  @DF-RHF Final Energy:  -380.89716897386865

   => Energetics <=

    Nuclear Repulsion Energy =            323.9768397912019964
    One-Electron Energy =               -1163.6159895153809885
    Two-Electron Energy =                 458.7419807503103470
    Total Energy =                       -380.8971689738686450
  Basis Set: (AUG-CC-PVTZ AUX)
    Blend: AUG-CC-PVTZ-RI
    Molecular point group: c1

    Geometry (in Angstrom), charge = 0, multiplicity = 1:

       Center              X                  Y                   Z               Mass
    ------------   -----------------  -----------------  -----------------  -----------------
         O            0.009793617457    -0.588767329438     0.253306170891    15.994914619570
         O            2.166097617457    -0.721755329438     0.488585170891    15.994914619570
         O            1.326800617457     0.991924670562    -0.758751829109    15.994914619570
         C           -1.183311882543     0.105527970562    -0.303306729109    12.000000000000
         C           -2.250567382543    -1.005064329438    -0.284700829109    12.000000000000
         C           -1.529984382543     1.247951670562     0.631757170891    12.000000000000
         C            1.167492617457    -0.004158329438    -0.074739829109    12.000000000000
         H           -0.960281382543     0.420106670562    -1.274030829109     1.007825032230
         H           -3.184751382543    -0.597053329438    -0.680682829109     1.007825032230
         H           -1.938172382543    -1.841384329438    -0.913942829109     1.007825032230
         H           -2.431950382543    -1.377041329438     0.726992170891     1.007825032230
         H           -2.447967382543     1.729634670562     0.281953170891     1.007825032230
         H           -0.726130382543     1.986282670562     0.616985170891     1.007825032230
         H           -1.685360382543     0.902107670562     1.657384170891     1.007825032230
         H            2.987091617457    -0.265280329438     0.221925170891     1.007825032230

  Basis Set: AUG-CC-PVTZ
    Blend: AUG-CC-PVTZ
  Basis Set: (AUG-CC-PVTZ AUX)
    Blend: AUG-CC-PVTZ-JKFIT
	 Reference Energy          =    -380.8971689738686450 [Eh]
	 Singles Energy            =      -0.0000000000000000 [Eh]
	 Same-Spin Energy          =      -0.3680097041493736 [Eh]
	 Opposite-Spin Energy      =      -1.1631061433306602 [Eh]
	 Correlation Energy        =      -1.5311158474800339 [Eh]
	 Total Energy              =    -382.4282848213486545 [Eh]

	 ================> DF-SCS-MP2 Energies <==================
	-----------------------------------------------------------
	 SCS Same-Spin Scale       =       0.3333333333333333 [-]
	 SCS Opposite-Spin Scale   =       1.2000000000000000 [-]
	 SCS Same-Spin Energy      =      -0.1226699013831245 [Eh]
	 SCS Opposite-Spin Energy  =      -1.3957273719967922 [Eh]
	 SCS Correlation Energy    =      -1.5183972733799167 [Eh]
	 SCS Total Energy          =    -382.4155662472485346 [Eh]
	-----------------------------------------------------------

  Dipole Moment: [D]
     X:    -1.0513      Y:    -0.0328      Z:     0.0580     Total:     1.0534

*** Psi4 exiting successfully. Buy a developer a beer!
