                               Psi4 1.4a3.dev225

  ==> Input File <==

--------------------------------------------------------------------------
#psi4
#
memory 32 gb

molecule  {
0 1
  O        0.1020250    -0.5936610     0.2432790
  O        2.2583290    -0.7266490     0.4785580
  O        1.4190320     0.9870310    -0.7687790
  C       -1.0945380     0.0672860    -0.2723740
  C       -2.1583360    -1.0099580    -0.2947280
  C       -1.4377530     1.2430580     0.6217300
  C        1.2597240    -0.0090520    -0.0847670
  H       -0.8680500     0.4152130    -1.2840580
  H       -3.0925200    -0.6019470    -0.6907100
  H       -1.8459410    -1.8462780    -0.9239700
  H       -2.3397190    -1.3819350     0.7169650
  H       -2.3389555     1.7159360     0.2783203
  H       -0.6338990     1.9813890     0.6069580
  H       -1.5931290     0.8972140     1.6473570
  H        3.0793230    -0.2701740     0.2118980
units angstrom
no_reorient  #important for SAPT in psi4, default
symmetry c1  #important for SAPT in psi4, default
}

set PROPERTIES_ORIGIN ["COM"]
properties('MP2/aug-cc-pvtz', properties = ['dipole'])
--------------------------------------------------------------------------

    Molecular point group: c1
  Charge       = 0
  Multiplicity = 1
  Basis Set: AUG-CC-PVTZ
    Blend: AUG-CC-PVTZ
  Basis Set: (AUG-CC-PVTZ AUX)
    Blend: AUG-CC-PVTZ-JKFIT

    Orbital Energies [Eh]
    ---------------------

    Doubly Occupied:

       1A    -20.622604     2A    -20.612237     3A    -20.551609
       4A    -11.440783     5A    -11.300979     6A    -11.226722
       7A    -11.221159     8A     -1.504929     9A     -1.400391
      10A     -1.363744    11A     -1.076561    12A     -0.953012
      13A     -0.885699    14A     -0.788717    15A     -0.746060
      16A     -0.715337    17A     -0.686640    18A     -0.637080
      19A     -0.625804    20A     -0.604026    21A     -0.570593
      22A     -0.553599    23A     -0.544649    24A     -0.528635
      25A     -0.503323    26A     -0.487950    27A     -0.477596
      28A     -0.463607

  @DF-RHF Final Energy:  -380.90063302660997

   => Energetics <=

    Nuclear Repulsion Energy =            324.4723489365596265
    One-Electron Energy =               -1164.5578707063966704
    Two-Electron Energy =                 459.1848887432270203
    Total Energy =                       -380.9006330266099667
  Basis Set: (AUG-CC-PVTZ AUX)
    Blend: AUG-CC-PVTZ-RI
    Molecular point group: c1

    Geometry (in Angstrom), charge = 0, multiplicity = 1:

       Center              X                  Y                   Z               Mass
    ------------   -----------------  -----------------  -----------------  -----------------
         O            0.010029838691    -0.584835912420     0.248520242525    15.994914619570
         O            2.166333838691    -0.717823912420     0.483799242525    15.994914619570
         O            1.327036838691     0.995856087580    -0.763537757475    15.994914619570
         C           -1.186533161309     0.076111087580    -0.267132757475    12.000000000000
         C           -2.250331161309    -1.001132912420    -0.289486757475    12.000000000000
         C           -1.529748161309     1.251883087580     0.626971242525    12.000000000000
         C            1.167728838691    -0.000226912420    -0.079525757475    12.000000000000
         H           -0.960045161309     0.424038087580    -1.278816757475     1.007825032230
         H           -3.184515161309    -0.593121912420    -0.685468757475     1.007825032230
         H           -1.937936161309    -1.837452912420    -0.918728757475     1.007825032230
         H           -2.431714161309    -1.373109912420     0.722206242525     1.007825032230
         H           -2.430950661309     1.724761087580     0.283561542525     1.007825032230
         H           -0.725894161309     1.990214087580     0.612199242525     1.007825032230
         H           -1.685124161309     0.906039087580     1.652598242525     1.007825032230
         H            2.987327838691    -0.261348912420     0.217139242525     1.007825032230

  Basis Set: AUG-CC-PVTZ
    Blend: AUG-CC-PVTZ
  Basis Set: (AUG-CC-PVTZ AUX)
    Blend: AUG-CC-PVTZ-JKFIT
	 Reference Energy          =    -380.9006330266099667 [Eh]
	 Singles Energy            =      -0.0000000000000000 [Eh]
	 Same-Spin Energy          =      -0.3681058432738916 [Eh]
	 Opposite-Spin Energy      =      -1.1626492076413852 [Eh]
	 Correlation Energy        =      -1.5307550509152770 [Eh]
	 Total Energy              =    -382.4313880775252414 [Eh]

	 ================> DF-SCS-MP2 Energies <==================
	-----------------------------------------------------------
	 SCS Same-Spin Scale       =       0.3333333333333333 [-]
	 SCS Opposite-Spin Scale   =       1.2000000000000000 [-]
	 SCS Same-Spin Energy      =      -0.1227019477579639 [Eh]
	 SCS Opposite-Spin Energy  =      -1.3951790491696623 [Eh]
	 SCS Correlation Energy    =      -1.5178809969276261 [Eh]
	 SCS Total Energy          =    -382.4185140235375684 [Eh]
	-----------------------------------------------------------

  Dipole Moment: [D]
     X:    -1.0022      Y:    -0.0731      Z:     0.0875     Total:     1.0086

*** Psi4 exiting successfully. Buy a developer a beer!
