                               Psi4 1.4a3.dev225

  ==> Input File <==

--------------------------------------------------------------------------
#psi4
#
memory 32 gb

molecule  {
0 1
  O        0.1020250    -0.5936610     0.2432790
  O        2.2583290    -0.7266490     0.4785580
  O        1.4190320     0.9870310    -0.7687790
  C       -1.1109181     0.0763339    -0.2794329
  C       -2.1583360    -1.0099580    -0.2947280
  C       -1.4377530     1.2430580     0.6217300
  C        1.2597240    -0.0090520    -0.0847670
  H       -0.8680500     0.4152130    -1.2840580
  H       -3.0925200    -0.6019470    -0.6907100
  H       -1.8459410    -1.8462780    -0.9239700
  H       -2.3397190    -1.3819350     0.7169650
  H       -2.3557360     1.7247410     0.2719260
  H       -0.6338990     1.9813890     0.6069580
  H       -1.5931290     0.8972140     1.6473570
  H        3.0793230    -0.2701740     0.2118980
units angstrom
no_reorient  #important for SAPT in psi4, default
symmetry c1  #important for SAPT in psi4, default
}

set PROPERTIES_ORIGIN ["COM"]
properties('MP2/aug-cc-pvtz', properties = ['dipole'])
--------------------------------------------------------------------------

    Molecular point group: c1
  Charge       = 0
  Multiplicity = 1
  Basis Set: AUG-CC-PVTZ
    Blend: AUG-CC-PVTZ
  Basis Set: (AUG-CC-PVTZ AUX)
    Blend: AUG-CC-PVTZ-JKFIT

    Orbital Energies [Eh]
    ---------------------

    Doubly Occupied:

       1A    -20.621372     2A    -20.609426     3A    -20.550227
       4A    -11.439075     5A    -11.302111     6A    -11.227454
       7A    -11.224393     8A     -1.502047     9A     -1.395993
      10A     -1.361968    11A     -1.078417    12A     -0.953570
      13A     -0.881753    14A     -0.789536    15A     -0.743116
      16A     -0.714109    17A     -0.683731    18A     -0.635778
      19A     -0.627483    20A     -0.601918    21A     -0.570753
      22A     -0.554107    23A     -0.540619    24A     -0.526483
      25A     -0.505174    26A     -0.490364    27A     -0.476216
      28A     -0.464730

  @DF-RHF Final Energy:  -380.90002747396596

   => Energetics <=

    Nuclear Repulsion Energy =            324.1399425722780165
    One-Electron Energy =               -1163.9360958385418598
    Two-Electron Energy =                 458.8961257922979371
    Total Energy =                       -380.9000274739659631
  Basis Set: (AUG-CC-PVTZ AUX)
    Blend: AUG-CC-PVTZ-RI
    Molecular point group: c1

    Geometry (in Angstrom), charge = 0, multiplicity = 1:

       Center              X                  Y                   Z               Mass
    ------------   -----------------  -----------------  -----------------  -----------------
         O            0.012081529772    -0.585964712971     0.249396296944    15.994914619570
         O            2.168385529772    -0.718952712971     0.484675296944    15.994914619570
         O            1.329088529772     0.994727287029    -0.762661703056    15.994914619570
         C           -1.200861570228     0.084030187029    -0.273315603056    12.000000000000
         C           -2.248279470228    -1.002261712971    -0.288610703056    12.000000000000
         C           -1.527696470228     1.250754287029     0.627847296944    12.000000000000
         C            1.169780529772    -0.001355712971    -0.078649703056    12.000000000000
         H           -0.957993470228     0.422909287029    -1.277940703056     1.007825032230
         H           -3.182463470228    -0.594250712971    -0.684592703056     1.007825032230
         H           -1.935884470228    -1.838581712971    -0.917852703056     1.007825032230
         H           -2.429662470228    -1.374238712971     0.723082296944     1.007825032230
         H           -2.445679470228     1.732437287029     0.278043296944     1.007825032230
         H           -0.723842470228     1.989085287029     0.613075296944     1.007825032230
         H           -1.683072470228     0.904910287029     1.653474296944     1.007825032230
         H            2.989379529772    -0.262477712971     0.218015296944     1.007825032230

  Basis Set: AUG-CC-PVTZ
    Blend: AUG-CC-PVTZ
  Basis Set: (AUG-CC-PVTZ AUX)
    Blend: AUG-CC-PVTZ-JKFIT
	 Reference Energy          =    -380.9000274739659631 [Eh]
	 Singles Energy            =      -0.0000000000000000 [Eh]
	 Same-Spin Energy          =      -0.3681640170914659 [Eh]
	 Opposite-Spin Energy      =      -1.1629618796784158 [Eh]
	 Correlation Energy        =      -1.5311258967698818 [Eh]
	 Total Energy              =    -382.4311533707358421 [Eh]

	 ================> DF-SCS-MP2 Energies <==================
	-----------------------------------------------------------
	 SCS Same-Spin Scale       =       0.3333333333333333 [-]
	 SCS Opposite-Spin Scale   =       1.2000000000000000 [-]
	 SCS Same-Spin Energy      =      -0.1227213390304886 [Eh]
	 SCS Opposite-Spin Energy  =      -1.3955542556140990 [Eh]
	 SCS Correlation Energy    =      -1.5182755946445876 [Eh]
	 SCS Total Energy          =    -382.4183030686105553 [Eh]
	-----------------------------------------------------------

  Dipole Moment: [D]
     X:    -1.0853      Y:    -0.0602      Z:     0.0825     Total:     1.0901

*** Psi4 exiting successfully. Buy a developer a beer!
