                               Psi4 1.4a3.dev225

  ==> Input File <==

--------------------------------------------------------------------------
#psi4
#
memory 32 gb

molecule  {
0 1
  O        0.1020250    -0.5936610     0.2432790
  O        2.2583290    -0.7266490     0.4785580
  O        1.4190320     0.9870310    -0.7687790
  C       -1.0945380     0.0672860    -0.2723740
  C       -2.1442845    -0.9957289    -0.2944327
  C       -1.4377530     1.2430580     0.6217300
  C        1.2597240    -0.0090520    -0.0847670
  H       -0.8680500     0.4152130    -1.2840580
  H       -3.0925200    -0.6019470    -0.6907100
  H       -1.8459410    -1.8462780    -0.9239700
  H       -2.3397190    -1.3819350     0.7169650
  H       -2.3557360     1.7247410     0.2719260
  H       -0.6338990     1.9813890     0.6069580
  H       -1.5931290     0.8972140     1.6473570
  H        3.0793230    -0.2701740     0.2118980
units angstrom
no_reorient  #important for SAPT in psi4, default
symmetry c1  #important for SAPT in psi4, default
}

set PROPERTIES_ORIGIN ["COM"]
properties('MP2/aug-cc-pvtz', properties = ['dipole'])
--------------------------------------------------------------------------

    Molecular point group: c1
  Charge       = 0
  Multiplicity = 1
  Basis Set: AUG-CC-PVTZ
    Blend: AUG-CC-PVTZ
  Basis Set: (AUG-CC-PVTZ AUX)
    Blend: AUG-CC-PVTZ-JKFIT

    Orbital Energies [Eh]
    ---------------------

    Doubly Occupied:

       1A    -20.622739     2A    -20.612456     3A    -20.551777
       4A    -11.440956     5A    -11.300352     6A    -11.227427
       7A    -11.223655     8A     -1.505171     9A     -1.400763
      10A     -1.363945    11A     -1.079153    12A     -0.951902
      13A     -0.885025    14A     -0.788814    15A     -0.746487
      16A     -0.715551    17A     -0.686436    18A     -0.637182
      19A     -0.627035    20A     -0.603780    21A     -0.571237
      22A     -0.550698    23A     -0.542653    24A     -0.525813
      25A     -0.505541    26A     -0.488173    27A     -0.477720
      28A     -0.463886

  @DF-RHF Final Energy:  -380.90000914946688

   => Energetics <=

    Nuclear Repulsion Energy =            324.7177059043331724
    One-Electron Energy =               -1165.0427721699634276
    Two-Electron Energy =                 459.4250571161634298
    Total Energy =                       -380.9000091494668823
  Basis Set: (AUG-CC-PVTZ AUX)
    Blend: AUG-CC-PVTZ-RI
    Molecular point group: c1

    Geometry (in Angstrom), charge = 0, multiplicity = 1:

       Center              X                  Y                   Z               Mass
    ------------   -----------------  -----------------  -----------------  -----------------
         O            0.008571789057    -0.586562271712     0.248548121522    15.994914619570
         O            2.164875789057    -0.719550271712     0.483827121522    15.994914619570
         O            1.325578789057     0.994129728288    -0.763509878478    15.994914619570
         C           -1.187991210943     0.074384728288    -0.267104878478    12.000000000000
         C           -2.237737710943    -0.988630171712    -0.289163578478    12.000000000000
         C           -1.531206210943     1.250156728288     0.626999121522    12.000000000000
         C            1.166270789057    -0.001953271712    -0.079497878478    12.000000000000
         H           -0.961503210943     0.422311728288    -1.278788878478     1.007825032230
         H           -3.185973210943    -0.594848271712    -0.685440878478     1.007825032230
         H           -1.939394210943    -1.839179271712    -0.918700878478     1.007825032230
         H           -2.433172210943    -1.374836271712     0.722234121522     1.007825032230
         H           -2.449189210943     1.731839728288     0.277195121522     1.007825032230
         H           -0.727352210943     1.988487728288     0.612227121522     1.007825032230
         H           -1.686582210943     0.904312728288     1.652626121522     1.007825032230
         H            2.985869789057    -0.263075271712     0.217167121522     1.007825032230

  Basis Set: AUG-CC-PVTZ
    Blend: AUG-CC-PVTZ
  Basis Set: (AUG-CC-PVTZ AUX)
    Blend: AUG-CC-PVTZ-JKFIT
	 Reference Energy          =    -380.9000091494668823 [Eh]
	 Singles Energy            =      -0.0000000000000000 [Eh]
	 Same-Spin Energy          =      -0.3682534041491096 [Eh]
	 Opposite-Spin Energy      =      -1.1629092635514964 [Eh]
	 Correlation Energy        =      -1.5311626677006061 [Eh]
	 Total Energy              =    -382.4311718171674670 [Eh]

	 ================> DF-SCS-MP2 Energies <==================
	-----------------------------------------------------------
	 SCS Same-Spin Scale       =       0.3333333333333333 [-]
	 SCS Opposite-Spin Scale   =       1.2000000000000000 [-]
	 SCS Same-Spin Energy      =      -0.1227511347163699 [Eh]
	 SCS Opposite-Spin Energy  =      -1.3954911162617956 [Eh]
	 SCS Correlation Energy    =      -1.5182422509781655 [Eh]
	 SCS Total Energy          =    -382.4182514004450582 [Eh]
	-----------------------------------------------------------

  Dipole Moment: [D]
     X:    -0.9991      Y:    -0.0821      Z:     0.0869     Total:     1.0062

*** Psi4 exiting successfully. Buy a developer a beer!
