                               Psi4 1.4a3.dev225

  ==> Input File <==

--------------------------------------------------------------------------
#psi4
#
memory 32 gb

molecule  {
0 1
  O        0.1020250    -0.5936610     0.2432790
  O        2.2583290    -0.7266490     0.4785580
  O        1.4190320     0.9870310    -0.7687790
  C       -1.2039215     0.1648951    -0.3325914
  C       -2.1583360    -1.0099580    -0.2947280
  C       -1.4377530     1.2430580     0.6217300
  C        1.2597240    -0.0090520    -0.0847670
  H       -0.8680500     0.4152130    -1.2840580
  H       -3.0925200    -0.6019470    -0.6907100
  H       -1.8459410    -1.8462780    -0.9239700
  H       -2.3397190    -1.3819350     0.7169650
  H       -2.3557360     1.7247410     0.2719260
  H       -0.6338990     1.9813890     0.6069580
  H       -1.5931290     0.8972140     1.6473570
  H        3.0793230    -0.2701740     0.2118980
units angstrom
no_reorient  #important for SAPT in psi4, default
symmetry c1  #important for SAPT in psi4, default
}

set PROPERTIES_ORIGIN ["COM"]
properties('MP2/aug-cc-pvtz', properties = ['dipole'])
--------------------------------------------------------------------------

    Molecular point group: c1
  Charge       = 0
  Multiplicity = 1
  Basis Set: AUG-CC-PVTZ
    Blend: AUG-CC-PVTZ
  Basis Set: (AUG-CC-PVTZ AUX)
    Blend: AUG-CC-PVTZ-JKFIT

    Orbital Energies [Eh]
    ---------------------

    Doubly Occupied:

       1A    -20.611780     2A    -20.587323     3A    -20.540207
       4A    -11.425974     5A    -11.311283     6A    -11.234251
       7A    -11.230211     8A     -1.484967     9A     -1.370648
      10A     -1.346131    11A     -1.092157    12A     -0.963770
      13A     -0.860797    14A     -0.800093    15A     -0.722794
      16A     -0.705083    17A     -0.668662    18A     -0.639931
      19A     -0.628059    20A     -0.597247    21A     -0.576528
      22A     -0.558032    23A     -0.535295    24A     -0.513657
      25A     -0.505781    26A     -0.499799    27A     -0.465516
      28A     -0.460815

  @DF-RHF Final Energy:  -380.88093369446841

   => Energetics <=

    Nuclear Repulsion Energy =            322.5908699290737900
    One-Electron Energy =               -1161.0700281814329173
    Two-Electron Energy =                 457.5982245578907737
    Total Energy =                       -380.8809336944684105
  Basis Set: (AUG-CC-PVTZ AUX)
    Blend: AUG-CC-PVTZ-RI
    Molecular point group: c1

    Geometry (in Angstrom), charge = 0, multiplicity = 1:

       Center              X                  Y                   Z               Mass
    ------------   -----------------  -----------------  -----------------  -----------------
         O            0.022807808367    -0.596178663255     0.255527179048    15.994914619570
         O            2.179111808367    -0.729166663255     0.490806179048    15.994914619570
         O            1.339814808367     0.984513336745    -0.756530820952    15.994914619570
         C           -1.283138691633     0.162377436745    -0.320343220952    12.000000000000
         C           -2.237553191633    -1.012475663255    -0.282479820952    12.000000000000
         C           -1.516970191633     1.240540336745     0.633978179048    12.000000000000
         C            1.180506808367    -0.011569663255    -0.072518820952    12.000000000000
         H           -0.947267191633     0.412695336745    -1.271809820952     1.007825032230
         H           -3.171737191633    -0.604464663255    -0.678461820952     1.007825032230
         H           -1.925158191633    -1.848795663255    -0.911721820952     1.007825032230
         H           -2.418936191633    -1.384452663255     0.729213179048     1.007825032230
         H           -2.434953191633     1.722223336745     0.284174179048     1.007825032230
         H           -0.713116191633     1.978871336745     0.619206179048     1.007825032230
         H           -1.672346191633     0.894696336745     1.659605179048     1.007825032230
         H            3.000105808367    -0.272691663255     0.224146179048     1.007825032230

  Basis Set: AUG-CC-PVTZ
    Blend: AUG-CC-PVTZ
  Basis Set: (AUG-CC-PVTZ AUX)
    Blend: AUG-CC-PVTZ-JKFIT
	 Reference Energy          =    -380.8809336944684105 [Eh]
	 Singles Energy            =      -0.0000000000000000 [Eh]
	 Same-Spin Energy          =      -0.3690215522992900 [Eh]
	 Opposite-Spin Energy      =      -1.1649647984022651 [Eh]
	 Correlation Energy        =      -1.5339863507015550 [Eh]
	 Total Energy              =    -382.4149200451699926 [Eh]

	 ================> DF-SCS-MP2 Energies <==================
	-----------------------------------------------------------
	 SCS Same-Spin Scale       =       0.3333333333333333 [-]
	 SCS Opposite-Spin Scale   =       1.2000000000000000 [-]
	 SCS Same-Spin Energy      =      -0.1230071840997633 [Eh]
	 SCS Opposite-Spin Energy  =      -1.3979577580827180 [Eh]
	 SCS Correlation Energy    =      -1.5209649421824813 [Eh]
	 SCS Total Energy          =    -382.4018986366509125 [Eh]
	-----------------------------------------------------------

  Dipole Moment: [D]
     X:    -1.6755      Y:     0.1146      Z:     0.0537     Total:     1.6803

*** Psi4 exiting successfully. Buy a developer a beer!
