                               Psi4 1.4a3.dev225

  ==> Input File <==

--------------------------------------------------------------------------
#psi4
#
memory 32 gb

molecule  {
0 1
  O        0.1020250    -0.5936610     0.2432790
  O        2.2583290    -0.7266490     0.4785580
  O        1.4190320     0.9870310    -0.7687790
  C       -1.0945380     0.0672860    -0.2723740
  C       -2.1583360    -1.0099580    -0.2947280
  C       -1.4377530     1.2430580     0.6217300
  C        1.2597240    -0.0090520    -0.0847670
  H       -0.8680500     0.4152130    -1.2840580
  H       -3.0925200    -0.6019470    -0.6907100
  H       -1.8459410    -1.8462780    -0.9239700
  H       -2.3397190    -1.3819350     0.7169650
  H       -2.1879313     1.6366907     0.3358692
  H       -0.6338990     1.9813890     0.6069580
  H       -1.5931290     0.8972140     1.6473570
  H        3.0793230    -0.2701740     0.2118980
units angstrom
no_reorient  #important for SAPT in psi4, default
symmetry c1  #important for SAPT in psi4, default
}

set PROPERTIES_ORIGIN ["COM"]
properties('MP2/aug-cc-pvtz', properties = ['dipole'])
--------------------------------------------------------------------------

    Molecular point group: c1
  Charge       = 0
  Multiplicity = 1
  Basis Set: AUG-CC-PVTZ
    Blend: AUG-CC-PVTZ
  Basis Set: (AUG-CC-PVTZ AUX)
    Blend: AUG-CC-PVTZ-JKFIT

    Orbital Energies [Eh]
    ---------------------

    Doubly Occupied:

       1A    -20.621883     2A    -20.610886     3A    -20.550790
       4A    -11.439900     5A    -11.299849     6A    -11.226905
       7A    -11.198732     8A     -1.503973     9A     -1.399375
      10A     -1.362908    11A     -1.082441    12A     -0.968229
      13A     -0.888313    14A     -0.791685    15A     -0.745333
      16A     -0.714688    17A     -0.692088    18A     -0.639724
      19A     -0.625016    20A     -0.614550    21A     -0.569671
      22A     -0.563771    23A     -0.547171    24A     -0.534470
      25A     -0.502568    26A     -0.487124    27A     -0.476902
      28A     -0.462697

  @DF-RHF Final Energy:  -380.86654375627319

   => Energetics <=

    Nuclear Repulsion Energy =            325.4290057954233362
    One-Electron Energy =               -1166.3478153549269791
    Two-Electron Energy =                 460.0522658032304548
    Total Energy =                       -380.8665437562731881
  Basis Set: (AUG-CC-PVTZ AUX)
    Blend: AUG-CC-PVTZ-RI
    Molecular point group: c1

    Geometry (in Angstrom), charge = 0, multiplicity = 1:

       Center              X                  Y                   Z               Mass
    ------------   -----------------  -----------------  -----------------  -----------------
         O            0.008566985693    -0.584068325340     0.247962811458    15.994914619570
         O            2.164870985693    -0.717056325340     0.483241811458    15.994914619570
         O            1.325573985693     0.996623674660    -0.764095188542    15.994914619570
         C           -1.187996014307     0.076878674660    -0.267690188542    12.000000000000
         C           -2.251794014307    -1.000365325340    -0.290044188542    12.000000000000
         C           -1.531211014307     1.252650674660     0.626413811458    12.000000000000
         C            1.166265985693     0.000540674660    -0.080083188542    12.000000000000
         H           -0.961508014307     0.424805674660    -1.279374188542     1.007825032230
         H           -3.185978014307    -0.592354325340    -0.686026188542     1.007825032230
         H           -1.939399014307    -1.836685325340    -0.919286188542     1.007825032230
         H           -2.433177014307    -1.372342325340     0.721648811458     1.007825032230
         H           -2.281389314307     1.646283374660     0.340553011458     1.007825032230
         H           -0.727357014307     1.990981674660     0.611641811458     1.007825032230
         H           -1.686587014307     0.906806674660     1.652040811458     1.007825032230
         H            2.985864985693    -0.260581325340     0.216581811458     1.007825032230

  Basis Set: AUG-CC-PVTZ
    Blend: AUG-CC-PVTZ
  Basis Set: (AUG-CC-PVTZ AUX)
    Blend: AUG-CC-PVTZ-JKFIT
	 Reference Energy          =    -380.8665437562731881 [Eh]
	 Singles Energy            =      -0.0000000000000000 [Eh]
	 Same-Spin Energy          =      -0.3682507155444932 [Eh]
	 Opposite-Spin Energy      =      -1.1621793587949076 [Eh]
	 Correlation Energy        =      -1.5304300743394008 [Eh]
	 Total Energy              =    -382.3969738306125805 [Eh]

	 ================> DF-SCS-MP2 Energies <==================
	-----------------------------------------------------------
	 SCS Same-Spin Scale       =       0.3333333333333333 [-]
	 SCS Opposite-Spin Scale   =       1.2000000000000000 [-]
	 SCS Same-Spin Energy      =      -0.1227502385148311 [Eh]
	 SCS Opposite-Spin Energy  =      -1.3946152305538890 [Eh]
	 SCS Correlation Energy    =      -1.5173654690687202 [Eh]
	 SCS Total Energy          =    -382.3839092253418812 [Eh]
	-----------------------------------------------------------

  Dipole Moment: [D]
     X:    -1.0678      Y:    -0.0447      Z:     0.0770     Total:     1.0715

*** Psi4 exiting successfully. Buy a developer a beer!
