                               Psi4 1.4a3.dev225

  ==> Input File <==

--------------------------------------------------------------------------
#psi4
#
memory 32 gb

molecule  {
0 1
  O        0.1020250    -0.5936610     0.2432790
  O        2.2583290    -0.7266490     0.4785580
  O        1.4190320     0.9870310    -0.7687790
  C       -1.0945380     0.0672860    -0.2723740
  C       -2.1583360    -1.0099580    -0.2947280
  C       -1.4377530     1.2430580     0.6217300
  C        1.2597240    -0.0090520    -0.0847670
  H       -0.8680500     0.4152130    -1.2840580
  H       -3.0925200    -0.6019470    -0.6907100
  H       -1.8402207    -1.8615920    -0.9354921
  H       -2.3397190    -1.3819350     0.7169650
  H       -2.3557360     1.7247410     0.2719260
  H       -0.6338990     1.9813890     0.6069580
  H       -1.5931290     0.8972140     1.6473570
  H        3.0793230    -0.2701740     0.2118980
units angstrom
no_reorient  #important for SAPT in psi4, default
symmetry c1  #important for SAPT in psi4, default
}

set PROPERTIES_ORIGIN ["COM"]
properties('MP2/aug-cc-pvtz', properties = ['dipole'])
--------------------------------------------------------------------------

    Molecular point group: c1
  Charge       = 0
  Multiplicity = 1
  Basis Set: AUG-CC-PVTZ
    Blend: AUG-CC-PVTZ
  Basis Set: (AUG-CC-PVTZ AUX)
    Blend: AUG-CC-PVTZ-JKFIT

    Orbital Energies [Eh]
    ---------------------

    Doubly Occupied:

       1A    -20.622719     2A    -20.612454     3A    -20.551747
       4A    -11.440928     5A    -11.301353     6A    -11.229106
       7A    -11.223817     8A     -1.505083     9A     -1.400553
      10A     -1.363884    11A     -1.075968    12A     -0.950820
      13A     -0.885144    14A     -0.788365    15A     -0.746127
      16A     -0.715451    17A     -0.686281    18A     -0.637004
      19A     -0.624253    20A     -0.603202    21A     -0.570870
      22A     -0.553001    23A     -0.543497    24A     -0.525974
      25A     -0.503087    26A     -0.488106    27A     -0.477706
      28A     -0.463646

  @DF-RHF Final Energy:  -380.90009856864839

   => Energetics <=

    Nuclear Repulsion Energy =            324.2956829448920644
    One-Electron Energy =               -1164.2112693589895116
    Two-Electron Energy =                 459.0154878454490586
    Total Energy =                       -380.9000985686483887
  Basis Set: (AUG-CC-PVTZ AUX)
    Blend: AUG-CC-PVTZ-RI
    Molecular point group: c1

    Geometry (in Angstrom), charge = 0, multiplicity = 1:

       Center              X                  Y                   Z               Mass
    ------------   -----------------  -----------------  -----------------  -----------------
         O            0.010136970175    -0.584772864841     0.248693784642    15.994914619570
         O            2.166440970175    -0.717760864841     0.483972784642    15.994914619570
         O            1.327143970175     0.995919135159    -0.763364215358    15.994914619570
         C           -1.186426029825     0.076174135159    -0.266959215358    12.000000000000
         C           -2.250224029825    -1.001069864841    -0.289313215358    12.000000000000
         C           -1.529641029825     1.251946135159     0.627144784642    12.000000000000
         C            1.167835970175    -0.000163864841    -0.079352215358    12.000000000000
         H           -0.959938029825     0.424101135159    -1.278643215358     1.007825032230
         H           -3.184408029825    -0.593058864841    -0.685295215358     1.007825032230
         H           -1.932108729825    -1.852703864841    -0.930077315358     1.007825032230
         H           -2.431607029825    -1.373046864841     0.722379784642     1.007825032230
         H           -2.447624029825     1.733629135159     0.277340784642     1.007825032230
         H           -0.725787029825     1.990277135159     0.612372784642     1.007825032230
         H           -1.685017029825     0.906102135159     1.652771784642     1.007825032230
         H            2.987434970175    -0.261285864841     0.217312784642     1.007825032230

  Basis Set: AUG-CC-PVTZ
    Blend: AUG-CC-PVTZ
  Basis Set: (AUG-CC-PVTZ AUX)
    Blend: AUG-CC-PVTZ-JKFIT
	 Reference Energy          =    -380.9000985686483887 [Eh]
	 Singles Energy            =      -0.0000000000000000 [Eh]
	 Same-Spin Energy          =      -0.3680952982764026 [Eh]
	 Opposite-Spin Energy      =      -1.1628922529904213 [Eh]
	 Correlation Energy        =      -1.5309875512668238 [Eh]
	 Total Energy              =    -382.4310861199152214 [Eh]

	 ================> DF-SCS-MP2 Energies <==================
	-----------------------------------------------------------
	 SCS Same-Spin Scale       =       0.3333333333333333 [-]
	 SCS Opposite-Spin Scale   =       1.2000000000000000 [-]
	 SCS Same-Spin Energy      =      -0.1226984327588009 [Eh]
	 SCS Opposite-Spin Energy  =      -1.3954707035885054 [Eh]
	 SCS Correlation Energy    =      -1.5181691363473062 [Eh]
	 SCS Total Energy          =    -382.4182677049956851 [Eh]
	-----------------------------------------------------------

  Dipole Moment: [D]
     X:    -0.9919      Y:    -0.0685      Z:     0.0952     Total:     0.9988

*** Psi4 exiting successfully. Buy a developer a beer!
