                               Psi4 1.4a3.dev225

  ==> Input File <==

--------------------------------------------------------------------------
#psi4
#
memory 32 gb

molecule  {
0 1
  O        0.1020250    -0.5936610     0.2432790
  O        2.2583290    -0.7266490     0.4785580
  O        1.4190320     0.9870310    -0.7687790
  C       -1.0945380     0.0672860    -0.2723740
  C       -2.1583360    -1.0099580    -0.2947280
  C       -1.4151204     1.1655241     0.5627701
  C        1.2597240    -0.0090520    -0.0847670
  H       -0.8680500     0.4152130    -1.2840580
  H       -3.0925200    -0.6019470    -0.6907100
  H       -1.8459410    -1.8462780    -0.9239700
  H       -2.3397190    -1.3819350     0.7169650
  H       -2.3557360     1.7247410     0.2719260
  H       -0.6338990     1.9813890     0.6069580
  H       -1.5931290     0.8972140     1.6473570
  H        3.0793230    -0.2701740     0.2118980
units angstrom
no_reorient  #important for SAPT in psi4, default
symmetry c1  #important for SAPT in psi4, default
}

set PROPERTIES_ORIGIN ["COM"]
properties('MP2/aug-cc-pvtz', properties = ['dipole'])
--------------------------------------------------------------------------

    Molecular point group: c1
  Charge       = 0
  Multiplicity = 1
  Basis Set: AUG-CC-PVTZ
    Blend: AUG-CC-PVTZ
  Basis Set: (AUG-CC-PVTZ AUX)
    Blend: AUG-CC-PVTZ-JKFIT

    Orbital Energies [Eh]
    ---------------------

    Doubly Occupied:

       1A    -20.622626     2A    -20.612148     3A    -20.551560
       4A    -11.440941     5A    -11.296659     6A    -11.228267
       7A    -11.226866     8A     -1.505414     9A     -1.401526
      10A     -1.363889    11A     -1.091879    12A     -0.952854
      13A     -0.884509    14A     -0.789203    15A     -0.747262
      16A     -0.715806    17A     -0.688671    18A     -0.638149
      19A     -0.634371    20A     -0.605507    21A     -0.570178
      22A     -0.549639    23A     -0.543736    24A     -0.511347
      25A     -0.507540    26A     -0.481413    27A     -0.478202
      28A     -0.467942

  @DF-RHF Final Energy:  -380.88863100068198

   => Energetics <=

    Nuclear Repulsion Energy =            326.0852368553295832
    One-Electron Energy =               -1167.7315285430593121
    Two-Electron Energy =                 460.7576606870476894
    Total Energy =                       -380.8886310006819826
  Basis Set: (AUG-CC-PVTZ AUX)
    Blend: AUG-CC-PVTZ-RI
    Molecular point group: c1

    Geometry (in Angstrom), charge = 0, multiplicity = 1:

       Center              X                  Y                   Z               Mass
    ------------   -----------------  -----------------  -----------------  -----------------
         O            0.007582112666    -0.575979051070     0.255382148916    15.994914619570
         O            2.163886112666    -0.708967051070     0.490661148916    15.994914619570
         O            1.324589112666     1.004712948930    -0.756675851084    15.994914619570
         C           -1.188980887334     0.084967948930    -0.260270851084    12.000000000000
         C           -2.252778887334    -0.992276051070    -0.282624851084    12.000000000000
         C           -1.509563287334     1.183206048930     0.574873248916    12.000000000000
         C            1.165281112666     0.008629948930    -0.072663851084    12.000000000000
         H           -0.962492887334     0.432894948930    -1.271954851084     1.007825032230
         H           -3.186962887334    -0.584265051070    -0.678606851084     1.007825032230
         H           -1.940383887334    -1.828596051070    -0.911866851084     1.007825032230
         H           -2.434161887334    -1.364253051070     0.729068148916     1.007825032230
         H           -2.450178887334     1.742422948930     0.284029148916     1.007825032230
         H           -0.728341887334     1.999070948930     0.619061148916     1.007825032230
         H           -1.687571887334     0.914895948930     1.659460148916     1.007825032230
         H            2.984880112666    -0.252492051070     0.224001148916     1.007825032230

  Basis Set: AUG-CC-PVTZ
    Blend: AUG-CC-PVTZ
  Basis Set: (AUG-CC-PVTZ AUX)
    Blend: AUG-CC-PVTZ-JKFIT
	 Reference Energy          =    -380.8886310006819826 [Eh]
	 Singles Energy            =      -0.0000000000000000 [Eh]
	 Same-Spin Energy          =      -0.3692399124673936 [Eh]
	 Opposite-Spin Energy      =      -1.1640724348993532 [Eh]
	 Correlation Energy        =      -1.5333123473667469 [Eh]
	 Total Energy              =    -382.4219433480487282 [Eh]

	 ================> DF-SCS-MP2 Energies <==================
	-----------------------------------------------------------
	 SCS Same-Spin Scale       =       0.3333333333333333 [-]
	 SCS Opposite-Spin Scale   =       1.2000000000000000 [-]
	 SCS Same-Spin Energy      =      -0.1230799708224645 [Eh]
	 SCS Opposite-Spin Energy  =      -1.3968869218792237 [Eh]
	 SCS Correlation Energy    =      -1.5199668927016883 [Eh]
	 SCS Total Energy          =    -382.4085978933836714 [Eh]
	-----------------------------------------------------------

  Dipole Moment: [D]
     X:    -1.0130      Y:    -0.0237      Z:     0.1045     Total:     1.0187

*** Psi4 exiting successfully. Buy a developer a beer!
