                               Psi4 1.4a3.dev225

  ==> Input File <==

--------------------------------------------------------------------------
#psi4
#
memory 32 gb

molecule  {
0 1
  O        0.1020250    -0.5936610     0.2432790
  O        2.2583290    -0.7266490     0.4785580
  O        1.4190320     0.9870310    -0.7687790
  C       -1.0945380     0.0672860    -0.2723740
  C       -2.1583360    -1.0099580    -0.2947280
  C       -1.4377530     1.2430580     0.6217300
  C        1.2597240    -0.0090520    -0.0847670
  H       -0.8680500     0.4152130    -1.2840580
  H       -3.0925200    -0.6019470    -0.6907100
  H       -1.8602418    -1.8079930    -0.8951646
  H       -2.3397190    -1.3819350     0.7169650
  H       -2.3557360     1.7247410     0.2719260
  H       -0.6338990     1.9813890     0.6069580
  H       -1.5931290     0.8972140     1.6473570
  H        3.0793230    -0.2701740     0.2118980
units angstrom
no_reorient  #important for SAPT in psi4, default
symmetry c1  #important for SAPT in psi4, default
}

set PROPERTIES_ORIGIN ["COM"]
properties('MP2/aug-cc-pvtz', properties = ['dipole'])
--------------------------------------------------------------------------

    Molecular point group: c1
  Charge       = 0
  Multiplicity = 1
  Basis Set: AUG-CC-PVTZ
    Blend: AUG-CC-PVTZ
  Basis Set: (AUG-CC-PVTZ AUX)
    Blend: AUG-CC-PVTZ-JKFIT

    Orbital Energies [Eh]
    ---------------------

    Doubly Occupied:

       1A    -20.622696     2A    -20.612411     3A    -20.551699
       4A    -11.440884     5A    -11.300697     6A    -11.223182
       7A    -11.220624     8A     -1.505046     9A     -1.400519
      10A     -1.363836    11A     -1.076981    12A     -0.954833
      13A     -0.886356    14A     -0.788979    15A     -0.746342
      16A     -0.715424    17A     -0.686315    18A     -0.636912
      19A     -0.630627    20A     -0.602942    21A     -0.570531
      22A     -0.553133    23A     -0.545914    24A     -0.529452
      25A     -0.504069    26A     -0.487982    27A     -0.477663
      28A     -0.463933

  @DF-RHF Final Energy:  -380.89958728054802

   => Energetics <=

    Nuclear Repulsion Energy =            324.5980560062023415
    One-Electron Energy =               -1164.7953255994552819
    Two-Electron Energy =                 459.2976823127049215
    Total Energy =                       -380.8995872805480190
  Basis Set: (AUG-CC-PVTZ AUX)
    Blend: AUG-CC-PVTZ-RI
    Molecular point group: c1

    Geometry (in Angstrom), charge = 0, multiplicity = 1:

       Center              X                  Y                   Z               Mass
    ------------   -----------------  -----------------  -----------------  -----------------
         O            0.010330898871    -0.585292036323     0.248303163773    15.994914619570
         O            2.166634898871    -0.718280036323     0.483582163773    15.994914619570
         O            1.327337898871     0.995399963677    -0.763754836227    15.994914619570
         C           -1.186232101129     0.075654963677    -0.267349836227    12.000000000000
         C           -2.250030101129    -1.001589036323    -0.289703836227    12.000000000000
         C           -1.529447101129     1.251426963677     0.626754163773    12.000000000000
         C            1.168029898871    -0.000683036323    -0.079742836227    12.000000000000
         H           -0.959744101129     0.423581963677    -1.279033836227     1.007825032230
         H           -3.184214101129    -0.593578036323    -0.685685836227     1.007825032230
         H           -1.951935901129    -1.799624036323    -0.890140436227     1.007825032230
         H           -2.431413101129    -1.373566036323     0.721989163773     1.007825032230
         H           -2.447430101129     1.733109963677     0.276950163773     1.007825032230
         H           -0.725593101129     1.989757963677     0.611982163773     1.007825032230
         H           -1.684823101129     0.905582963677     1.652381163773     1.007825032230
         H            2.987628898871    -0.261805036323     0.216922163773     1.007825032230

  Basis Set: AUG-CC-PVTZ
    Blend: AUG-CC-PVTZ
  Basis Set: (AUG-CC-PVTZ AUX)
    Blend: AUG-CC-PVTZ-JKFIT
	 Reference Energy          =    -380.8995872805480190 [Eh]
	 Singles Energy            =      -0.0000000000000000 [Eh]
	 Same-Spin Energy          =      -0.3681140398427395 [Eh]
	 Opposite-Spin Energy      =      -1.1624927678236110 [Eh]
	 Correlation Energy        =      -1.5306068076663504 [Eh]
	 Total Energy              =    -382.4301940882143640 [Eh]

	 ================> DF-SCS-MP2 Energies <==================
	-----------------------------------------------------------
	 SCS Same-Spin Scale       =       0.3333333333333333 [-]
	 SCS Opposite-Spin Scale   =       1.2000000000000000 [-]
	 SCS Same-Spin Energy      =      -0.1227046799475798 [Eh]
	 SCS Opposite-Spin Energy  =      -1.3949913213883331 [Eh]
	 SCS Correlation Energy    =      -1.5176960013359129 [Eh]
	 SCS Total Energy          =    -382.4172832818839538 [Eh]
	-----------------------------------------------------------

  Dipole Moment: [D]
     X:    -0.9932      Y:    -0.0990      Z:     0.0755     Total:     1.0010

*** Psi4 exiting successfully. Buy a developer a beer!
