                               Psi4 1.4a3.dev225

  ==> Input File <==

--------------------------------------------------------------------------
#psi4
#
memory 32 gb

molecule  {
0 1
  O        0.1020250    -0.5936610     0.2432790
  O        2.2583290    -0.7266490     0.4785580
  O        1.4190320     0.9870310    -0.7687790
  C       -1.0945380     0.0672860    -0.2723740
  C       -2.1583360    -1.0099580    -0.2947280
  C       -1.4830182     1.3981257     0.7396497
  C        1.2597240    -0.0090520    -0.0847670
  H       -0.8680500     0.4152130    -1.2840580
  H       -3.0925200    -0.6019470    -0.6907100
  H       -1.8459410    -1.8462780    -0.9239700
  H       -2.3397190    -1.3819350     0.7169650
  H       -2.3557360     1.7247410     0.2719260
  H       -0.6338990     1.9813890     0.6069580
  H       -1.5931290     0.8972140     1.6473570
  H        3.0793230    -0.2701740     0.2118980
units angstrom
no_reorient  #important for SAPT in psi4, default
symmetry c1  #important for SAPT in psi4, default
}

set PROPERTIES_ORIGIN ["COM"]
properties('MP2/aug-cc-pvtz', properties = ['dipole'])
--------------------------------------------------------------------------

    Molecular point group: c1
  Charge       = 0
  Multiplicity = 1
  Basis Set: AUG-CC-PVTZ
    Blend: AUG-CC-PVTZ
  Basis Set: (AUG-CC-PVTZ AUX)
    Blend: AUG-CC-PVTZ-JKFIT

    Orbital Energies [Eh]
    ---------------------

    Doubly Occupied:

       1A    -20.622974     2A    -20.613577     3A    -20.552191
       4A    -11.441018     5A    -11.306995     6A    -11.227121
       7A    -11.222951     8A     -1.504879     9A     -1.399598
      10A     -1.364042    11A     -1.057372    12A     -0.953101
      13A     -0.886810    14A     -0.786620    15A     -0.745069
      16A     -0.715107    17A     -0.683764    18A     -0.636334
      19A     -0.621364    20A     -0.602895    21A     -0.580555
      22A     -0.567359    23A     -0.551467    24A     -0.535234
      25A     -0.506340    26A     -0.487154    27A     -0.477246
      28A     -0.425089

  @DF-RHF Final Energy:  -380.87315807870175

   => Energetics <=

    Nuclear Repulsion Energy =            321.2334236391849345
    One-Electron Energy =               -1158.0647068090320317
    Two-Electron Energy =                 455.9581250911453481
    Total Energy =                       -380.8731580787017492
  Basis Set: (AUG-CC-PVTZ AUX)
    Blend: AUG-CC-PVTZ-RI
    Molecular point group: c1

    Geometry (in Angstrom), charge = 0, multiplicity = 1:

       Center              X                  Y                   Z               Mass
    ------------   -----------------  -----------------  -----------------  -----------------
         O            0.015412909376    -0.602805484976     0.234982250985    15.994914619570
         O            2.171716909376    -0.735793484976     0.470261250985    15.994914619570
         O            1.332419909376     0.977886515024    -0.777075749015    15.994914619570
         C           -1.181150090624     0.058141515024    -0.280670749015    12.000000000000
         C           -2.244948090624    -1.019102484976    -0.303024749015    12.000000000000
         C           -1.569630290624     1.388981215024     0.731352950985    12.000000000000
         C            1.173111909376    -0.018196484976    -0.093063749015    12.000000000000
         H           -0.954662090624     0.406068515024    -1.292354749015     1.007825032230
         H           -3.179132090624    -0.611091484976    -0.699006749015     1.007825032230
         H           -1.932553090624    -1.855422484976    -0.932266749015     1.007825032230
         H           -2.426331090624    -1.391079484976     0.708668250985     1.007825032230
         H           -2.442348090624     1.715596515024     0.263629250985     1.007825032230
         H           -0.720511090624     1.972244515024     0.598661250985     1.007825032230
         H           -1.679741090624     0.888069515024     1.639060250985     1.007825032230
         H            2.992710909376    -0.279318484976     0.203601250985     1.007825032230

  Basis Set: AUG-CC-PVTZ
    Blend: AUG-CC-PVTZ
  Basis Set: (AUG-CC-PVTZ AUX)
    Blend: AUG-CC-PVTZ-JKFIT
	 Reference Energy          =    -380.8731580787017492 [Eh]
	 Singles Energy            =      -0.0000000000000000 [Eh]
	 Same-Spin Energy          =      -0.3680709605748528 [Eh]
	 Opposite-Spin Energy      =      -1.1641801585046805 [Eh]
	 Correlation Energy        =      -1.5322511190795334 [Eh]
	 Total Energy              =    -382.4054091977812959 [Eh]

	 ================> DF-SCS-MP2 Energies <==================
	-----------------------------------------------------------
	 SCS Same-Spin Scale       =       0.3333333333333333 [-]
	 SCS Opposite-Spin Scale   =       1.2000000000000000 [-]
	 SCS Same-Spin Energy      =      -0.1226903201916176 [Eh]
	 SCS Opposite-Spin Energy  =      -1.3970161902056166 [Eh]
	 SCS Correlation Energy    =      -1.5197065103972343 [Eh]
	 SCS Total Energy          =    -382.3928645890989628 [Eh]
	-----------------------------------------------------------

  Dipole Moment: [D]
     X:    -0.9367      Y:    -0.2230      Z:     0.0218     Total:     0.9631

*** Psi4 exiting successfully. Buy a developer a beer!
