                               Psi4 1.4a3.dev225

  ==> Input File <==

--------------------------------------------------------------------------
#psi4
#
memory 32 gb

molecule  {
0 1
  O        0.1020250    -0.5936610     0.2432790
  O        2.2583290    -0.7266490     0.4785580
  O        1.4190320     0.9870310    -0.7687790
  C       -1.0984137     0.0353702    -0.2303247
  C       -2.1583360    -1.0099580    -0.2947280
  C       -1.4377530     1.2430580     0.6217300
  C        1.2597240    -0.0090520    -0.0847670
  H       -0.8680500     0.4152130    -1.2840580
  H       -3.0925200    -0.6019470    -0.6907100
  H       -1.8459410    -1.8462780    -0.9239700
  H       -2.3397190    -1.3819350     0.7169650
  H       -2.3557360     1.7247410     0.2719260
  H       -0.6338990     1.9813890     0.6069580
  H       -1.5931290     0.8972140     1.6473570
  H        3.0793230    -0.2701740     0.2118980
units angstrom
no_reorient  #important for SAPT in psi4, default
symmetry c1  #important for SAPT in psi4, default
}

set PROPERTIES_ORIGIN ["COM"]
properties('MP2/aug-cc-pvtz', properties = ['dipole'])
--------------------------------------------------------------------------

    Molecular point group: c1
  Charge       = 0
  Multiplicity = 1
  Basis Set: AUG-CC-PVTZ
    Blend: AUG-CC-PVTZ
  Basis Set: (AUG-CC-PVTZ AUX)
    Blend: AUG-CC-PVTZ-JKFIT

    Orbital Energies [Eh]
    ---------------------

    Doubly Occupied:

       1A    -20.624230     2A    -20.614603     3A    -20.553014
       4A    -11.443264     5A    -11.302068     6A    -11.225808
       7A    -11.223047     8A     -1.508129     9A     -1.405683
      10A     -1.365506    11A     -1.078983    12A     -0.953997
      13A     -0.891531    14A     -0.780201    15A     -0.749645
      16A     -0.715685    17A     -0.689274    18A     -0.637745
      19A     -0.629511    20A     -0.605451    21A     -0.572450
      22A     -0.552300    23A     -0.548765    24A     -0.528328
      25A     -0.505888    26A     -0.480459    27A     -0.476820
      28A     -0.458799

  @DF-RHF Final Energy:  -380.89754288030207

   => Energetics <=

    Nuclear Repulsion Energy =            324.7570430514287523
    One-Electron Energy =               -1165.0668007810659219
    Two-Electron Energy =                 459.4122148493350437
    Total Energy =                       -380.8975428803020691
  Basis Set: (AUG-CC-PVTZ AUX)
    Blend: AUG-CC-PVTZ-RI
    Molecular point group: c1

    Geometry (in Angstrom), charge = 0, multiplicity = 1:

       Center              X                  Y                   Z               Mass
    ------------   -----------------  -----------------  -----------------  -----------------
         O            0.010639370904    -0.581240282913     0.243732544495    15.994914619570
         O            2.166943370904    -0.714228282913     0.479011544495    15.994914619570
         O            1.327646370904     0.999451717087    -0.768325455505    15.994914619570
         C           -1.189799329096     0.047790917087    -0.229871155505    12.000000000000
         C           -2.249721629096    -0.997537282913    -0.294274455505    12.000000000000
         C           -1.529138629096     1.255478717087     0.622183544495    12.000000000000
         C            1.168338370904     0.003368717087    -0.084313455505    12.000000000000
         H           -0.959435629096     0.427633717087    -1.283604455505     1.007825032230
         H           -3.183905629096    -0.589526282913    -0.690256455505     1.007825032230
         H           -1.937326629096    -1.833857282913    -0.923516455505     1.007825032230
         H           -2.431104629096    -1.369514282913     0.717418544495     1.007825032230
         H           -2.447121629096     1.737161717087     0.272379544495     1.007825032230
         H           -0.725284629096     1.993809717087     0.607411544495     1.007825032230
         H           -1.684514629096     0.909634717087     1.647810544495     1.007825032230
         H            2.987937370904    -0.257753282913     0.212351544495     1.007825032230

  Basis Set: AUG-CC-PVTZ
    Blend: AUG-CC-PVTZ
  Basis Set: (AUG-CC-PVTZ AUX)
    Blend: AUG-CC-PVTZ-JKFIT
	 Reference Energy          =    -380.8975428803020691 [Eh]
	 Singles Energy            =      -0.0000000000000000 [Eh]
	 Same-Spin Energy          =      -0.3683318598022784 [Eh]
	 Opposite-Spin Energy      =      -1.1628133965105372 [Eh]
	 Correlation Energy        =      -1.5311452563128156 [Eh]
	 Total Energy              =    -382.4286881366148805 [Eh]

	 ================> DF-SCS-MP2 Energies <==================
	-----------------------------------------------------------
	 SCS Same-Spin Scale       =       0.3333333333333333 [-]
	 SCS Opposite-Spin Scale   =       1.2000000000000000 [-]
	 SCS Same-Spin Energy      =      -0.1227772866007595 [Eh]
	 SCS Opposite-Spin Energy  =      -1.3953760758126446 [Eh]
	 SCS Correlation Energy    =      -1.5181533624134040 [Eh]
	 SCS Total Energy          =    -382.4156962427154554 [Eh]
	-----------------------------------------------------------

  Dipole Moment: [D]
     X:    -0.9338      Y:    -0.1215      Z:     0.1309     Total:     0.9507

*** Psi4 exiting successfully. Buy a developer a beer!
