                               Psi4 1.4a3.dev225

  ==> Input File <==

--------------------------------------------------------------------------
#psi4
#
memory 32 gb

molecule  {
0 1
  O        0.1020250    -0.5936610     0.2432790
  O        2.2583290    -0.7266490     0.4785580
  O        1.4190320     0.9870310    -0.7687790
  C       -1.0945380     0.0672860    -0.2723740
  C       -2.1232072    -0.9743852    -0.2939898
  C       -1.4377530     1.2430580     0.6217300
  C        1.2597240    -0.0090520    -0.0847670
  H       -0.8680500     0.4152130    -1.2840580
  H       -3.0925200    -0.6019470    -0.6907100
  H       -1.8459410    -1.8462780    -0.9239700
  H       -2.3397190    -1.3819350     0.7169650
  H       -2.3557360     1.7247410     0.2719260
  H       -0.6338990     1.9813890     0.6069580
  H       -1.5931290     0.8972140     1.6473570
  H        3.0793230    -0.2701740     0.2118980
units angstrom
no_reorient  #important for SAPT in psi4, default
symmetry c1  #important for SAPT in psi4, default
}

set PROPERTIES_ORIGIN ["COM"]
properties('MP2/aug-cc-pvtz', properties = ['dipole'])
--------------------------------------------------------------------------

    Molecular point group: c1
  Charge       = 0
  Multiplicity = 1
  Basis Set: AUG-CC-PVTZ
    Blend: AUG-CC-PVTZ
  Basis Set: (AUG-CC-PVTZ AUX)
    Blend: AUG-CC-PVTZ-JKFIT

    Orbital Energies [Eh]
    ---------------------

    Doubly Occupied:

       1A    -20.622784     2A    -20.612491     3A    -20.551849
       4A    -11.441021     5A    -11.299055     6A    -11.228708
       7A    -11.223725     8A     -1.505333     9A     -1.401126
      10A     -1.364068    11A     -1.083964    12A     -0.952085
      13A     -0.884324    14A     -0.789244    15A     -0.746974
      16A     -0.715728    17A     -0.686682    18A     -0.637579
      19A     -0.629050    20A     -0.604858    21A     -0.572206
      22A     -0.548186    23A     -0.540511    24A     -0.523401
      25A     -0.508231    26A     -0.487695    27A     -0.477753
      28A     -0.463611

  @DF-RHF Final Energy:  -380.89750196814521

   => Energetics <=

    Nuclear Repulsion Energy =            325.2343564652250052
    One-Electron Energy =               -1166.0592327813021711
    Two-Electron Energy =                 459.9273743479319592
    Total Energy =                       -380.8975019681452068
  Basis Set: (AUG-CC-PVTZ AUX)
    Blend: AUG-CC-PVTZ-RI
    Molecular point group: c1

    Geometry (in Angstrom), charge = 0, multiplicity = 1:

       Center              X                  Y                   Z               Mass
    ------------   -----------------  -----------------  -----------------  -----------------
         O            0.006140899521    -0.589023885723     0.248497040929    15.994914619570
         O            2.162444899521    -0.722011885723     0.483776040929    15.994914619570
         O            1.323147899521     0.991668114277    -0.763560959071    15.994914619570
         C           -1.190422100479     0.071923114277    -0.267155959071    12.000000000000
         C           -2.219091300479    -0.969748085723    -0.288771759071    12.000000000000
         C           -1.533637100479     1.247695114277     0.626948040929    12.000000000000
         C            1.163839899521    -0.004414885723    -0.079548959071    12.000000000000
         H           -0.963934100479     0.419850114277    -1.278839959071     1.007825032230
         H           -3.188404100479    -0.597309885723    -0.685491959071     1.007825032230
         H           -1.941825100479    -1.841640885723    -0.918751959071     1.007825032230
         H           -2.435603100479    -1.377297885723     0.722183040929     1.007825032230
         H           -2.451620100479     1.729378114277     0.277144040929     1.007825032230
         H           -0.729783100479     1.986026114277     0.612176040929     1.007825032230
         H           -1.689013100479     0.901851114277     1.652575040929     1.007825032230
         H            2.983438899521    -0.265536885723     0.217116040929     1.007825032230

  Basis Set: AUG-CC-PVTZ
    Blend: AUG-CC-PVTZ
  Basis Set: (AUG-CC-PVTZ AUX)
    Blend: AUG-CC-PVTZ-JKFIT
	 Reference Energy          =    -380.8975019681452068 [Eh]
	 Singles Energy            =      -0.0000000000000000 [Eh]
	 Same-Spin Energy          =      -0.3685450738581601 [Eh]
	 Opposite-Spin Energy      =      -1.1632294980149076 [Eh]
	 Correlation Energy        =      -1.5317745718730678 [Eh]
	 Total Energy              =    -382.4292765400182930 [Eh]

	 ================> DF-SCS-MP2 Energies <==================
	-----------------------------------------------------------
	 SCS Same-Spin Scale       =       0.3333333333333333 [-]
	 SCS Opposite-Spin Scale   =       1.2000000000000000 [-]
	 SCS Same-Spin Energy      =      -0.1228483579527200 [Eh]
	 SCS Opposite-Spin Energy  =      -1.3958753976178890 [Eh]
	 SCS Correlation Energy    =      -1.5187237555706090 [Eh]
	 SCS Total Energy          =    -382.4162257237157974 [Eh]
	-----------------------------------------------------------

  Dipole Moment: [D]
     X:    -1.0090      Y:    -0.0876      Z:     0.0832     Total:     1.0162

*** Psi4 exiting successfully. Buy a developer a beer!
