                               Psi4 1.4a3.dev225

  ==> Input File <==

--------------------------------------------------------------------------
#psi4
#
memory 32 gb

molecule  {
0 1
  O        0.1020250    -0.5936610     0.2432790
  O        2.2583290    -0.7266490     0.4785580
  O        1.4190320     0.9870310    -0.7687790
  C       -1.0945380     0.0672860    -0.2723740
  C       -2.1583360    -1.0099580    -0.2947280
  C       -1.4377530     1.2430580     0.6217300
  C        1.2164545    -0.0309020    -0.0725061
  H       -0.8680500     0.4152130    -1.2840580
  H       -3.0925200    -0.6019470    -0.6907100
  H       -1.8459410    -1.8462780    -0.9239700
  H       -2.3397190    -1.3819350     0.7169650
  H       -2.3557360     1.7247410     0.2719260
  H       -0.6338990     1.9813890     0.6069580
  H       -1.5931290     0.8972140     1.6473570
  H        3.0793230    -0.2701740     0.2118980
units angstrom
no_reorient  #important for SAPT in psi4, default
symmetry c1  #important for SAPT in psi4, default
}

set PROPERTIES_ORIGIN ["COM"]
properties('MP2/aug-cc-pvtz', properties = ['dipole'])
--------------------------------------------------------------------------

    Molecular point group: c1
  Charge       = 0
  Multiplicity = 1
  Basis Set: AUG-CC-PVTZ
    Blend: AUG-CC-PVTZ
  Basis Set: (AUG-CC-PVTZ AUX)
    Blend: AUG-CC-PVTZ-JKFIT

    Orbital Energies [Eh]
    ---------------------

    Doubly Occupied:

       1A    -20.625119     2A    -20.614912     3A    -20.542197
       4A    -11.441247     5A    -11.308020     6A    -11.231074
       7A    -11.227443     8A     -1.512625     9A     -1.406101
      10A     -1.340712    11A     -1.085828    12A     -0.956364
      13A     -0.893076    14A     -0.791712    15A     -0.754050
      16A     -0.707700    17A     -0.691263    18A     -0.637762
      19A     -0.626828    20A     -0.595359    21A     -0.572507
      22A     -0.556719    23A     -0.549633    24A     -0.532095
      25A     -0.503645    26A     -0.490093    27A     -0.467809
      28A     -0.461319

  @DF-RHF Final Energy:  -380.89667035786096

   => Energetics <=

    Nuclear Repulsion Energy =            324.6888724461673519
    One-Electron Energy =               -1164.9246627313948466
    Two-Electron Energy =                 459.3391199273665393
    Total Energy =                       -380.8966703578609554
  Basis Set: (AUG-CC-PVTZ AUX)
    Blend: AUG-CC-PVTZ-RI
    Molecular point group: c1

    Geometry (in Angstrom), charge = 0, multiplicity = 1:

       Center              X                  Y                   Z               Mass
    ------------   -----------------  -----------------  -----------------  -----------------
         O            0.015182741079    -0.582401192891     0.247168103596    15.994914619570
         O            2.171486741079    -0.715389192891     0.482447103596    15.994914619570
         O            1.332189741079     0.998290807109    -0.764889896404    15.994914619570
         C           -1.181380258921     0.078545807109    -0.268484896404    12.000000000000
         C           -2.245178258921    -0.998698192891    -0.290838896404    12.000000000000
         C           -1.524595258921     1.254317807109     0.625619103596    12.000000000000
         C            1.129612241079    -0.019642192891    -0.068616996404    12.000000000000
         H           -0.954892258921     0.426472807109    -1.280168896404     1.007825032230
         H           -3.179362258921    -0.590687192891    -0.686820896404     1.007825032230
         H           -1.932783258921    -1.835018192891    -0.920080896404     1.007825032230
         H           -2.426561258921    -1.370675192891     0.720854103596     1.007825032230
         H           -2.442578258921     1.736000807109     0.275815103596     1.007825032230
         H           -0.720741258921     1.992648807109     0.610847103596     1.007825032230
         H           -1.679971258921     0.908473807109     1.651246103596     1.007825032230
         H            2.992480741079    -0.258914192891     0.215787103596     1.007825032230

  Basis Set: AUG-CC-PVTZ
    Blend: AUG-CC-PVTZ
  Basis Set: (AUG-CC-PVTZ AUX)
    Blend: AUG-CC-PVTZ-JKFIT
	 Reference Energy          =    -380.8966703578609554 [Eh]
	 Singles Energy            =      -0.0000000000000000 [Eh]
	 Same-Spin Energy          =      -0.3682186759483264 [Eh]
	 Opposite-Spin Energy      =      -1.1628359244482187 [Eh]
	 Correlation Energy        =      -1.5310546003965451 [Eh]
	 Total Energy              =    -382.4277249582574996 [Eh]

	 ================> DF-SCS-MP2 Energies <==================
	-----------------------------------------------------------
	 SCS Same-Spin Scale       =       0.3333333333333333 [-]
	 SCS Opposite-Spin Scale   =       1.2000000000000000 [-]
	 SCS Same-Spin Energy      =      -0.1227395586494421 [Eh]
	 SCS Opposite-Spin Energy  =      -1.3954031093378625 [Eh]
	 SCS Correlation Energy    =      -1.5181426679873047 [Eh]
	 SCS Total Energy          =    -382.4148130258482752 [Eh]
	-----------------------------------------------------------

  Dipole Moment: [D]
     X:    -1.5244      Y:    -0.2279      Z:     0.1879     Total:     1.5528

*** Psi4 exiting successfully. Buy a developer a beer!
