                               Psi4 1.4a3.dev225

  ==> Input File <==

--------------------------------------------------------------------------
#psi4
#
memory 32 gb

molecule  {
0 1
  O        0.1020250    -0.5936610     0.2432790
  O        2.2583290    -0.7266490     0.4785580
  O        1.4190320     0.9870310    -0.7687790
  C       -1.0927567     0.0837836    -0.2929933
  C       -2.1583360    -1.0099580    -0.2947280
  C       -1.4377530     1.2430580     0.6217300
  C        1.2597240    -0.0090520    -0.0847670
  H       -0.8680500     0.4152130    -1.2840580
  H       -3.0925200    -0.6019470    -0.6907100
  H       -1.8459410    -1.8462780    -0.9239700
  H       -2.3397190    -1.3819350     0.7169650
  H       -2.3557360     1.7247410     0.2719260
  H       -0.6338990     1.9813890     0.6069580
  H       -1.5931290     0.8972140     1.6473570
  H        3.0793230    -0.2701740     0.2118980
units angstrom
no_reorient  #important for SAPT in psi4, default
symmetry c1  #important for SAPT in psi4, default
}

set PROPERTIES_ORIGIN ["COM"]
properties('MP2/aug-cc-pvtz', properties = ['dipole'])
--------------------------------------------------------------------------

    Molecular point group: c1
  Charge       = 0
  Multiplicity = 1
  Basis Set: AUG-CC-PVTZ
    Blend: AUG-CC-PVTZ
  Basis Set: (AUG-CC-PVTZ AUX)
    Blend: AUG-CC-PVTZ-JKFIT

    Orbital Energies [Eh]
    ---------------------

    Doubly Occupied:

       1A    -20.621934     2A    -20.611301     3A    -20.551079
       4A    -11.439736     5A    -11.301006     6A    -11.227307
       7A    -11.224111     8A     -1.503556     9A     -1.397948
      10A     -1.362977    11A     -1.075028    12A     -0.950808
      13A     -0.882654    14A     -0.793396    15A     -0.744189
      16A     -0.715228    17A     -0.684813    18A     -0.636717
      19A     -0.624252    20A     -0.602056    21A     -0.570321
      22A     -0.553198    23A     -0.541592    24A     -0.526835
      25A     -0.502321    26A     -0.493942    27A     -0.477119
      28A     -0.463656

  @DF-RHF Final Energy:  -380.89974785669023

   => Energetics <=

    Nuclear Repulsion Energy =            324.1808312342830050
    One-Electron Energy =               -1164.0029950429575365
    Two-Electron Energy =                 458.9224159519843056
    Total Energy =                       -380.8997478566902259
  Basis Set: (AUG-CC-PVTZ AUX)
    Blend: AUG-CC-PVTZ-RI
    Molecular point group: c1

    Geometry (in Angstrom), charge = 0, multiplicity = 1:

       Center              X                  Y                   Z               Mass
    ------------   -----------------  -----------------  -----------------  -----------------
         O            0.009986937144    -0.586823902610     0.250960246523    15.994914619570
         O            2.166290937144    -0.719811902610     0.486239246523    15.994914619570
         O            1.326993937144     0.993868097390    -0.761097753477    15.994914619570
         C           -1.184794762856     0.090620697390    -0.285312053477    12.000000000000
         C           -2.250374062856    -1.003120902610    -0.287046753477    12.000000000000
         C           -1.529791062856     1.249895097390     0.629411246523    12.000000000000
         C            1.167685937144    -0.002214902610    -0.077085753477    12.000000000000
         H           -0.960088062856     0.422050097390    -1.276376753477     1.007825032230
         H           -3.184558062856    -0.595109902610    -0.683028753477     1.007825032230
         H           -1.937979062856    -1.839440902610    -0.916288753477     1.007825032230
         H           -2.431757062856    -1.375097902610     0.724646246523     1.007825032230
         H           -2.447774062856     1.731578097390     0.279607246523     1.007825032230
         H           -0.725937062856     1.988226097390     0.614639246523     1.007825032230
         H           -1.685167062856     0.904051097390     1.655038246523     1.007825032230
         H            2.987284937144    -0.263336902610     0.219579246523     1.007825032230

  Basis Set: AUG-CC-PVTZ
    Blend: AUG-CC-PVTZ
  Basis Set: (AUG-CC-PVTZ AUX)
    Blend: AUG-CC-PVTZ-JKFIT
	 Reference Energy          =    -380.8997478566902259 [Eh]
	 Singles Energy            =      -0.0000000000000000 [Eh]
	 Same-Spin Energy          =      -0.3680362466132031 [Eh]
	 Opposite-Spin Energy      =      -1.1628862685525152 [Eh]
	 Correlation Energy        =      -1.5309225151657184 [Eh]
	 Total Energy              =    -382.4306703718559675 [Eh]

	 ================> DF-SCS-MP2 Energies <==================
	-----------------------------------------------------------
	 SCS Same-Spin Scale       =       0.3333333333333333 [-]
	 SCS Opposite-Spin Scale   =       1.2000000000000000 [-]
	 SCS Same-Spin Energy      =      -0.1226787488710677 [Eh]
	 SCS Opposite-Spin Energy  =      -1.3954635222630183 [Eh]
	 SCS Correlation Energy    =      -1.5181422711340860 [Eh]
	 SCS Total Energy          =    -382.4178901278243075 [Eh]
	-----------------------------------------------------------

  Dipole Moment: [D]
     X:    -1.0217      Y:    -0.0555      Z:     0.0723     Total:     1.0257

*** Psi4 exiting successfully. Buy a developer a beer!
