                               Psi4 1.4a3.dev225

  ==> Input File <==

--------------------------------------------------------------------------
#psi4
#
memory 32 gb

molecule  {
0 1
  O        0.1020250    -0.5936610     0.2432790
  O        2.2583290    -0.7266490     0.4785580
  O        1.4190320     0.9870310    -0.7687790
  C       -1.0945380     0.0672860    -0.2723740
  C       -2.1607855    -1.0001717    -0.3999309
  C       -1.4377530     1.2430580     0.6217300
  C        1.2597240    -0.0090520    -0.0847670
  H       -0.8680500     0.4152130    -1.2840580
  H       -3.0925200    -0.6019470    -0.6907100
  H       -1.8459410    -1.8462780    -0.9239700
  H       -2.3397190    -1.3819350     0.7169650
  H       -2.3557360     1.7247410     0.2719260
  H       -0.6338990     1.9813890     0.6069580
  H       -1.5931290     0.8972140     1.6473570
  H        3.0793230    -0.2701740     0.2118980
units angstrom
no_reorient  #important for SAPT in psi4, default
symmetry c1  #important for SAPT in psi4, default
}

set PROPERTIES_ORIGIN ["COM"]
properties('MP2/aug-cc-pvtz', properties = ['dipole'])
--------------------------------------------------------------------------

    Molecular point group: c1
  Charge       = 0
  Multiplicity = 1
  Basis Set: AUG-CC-PVTZ
    Blend: AUG-CC-PVTZ
  Basis Set: (AUG-CC-PVTZ AUX)
    Blend: AUG-CC-PVTZ-JKFIT

    Orbital Energies [Eh]
    ---------------------

    Doubly Occupied:

       1A    -20.623053     2A    -20.613585     3A    -20.551736
       4A    -11.441447     5A    -11.301771     6A    -11.228924
       7A    -11.224895     8A     -1.505407     9A     -1.400860
      10A     -1.363948    11A     -1.076118    12A     -0.954344
      13A     -0.886513    14A     -0.787828    15A     -0.746848
      16A     -0.715456    17A     -0.686779    18A     -0.638868
      19A     -0.631050    20A     -0.602552    21A     -0.577788
      22A     -0.556676    23A     -0.537872    24A     -0.528457
      25A     -0.505491    26A     -0.477973    27A     -0.474402
      28A     -0.463349

  @DF-RHF Final Energy:  -380.88967883084547

   => Energetics <=

    Nuclear Repulsion Energy =            324.1415216720351395
    One-Electron Energy =               -1163.8544240309806810
    Two-Electron Energy =                 458.8232235281000158
    Total Energy =                       -380.8896788308454688
  Basis Set: (AUG-CC-PVTZ AUX)
    Blend: AUG-CC-PVTZ-RI
    Molecular point group: c1

    Geometry (in Angstrom), charge = 0, multiplicity = 1:

       Center              X                  Y                   Z               Mass
    ------------   -----------------  -----------------  -----------------  -----------------
         O            0.010474884246    -0.586049874203     0.260715451796    15.994914619570
         O            2.166778884246    -0.719037874203     0.495994451796    15.994914619570
         O            1.327481884246     0.994642125797    -0.751342548204    15.994914619570
         C           -1.186088115754     0.074897125797    -0.254937548204    12.000000000000
         C           -2.252335615754    -0.992560574203    -0.382494448204    12.000000000000
         C           -1.529303115754     1.250669125797     0.639166451796    12.000000000000
         C            1.168173884246    -0.001440874203    -0.067330548204    12.000000000000
         H           -0.959600115754     0.422824125797    -1.266621548204     1.007825032230
         H           -3.184070115754    -0.594335874203    -0.673273548204     1.007825032230
         H           -1.937491115754    -1.838666874203    -0.906533548204     1.007825032230
         H           -2.431269115754    -1.374323874203     0.734401451796     1.007825032230
         H           -2.447286115754     1.732352125797     0.289362451796     1.007825032230
         H           -0.725449115754     1.989000125797     0.624394451796     1.007825032230
         H           -1.684679115754     0.904825125797     1.664793451796     1.007825032230
         H            2.987772884246    -0.262562874203     0.229334451796     1.007825032230

  Basis Set: AUG-CC-PVTZ
    Blend: AUG-CC-PVTZ
  Basis Set: (AUG-CC-PVTZ AUX)
    Blend: AUG-CC-PVTZ-JKFIT
	 Reference Energy          =    -380.8896788308454688 [Eh]
	 Singles Energy            =      -0.0000000000000000 [Eh]
	 Same-Spin Energy          =      -0.3682221252079614 [Eh]
	 Opposite-Spin Energy      =      -1.1632076693057618 [Eh]
	 Correlation Energy        =      -1.5314297945137232 [Eh]
	 Total Energy              =    -382.4211086253591816 [Eh]

	 ================> DF-SCS-MP2 Energies <==================
	-----------------------------------------------------------
	 SCS Same-Spin Scale       =       0.3333333333333333 [-]
	 SCS Opposite-Spin Scale   =       1.2000000000000000 [-]
	 SCS Same-Spin Energy      =      -0.1227407084026538 [Eh]
	 SCS Opposite-Spin Energy  =      -1.3958492031669141 [Eh]
	 SCS Correlation Energy    =      -1.5185899115695678 [Eh]
	 SCS Total Energy          =    -382.4082687424150322 [Eh]
	-----------------------------------------------------------

  Dipole Moment: [D]
     X:    -0.9736      Y:    -0.0499      Z:     0.0392     Total:     0.9757

*** Psi4 exiting successfully. Buy a developer a beer!
