                               Psi4 1.4a3.dev225

  ==> Input File <==

--------------------------------------------------------------------------
#psi4
#
memory 32 gb

molecule  {
0 1
  O        0.1020250    -0.5936610     0.2432790
  O        2.2583290    -0.7266490     0.4785580
  O        1.4190320     0.9870310    -0.7687790
  C       -1.1119900     0.0844044    -0.2824111
  C       -2.1583360    -1.0099580    -0.2947280
  C       -1.4377530     1.2430580     0.6217300
  C        1.2597240    -0.0090520    -0.0847670
  H       -0.8680500     0.4152130    -1.2840580
  H       -3.0925200    -0.6019470    -0.6907100
  H       -1.8459410    -1.8462780    -0.9239700
  H       -2.3397190    -1.3819350     0.7169650
  H       -2.3557360     1.7247410     0.2719260
  H       -0.6338990     1.9813890     0.6069580
  H       -1.5931290     0.8972140     1.6473570
  H        3.0793230    -0.2701740     0.2118980
units angstrom
no_reorient  #important for SAPT in psi4, default
symmetry c1  #important for SAPT in psi4, default
}

set PROPERTIES_ORIGIN ["COM"]
properties('MP2/aug-cc-pvtz', properties = ['dipole'])
--------------------------------------------------------------------------

    Molecular point group: c1
  Charge       = 0
  Multiplicity = 1
  Basis Set: AUG-CC-PVTZ
    Blend: AUG-CC-PVTZ
  Basis Set: (AUG-CC-PVTZ AUX)
    Blend: AUG-CC-PVTZ-JKFIT

    Orbital Energies [Eh]
    ---------------------

    Doubly Occupied:

       1A    -20.621021     2A    -20.608803     3A    -20.549896
       4A    -11.438556     5A    -11.302232     6A    -11.227719
       7A    -11.224548     8A     -1.501372     9A     -1.394885
      10A     -1.361516    11A     -1.078523    12A     -0.953736
      13A     -0.880638    14A     -0.790506    15A     -0.742247
      16A     -0.713876    17A     -0.683188    18A     -0.635565
      19A     -0.627460    20A     -0.601656    21A     -0.570746
      22A     -0.554248    23A     -0.539550    24A     -0.526266
      25A     -0.504800    26A     -0.491839    27A     -0.475947
      28A     -0.465134

  @DF-RHF Final Energy:  -380.89969668533683

   => Energetics <=

    Nuclear Repulsion Energy =            324.0801489449382302
    One-Electron Energy =               -1163.8267370282001139
    Two-Electron Energy =                 458.8468913979251056
    Total Energy =                       -380.8996966853368349
  Basis Set: (AUG-CC-PVTZ AUX)
    Blend: AUG-CC-PVTZ-RI
    Molecular point group: c1

    Geometry (in Angstrom), charge = 0, multiplicity = 1:

       Center              X                  Y                   Z               Mass
    ------------   -----------------  -----------------  -----------------  -----------------
         O            0.012205154264    -0.586895500785     0.249739779041    15.994914619570
         O            2.168509154264    -0.719883500785     0.485018779041    15.994914619570
         O            1.329212154264     0.993796499215    -0.762318220959    15.994914619570
         C           -1.201809845736     0.091169899215    -0.275950320959    12.000000000000
         C           -2.248155845736    -1.003192500785    -0.288267220959    12.000000000000
         C           -1.527572845736     1.249823499215     0.628190779041    12.000000000000
         C            1.169904154264    -0.002286500785    -0.078306220959    12.000000000000
         H           -0.957869845736     0.421978499215    -1.277597220959     1.007825032230
         H           -3.182339845736    -0.595181500785    -0.684249220959     1.007825032230
         H           -1.935760845736    -1.839512500785    -0.917509220959     1.007825032230
         H           -2.429538845736    -1.375169500785     0.723425779041     1.007825032230
         H           -2.445555845736     1.731506499215     0.278386779041     1.007825032230
         H           -0.723718845736     1.988154499215     0.613418779041     1.007825032230
         H           -1.682948845736     0.903979499215     1.653817779041     1.007825032230
         H            2.989503154264    -0.263408500785     0.218358779041     1.007825032230

  Basis Set: AUG-CC-PVTZ
    Blend: AUG-CC-PVTZ
  Basis Set: (AUG-CC-PVTZ AUX)
    Blend: AUG-CC-PVTZ-JKFIT
	 Reference Energy          =    -380.8996966853368349 [Eh]
	 Singles Energy            =      -0.0000000000000000 [Eh]
	 Same-Spin Energy          =      -0.3681747083603398 [Eh]
	 Opposite-Spin Energy      =      -1.1630341085748443 [Eh]
	 Correlation Energy        =      -1.5312088169351843 [Eh]
	 Total Energy              =    -382.4309055022720258 [Eh]

	 ================> DF-SCS-MP2 Energies <==================
	-----------------------------------------------------------
	 SCS Same-Spin Scale       =       0.3333333333333333 [-]
	 SCS Opposite-Spin Scale   =       1.2000000000000000 [-]
	 SCS Same-Spin Energy      =      -0.1227249027867799 [Eh]
	 SCS Opposite-Spin Energy  =      -1.3956409302898132 [Eh]
	 SCS Correlation Energy    =      -1.5183658330765930 [Eh]
	 SCS Total Energy          =    -382.4180625184134215 [Eh]
	-----------------------------------------------------------

  Dipole Moment: [D]
     X:    -1.1019      Y:    -0.0453      Z:     0.0823     Total:     1.1059

*** Psi4 exiting successfully. Buy a developer a beer!
