                               Psi4 1.4a3.dev225

  ==> Input File <==

--------------------------------------------------------------------------
#psi4
#
memory 32 gb

molecule  {
0 1
  O        0.1020250    -0.5936610     0.2432790
  O        2.2583290    -0.7266490     0.4785580
  O        1.4190320     0.9870310    -0.7687790
  C       -1.0945380     0.0672860    -0.2723740
  C       -2.0880784    -0.9388124    -0.2932517
  C       -1.4377530     1.2430580     0.6217300
  C        1.2597240    -0.0090520    -0.0847670
  H       -0.8680500     0.4152130    -1.2840580
  H       -3.0925200    -0.6019470    -0.6907100
  H       -1.8459410    -1.8462780    -0.9239700
  H       -2.3397190    -1.3819350     0.7169650
  H       -2.3557360     1.7247410     0.2719260
  H       -0.6338990     1.9813890     0.6069580
  H       -1.5931290     0.8972140     1.6473570
  H        3.0793230    -0.2701740     0.2118980
units angstrom
no_reorient  #important for SAPT in psi4, default
symmetry c1  #important for SAPT in psi4, default
}

set PROPERTIES_ORIGIN ["COM"]
properties('MP2/aug-cc-pvtz', properties = ['dipole'])
--------------------------------------------------------------------------

    Molecular point group: c1
  Charge       = 0
  Multiplicity = 1
  Basis Set: AUG-CC-PVTZ
    Blend: AUG-CC-PVTZ
  Basis Set: (AUG-CC-PVTZ AUX)
    Blend: AUG-CC-PVTZ-JKFIT

    Orbital Energies [Eh]
    ---------------------

    Doubly Occupied:

       1A    -20.622864     2A    -20.612571     3A    -20.551975
       4A    -11.441130     5A    -11.296633     6A    -11.231339
       7A    -11.223908     8A     -1.505634     9A     -1.401814
      10A     -1.364289    11A     -1.093082    12A     -0.952684
      13A     -0.883080    14A     -0.789869    15A     -0.747837
      16A     -0.716046    17A     -0.687156    18A     -0.638511
      19A     -0.633332    20A     -0.606860    21A     -0.574305
      22A     -0.547014    23A     -0.536690    24A     -0.519997
      25A     -0.508996    26A     -0.485897    27A     -0.477763
      28A     -0.461775

  @DF-RHF Final Energy:  -380.88850066502522

   => Energetics <=

    Nuclear Repulsion Energy =            326.1228670517901946
    One-Electron Energy =               -1167.7966348389511495
    Two-Electron Energy =                 460.7852671221357355
    Total Energy =                       -380.8885006650252194
  Basis Set: (AUG-CC-PVTZ AUX)
    Blend: AUG-CC-PVTZ-RI
    Molecular point group: c1

    Geometry (in Angstrom), charge = 0, multiplicity = 1:

       Center              X                  Y                   Z               Mass
    ------------   -----------------  -----------------  -----------------  -----------------
         O            0.002089420807    -0.593126571895     0.248411914297    15.994914619570
         O            2.158393420807    -0.726114571895     0.483690914297    15.994914619570
         O            1.319096420807     0.987565428105    -0.763646085703    15.994914619570
         C           -1.194473579193     0.067820428105    -0.267241085703    12.000000000000
         C           -2.188013979193    -0.938277971895    -0.288118785703    12.000000000000
         C           -1.537688579193     1.243592428105     0.626862914297    12.000000000000
         C            1.159788420807    -0.008517571895    -0.079634085703    12.000000000000
         H           -0.967985579193     0.415747428105    -1.278925085703     1.007825032230
         H           -3.192455579193    -0.601412571895    -0.685577085703     1.007825032230
         H           -1.945876579193    -1.845743571895    -0.918837085703     1.007825032230
         H           -2.439654579193    -1.381400571895     0.722097914297     1.007825032230
         H           -2.455671579193     1.725275428105     0.277058914297     1.007825032230
         H           -0.733834579193     1.981923428105     0.612090914297     1.007825032230
         H           -1.693064579193     0.897748428105     1.652489914297     1.007825032230
         H            2.979387420807    -0.269639571895     0.217030914297     1.007825032230

  Basis Set: AUG-CC-PVTZ
    Blend: AUG-CC-PVTZ
  Basis Set: (AUG-CC-PVTZ AUX)
    Blend: AUG-CC-PVTZ-JKFIT
	 Reference Energy          =    -380.8885006650252194 [Eh]
	 Singles Energy            =      -0.0000000000000000 [Eh]
	 Same-Spin Energy          =      -0.3692029274872621 [Eh]
	 Opposite-Spin Energy      =      -1.1640576374174247 [Eh]
	 Correlation Energy        =      -1.5332605649046869 [Eh]
	 Total Energy              =    -382.4217612299299276 [Eh]

	 ================> DF-SCS-MP2 Energies <==================
	-----------------------------------------------------------
	 SCS Same-Spin Scale       =       0.3333333333333333 [-]
	 SCS Opposite-Spin Scale   =       1.2000000000000000 [-]
	 SCS Same-Spin Energy      =      -0.1230676424957540 [Eh]
	 SCS Opposite-Spin Energy  =      -1.3968691649009097 [Eh]
	 SCS Correlation Energy    =      -1.5199368073966637 [Eh]
	 SCS Total Energy          =    -382.4084374724218947 [Eh]
	-----------------------------------------------------------

  Dipole Moment: [D]
     X:    -1.0247      Y:    -0.0942      Z:     0.0766     Total:     1.0319

*** Psi4 exiting successfully. Buy a developer a beer!
