                               Psi4 1.4a3.dev225

  ==> Input File <==

--------------------------------------------------------------------------
#psi4
#
memory 32 gb

molecule  {
0 1
  O        0.1020250    -0.5936610     0.2432790
  O        2.2583290    -0.7266490     0.4785580
  O        1.4190320     0.9870310    -0.7687790
  C       -1.0945380     0.0672860    -0.2723740
  C       -2.1934648    -1.0455308    -0.2954662
  C       -1.4377530     1.2430580     0.6217300
  C        1.2597240    -0.0090520    -0.0847670
  H       -0.8680500     0.4152130    -1.2840580
  H       -3.0925200    -0.6019470    -0.6907100
  H       -1.8459410    -1.8462780    -0.9239700
  H       -2.3397190    -1.3819350     0.7169650
  H       -2.3557360     1.7247410     0.2719260
  H       -0.6338990     1.9813890     0.6069580
  H       -1.5931290     0.8972140     1.6473570
  H        3.0793230    -0.2701740     0.2118980
units angstrom
no_reorient  #important for SAPT in psi4, default
symmetry c1  #important for SAPT in psi4, default
}

set PROPERTIES_ORIGIN ["COM"]
properties('MP2/aug-cc-pvtz', properties = ['dipole'])
--------------------------------------------------------------------------

    Molecular point group: c1
  Charge       = 0
  Multiplicity = 1
  Basis Set: AUG-CC-PVTZ
    Blend: AUG-CC-PVTZ
  Basis Set: (AUG-CC-PVTZ AUX)
    Blend: AUG-CC-PVTZ-JKFIT

    Orbital Energies [Eh]
    ---------------------

    Doubly Occupied:

       1A    -20.622644     2A    -20.612407     3A    -20.551621
       4A    -11.440808     5A    -11.302941     6A    -11.225430
       7A    -11.223588     8A     -1.504840     9A     -1.400040
      10A     -1.363688    11A     -1.069613    12A     -0.951923
      13A     -0.886474    14A     -0.787752    15A     -0.745453
      16A     -0.715179    17A     -0.685948    18A     -0.636521
      19A     -0.624075    20A     -0.601707    21A     -0.570559
      22A     -0.558867    23A     -0.548600    24A     -0.529075
      25A     -0.498989    26A     -0.485685    27A     -0.477604
      28A     -0.462023

  @DF-RHF Final Energy:  -380.89881172013452

   => Energetics <=

    Nuclear Repulsion Energy =            323.5528718528715899
    One-Electron Energy =               -1162.7352602568478233
    Two-Electron Energy =                 458.2835766838417157
    Total Energy =                       -380.8988117201345176
  Basis Set: (AUG-CC-PVTZ AUX)
    Blend: AUG-CC-PVTZ-RI
    Molecular point group: c1

    Geometry (in Angstrom), charge = 0, multiplicity = 1:

       Center              X                  Y                   Z               Mass
    ------------   -----------------  -----------------  -----------------  -----------------
         O            0.014243856951    -0.580818513377     0.248667317260    15.994914619570
         O            2.170547856951    -0.713806513377     0.483946317260    15.994914619570
         O            1.331250856951     0.999873486623    -0.763390682740    15.994914619570
         C           -1.182319143049     0.080128486623    -0.266985682740    12.000000000000
         C           -2.281245943049    -1.032688313377    -0.290077882740    12.000000000000
         C           -1.525534143049     1.255900486623     0.627118317260    12.000000000000
         C            1.171942856951     0.003790486623    -0.079378682740    12.000000000000
         H           -0.955831143049     0.428055486623    -1.278669682740     1.007825032230
         H           -3.180301143049    -0.589104513377    -0.685321682740     1.007825032230
         H           -1.933722143049    -1.833435513377    -0.918581682740     1.007825032230
         H           -2.427500143049    -1.369092513377     0.722353317260     1.007825032230
         H           -2.443517143049     1.737583486623     0.277314317260     1.007825032230
         H           -0.721680143049     1.994231486623     0.612346317260     1.007825032230
         H           -1.680910143049     0.910056486623     1.652745317260     1.007825032230
         H            2.991541856951    -0.257331513377     0.217286317260     1.007825032230

  Basis Set: AUG-CC-PVTZ
    Blend: AUG-CC-PVTZ
  Basis Set: (AUG-CC-PVTZ AUX)
    Blend: AUG-CC-PVTZ-JKFIT
	 Reference Energy          =    -380.8988117201345176 [Eh]
	 Singles Energy            =      -0.0000000000000000 [Eh]
	 Same-Spin Energy          =      -0.3678455012589496 [Eh]
	 Opposite-Spin Energy      =      -1.1626390009724212 [Eh]
	 Correlation Energy        =      -1.5304845022313709 [Eh]
	 Total Energy              =    -382.4292962223659060 [Eh]

	 ================> DF-SCS-MP2 Energies <==================
	-----------------------------------------------------------
	 SCS Same-Spin Scale       =       0.3333333333333333 [-]
	 SCS Opposite-Spin Scale   =       1.2000000000000000 [-]
	 SCS Same-Spin Energy      =      -0.1226151670863165 [Eh]
	 SCS Opposite-Spin Energy  =      -1.3951668011669054 [Eh]
	 SCS Correlation Energy    =      -1.5177819682532219 [Eh]
	 SCS Total Energy          =    -382.4165936883877635 [Eh]
	-----------------------------------------------------------

  Dipole Moment: [D]
     X:    -0.9740      Y:    -0.0653      Z:     0.0945     Total:     0.9807

*** Psi4 exiting successfully. Buy a developer a beer!
