                               Psi4 1.4a3.dev225

  ==> Input File <==

--------------------------------------------------------------------------
#psi4
#
memory 32 gb

molecule  {
0 1
  O        0.1020250    -0.5936610     0.2432790
  O        2.2583290    -0.7266490     0.4785580
  O        1.4190320     0.9870310    -0.7687790
  C       -1.0945380     0.0672860    -0.2723740
  C       -2.1583360    -1.0099580    -0.2947280
  C       -1.3924878     1.0879903     0.5038103
  C        1.2597240    -0.0090520    -0.0847670
  H       -0.8680500     0.4152130    -1.2840580
  H       -3.0925200    -0.6019470    -0.6907100
  H       -1.8459410    -1.8462780    -0.9239700
  H       -2.3397190    -1.3819350     0.7169650
  H       -2.3557360     1.7247410     0.2719260
  H       -0.6338990     1.9813890     0.6069580
  H       -1.5931290     0.8972140     1.6473570
  H        3.0793230    -0.2701740     0.2118980
units angstrom
no_reorient  #important for SAPT in psi4, default
symmetry c1  #important for SAPT in psi4, default
}

set PROPERTIES_ORIGIN ["COM"]
properties('MP2/aug-cc-pvtz', properties = ['dipole'])
--------------------------------------------------------------------------

    Molecular point group: c1
  Charge       = 0
  Multiplicity = 1
  Basis Set: AUG-CC-PVTZ
    Blend: AUG-CC-PVTZ
  Basis Set: (AUG-CC-PVTZ AUX)
    Blend: AUG-CC-PVTZ-JKFIT

    Orbital Energies [Eh]
    ---------------------

    Doubly Occupied:

       1A    -20.622552     2A    -20.612016     3A    -20.551407
       4A    -11.441001     5A    -11.290910     6A    -11.234957
       7A    -11.227420     8A     -1.505946     9A     -1.402973
      10A     -1.363968    11A     -1.113537    12A     -0.955531
      13A     -0.883498    14A     -0.788819    15A     -0.748847
      16A     -0.716330    17A     -0.691929    18A     -0.645592
      19A     -0.639550    20A     -0.609232    21A     -0.572011
      22A     -0.551991    23A     -0.542970    24A     -0.513290
      25A     -0.491552    26A     -0.479821    27A     -0.475132
      28A     -0.455687

  @DF-RHF Final Energy:  -380.84889364164951

   => Energetics <=

    Nuclear Repulsion Energy =            327.9326477181131736
    One-Electron Energy =               -1171.3061433424929874
    Two-Electron Energy =                 462.5246019827302462
    Total Energy =                       -380.8488936416495108
  Basis Set: (AUG-CC-PVTZ AUX)
    Blend: AUG-CC-PVTZ-RI
    Molecular point group: c1

    Geometry (in Angstrom), charge = 0, multiplicity = 1:

       Center              X                  Y                   Z               Mass
    ------------   -----------------  -----------------  -----------------  -----------------
         O            0.004971847096    -0.567036914124     0.262182107205    15.994914619570
         O            2.161275847096    -0.700024914124     0.497461107205    15.994914619570
         O            1.321978847096     1.013655085876    -0.749875892795    15.994914619570
         C           -1.191591152904     0.093910085876    -0.253470892795    12.000000000000
         C           -2.255389152904    -0.983333914124    -0.275824892795    12.000000000000
         C           -1.489540952904     1.114614385876     0.522713407205    12.000000000000
         C            1.162670847096     0.017572085876    -0.065863892795    12.000000000000
         H           -0.965103152904     0.441837085876    -1.265154892795     1.007825032230
         H           -3.189573152904    -0.575322914124    -0.671806892795     1.007825032230
         H           -1.942994152904    -1.819653914124    -0.905066892795     1.007825032230
         H           -2.436772152904    -1.355310914124     0.735868107205     1.007825032230
         H           -2.452789152904     1.751365085876     0.290829107205     1.007825032230
         H           -0.730952152904     2.008013085876     0.625861107205     1.007825032230
         H           -1.690182152904     0.923838085876     1.666260107205     1.007825032230
         H            2.982269847096    -0.243549914124     0.230801107205     1.007825032230

  Basis Set: AUG-CC-PVTZ
    Blend: AUG-CC-PVTZ
  Basis Set: (AUG-CC-PVTZ AUX)
    Blend: AUG-CC-PVTZ-JKFIT
	 Reference Energy          =    -380.8488936416495108 [Eh]
	 Singles Energy            =      -0.0000000000000000 [Eh]
	 Same-Spin Energy          =      -0.3713458749162937 [Eh]
	 Opposite-Spin Energy      =      -1.1670151363147601 [Eh]
	 Correlation Energy        =      -1.5383610112310537 [Eh]
	 Total Energy              =    -382.3872546528805856 [Eh]

	 ================> DF-SCS-MP2 Energies <==================
	-----------------------------------------------------------
	 SCS Same-Spin Scale       =       0.3333333333333333 [-]
	 SCS Opposite-Spin Scale   =       1.2000000000000000 [-]
	 SCS Same-Spin Energy      =      -0.1237819583054312 [Eh]
	 SCS Opposite-Spin Energy  =      -1.4004181635777120 [Eh]
	 SCS Correlation Energy    =      -1.5242001218831431 [Eh]
	 SCS Total Energy          =    -382.3730937635326654 [Eh]
	-----------------------------------------------------------

  Dipole Moment: [D]
     X:    -1.0351      Y:     0.0238      Z:     0.1079     Total:     1.0410

*** Psi4 exiting successfully. Buy a developer a beer!
