                               Psi4 1.4a3.dev225

  ==> Input File <==

--------------------------------------------------------------------------
#psi4
#
memory 32 gb

molecule  {
0 1
  O        0.1020250    -0.5936610     0.2432790
  O        2.2583290    -0.7266490     0.4785580
  O        1.4190320     0.9870310    -0.7687790
  C       -1.0945380     0.0672860    -0.2723740
  C       -2.1583360    -1.0099580    -0.2947280
  C       -1.4332265     1.2275512     0.6099380
  C        1.2597240    -0.0090520    -0.0847670
  H       -0.8680500     0.4152130    -1.2840580
  H       -3.0925200    -0.6019470    -0.6907100
  H       -1.8459410    -1.8462780    -0.9239700
  H       -2.3397190    -1.3819350     0.7169650
  H       -2.3557360     1.7247410     0.2719260
  H       -0.6338990     1.9813890     0.6069580
  H       -1.5931290     0.8972140     1.6473570
  H        3.0793230    -0.2701740     0.2118980
units angstrom
no_reorient  #important for SAPT in psi4, default
symmetry c1  #important for SAPT in psi4, default
}

set PROPERTIES_ORIGIN ["COM"]
properties('MP2/aug-cc-pvtz', properties = ['dipole'])
--------------------------------------------------------------------------

    Molecular point group: c1
  Charge       = 0
  Multiplicity = 1
  Basis Set: AUG-CC-PVTZ
    Blend: AUG-CC-PVTZ
  Basis Set: (AUG-CC-PVTZ AUX)
    Blend: AUG-CC-PVTZ-JKFIT

    Orbital Energies [Eh]
    ---------------------

    Doubly Occupied:

       1A    -20.622693     2A    -20.612368     3A    -20.551696
       4A    -11.440917     5A    -11.300356     6A    -11.226720
       7A    -11.224348     8A     -1.505126     9A     -1.400707
      10A     -1.363868    11A     -1.078920    12A     -0.951927
      13A     -0.885292    14A     -0.788701    15A     -0.746362
      16A     -0.715502    17A     -0.686693    18A     -0.637133
      19A     -0.627345    20A     -0.603500    21A     -0.570393
      22A     -0.551769    23A     -0.543995    24A     -0.524500
      25A     -0.503844    26A     -0.487278    27A     -0.477837
      28A     -0.465576

  @DF-RHF Final Energy:  -380.90001239201922

   => Energetics <=

    Nuclear Repulsion Energy =            324.7113107530180969
    One-Electron Energy =               -1165.0319144048878570
    Two-Electron Energy =                 459.4205912598505392
    Total Energy =                       -380.9000123920192209
  Basis Set: (AUG-CC-PVTZ AUX)
    Blend: AUG-CC-PVTZ-RI
    Molecular point group: c1

    Geometry (in Angstrom), charge = 0, multiplicity = 1:

       Center              X                  Y                   Z               Mass
    ------------   -----------------  -----------------  -----------------  -----------------
         O            0.009670327429    -0.583132767547     0.249942175366    15.994914619570
         O            2.165974327429    -0.716120767547     0.485221175366    15.994914619570
         O            1.326677327429     0.997559232453    -0.762115824634    15.994914619570
         C           -1.186892672571     0.077814232453    -0.265710824634    12.000000000000
         C           -2.250690672571    -0.999429767547    -0.288064824634    12.000000000000
         C           -1.525581172571     1.238079432453     0.616601175366    12.000000000000
         C            1.167369327429     0.001476232453    -0.078103824634    12.000000000000
         H           -0.960404672571     0.425741232453    -1.277394824634     1.007825032230
         H           -3.184874672571    -0.591418767547    -0.684046824634     1.007825032230
         H           -1.938295672571    -1.835749767547    -0.917306824634     1.007825032230
         H           -2.432073672571    -1.371406767547     0.723628175366     1.007825032230
         H           -2.448090672571     1.735269232453     0.278589175366     1.007825032230
         H           -0.726253672571     1.991917232453     0.613621175366     1.007825032230
         H           -1.685483672571     0.907742232453     1.654020175366     1.007825032230
         H            2.986968327429    -0.259645767547     0.218561175366     1.007825032230

  Basis Set: AUG-CC-PVTZ
    Blend: AUG-CC-PVTZ
  Basis Set: (AUG-CC-PVTZ AUX)
    Blend: AUG-CC-PVTZ-JKFIT
	 Reference Energy          =    -380.9000123920192209 [Eh]
	 Singles Energy            =      -0.0000000000000000 [Eh]
	 Same-Spin Energy          =      -0.3682587825434228 [Eh]
	 Opposite-Spin Energy      =      -1.1629089445123015 [Eh]
	 Correlation Energy        =      -1.5311677270557245 [Eh]
	 Total Energy              =    -382.4311801190749520 [Eh]

	 ================> DF-SCS-MP2 Energies <==================
	-----------------------------------------------------------
	 SCS Same-Spin Scale       =       0.3333333333333333 [-]
	 SCS Opposite-Spin Scale   =       1.2000000000000000 [-]
	 SCS Same-Spin Energy      =      -0.1227529275144743 [Eh]
	 SCS Opposite-Spin Energy  =      -1.3954907334147617 [Eh]
	 SCS Correlation Energy    =      -1.5182436609292360 [Eh]
	 SCS Total Energy          =    -382.4182560529484363 [Eh]
	-----------------------------------------------------------

  Dipole Moment: [D]
     X:    -0.9965      Y:    -0.0666      Z:     0.0930     Total:     1.0030

*** Psi4 exiting successfully. Buy a developer a beer!
