                               Psi4 1.4a3.dev225

  ==> Input File <==

--------------------------------------------------------------------------
#psi4
#
memory 32 gb

molecule  {
0 1
  O        0.1020250    -0.5936610     0.2432790
  O        2.2583290    -0.7266490     0.4785580
  O        1.4190320     0.9870310    -0.7687790
  C       -1.0945380     0.0672860    -0.2723740
  C       -2.1600620    -0.9933244    -0.4523312
  C       -1.4377530     1.2430580     0.6217300
  C        1.2597240    -0.0090520    -0.0847670
  H       -0.8680500     0.4152130    -1.2840580
  H       -3.0925200    -0.6019470    -0.6907100
  H       -1.8459410    -1.8462780    -0.9239700
  H       -2.3397190    -1.3819350     0.7169650
  H       -2.3557360     1.7247410     0.2719260
  H       -0.6338990     1.9813890     0.6069580
  H       -1.5931290     0.8972140     1.6473570
  H        3.0793230    -0.2701740     0.2118980
units angstrom
no_reorient  #important for SAPT in psi4, default
symmetry c1  #important for SAPT in psi4, default
}

set PROPERTIES_ORIGIN ["COM"]
properties('MP2/aug-cc-pvtz', properties = ['dipole'])
--------------------------------------------------------------------------

    Molecular point group: c1
  Charge       = 0
  Multiplicity = 1
  Basis Set: AUG-CC-PVTZ
    Blend: AUG-CC-PVTZ
  Basis Set: (AUG-CC-PVTZ AUX)
    Blend: AUG-CC-PVTZ-JKFIT

    Orbital Energies [Eh]
    ---------------------

    Doubly Occupied:

       1A    -20.623304     2A    -20.614307     3A    -20.551854
       4A    -11.441811     5A    -11.302693     6A    -11.231472
       7A    -11.225682     8A     -1.505698     9A     -1.401165
      10A     -1.364104    11A     -1.076556    12A     -0.956026
      13A     -0.887318    14A     -0.788371    15A     -0.747204
      16A     -0.715678    17A     -0.687270    18A     -0.643250
      19A     -0.631799    20A     -0.603726    21A     -0.582035
      22A     -0.560235    23A     -0.537592    24A     -0.524046
      25A     -0.506481    26A     -0.478104    27A     -0.471583
      28A     -0.455342

  @DF-RHF Final Energy:  -380.87744373985413

   => Energetics <=

    Nuclear Repulsion Energy =            324.0323573170734903
    One-Electron Energy =               -1163.5901911869066225
    Two-Electron Energy =                 458.6803901299789459
    Total Energy =                       -380.8774437398541295
  Basis Set: (AUG-CC-PVTZ AUX)
    Blend: AUG-CC-PVTZ-RI
    Molecular point group: c1

    Geometry (in Angstrom), charge = 0, multiplicity = 1:

       Center              X                  Y                   Z               Mass
    ------------   -----------------  -----------------  -----------------  -----------------
         O            0.010391441462    -0.586839587777     0.266758889092    15.994914619570
         O            2.166695441462    -0.719827587777     0.502037889092    15.994914619570
         O            1.327398441462     0.993852412223    -0.745299110908    15.994914619570
         C           -1.186171558538     0.074107412223    -0.248894110908    12.000000000000
         C           -2.251695558538    -0.986502987777    -0.428851310908    12.000000000000
         C           -1.529386558538     1.249879412223     0.645209889092    12.000000000000
         C            1.168090441462    -0.002230587777    -0.061287110908    12.000000000000
         H           -0.959683558538     0.422034412223    -1.260578110908     1.007825032230
         H           -3.184153558538    -0.595125587777    -0.667230110908     1.007825032230
         H           -1.937574558538    -1.839456587777    -0.900490110908     1.007825032230
         H           -2.431352558538    -1.375113587777     0.740444889092     1.007825032230
         H           -2.447369558538     1.731562412223     0.295405889092     1.007825032230
         H           -0.725532558538     1.988210412223     0.630437889092     1.007825032230
         H           -1.684762558538     0.904035412223     1.670836889092     1.007825032230
         H            2.987689441462    -0.263352587777     0.235377889092     1.007825032230

  Basis Set: AUG-CC-PVTZ
    Blend: AUG-CC-PVTZ
  Basis Set: (AUG-CC-PVTZ AUX)
    Blend: AUG-CC-PVTZ-JKFIT
	 Reference Energy          =    -380.8774437398541295 [Eh]
	 Singles Energy            =      -0.0000000000000000 [Eh]
	 Same-Spin Energy          =      -0.3684143357730436 [Eh]
	 Opposite-Spin Energy      =      -1.1638136313483531 [Eh]
	 Correlation Energy        =      -1.5322279671213968 [Eh]
	 Total Energy              =    -382.4096717069755300 [Eh]

	 ================> DF-SCS-MP2 Energies <==================
	-----------------------------------------------------------
	 SCS Same-Spin Scale       =       0.3333333333333333 [-]
	 SCS Opposite-Spin Scale   =       1.2000000000000000 [-]
	 SCS Same-Spin Energy      =      -0.1228047785910145 [Eh]
	 SCS Opposite-Spin Energy  =      -1.3965763576180237 [Eh]
	 SCS Correlation Energy    =      -1.5193811362090381 [Eh]
	 SCS Total Energy          =    -382.3968248760631923 [Eh]
	-----------------------------------------------------------

  Dipole Moment: [D]
     X:    -0.9557      Y:    -0.0271      Z:     0.0101     Total:     0.9561

*** Psi4 exiting successfully. Buy a developer a beer!
