                               Psi4 1.4a3.dev225

  ==> Input File <==

--------------------------------------------------------------------------
#psi4
#
memory 32 gb

molecule  {
0 1
  O        0.1020250    -0.5936610     0.2432790
  O        2.2583290    -0.7266490     0.4785580
  O        1.4190320     0.9870310    -0.7687790
  C       -1.0945380     0.0672860    -0.2723740
  C       -2.1583360    -1.0099580    -0.2947280
  C       -1.4377530     1.2430580     0.6217300
  C        1.2597240    -0.0090520    -0.0847670
  H       -0.8680500     0.4152130    -1.2840580
  H       -3.0925200    -0.6019470    -0.6907100
  H       -1.8459410    -1.8462780    -0.9239700
  H       -2.3397190    -1.3819350     0.7169650
  H       -2.5235407     1.8127913     0.2079828
  H       -0.6338990     1.9813890     0.6069580
  H       -1.5931290     0.8972140     1.6473570
  H        3.0793230    -0.2701740     0.2118980
units angstrom
no_reorient  #important for SAPT in psi4, default
symmetry c1  #important for SAPT in psi4, default
}

set PROPERTIES_ORIGIN ["COM"]
properties('MP2/aug-cc-pvtz', properties = ['dipole'])
--------------------------------------------------------------------------

    Molecular point group: c1
  Charge       = 0
  Multiplicity = 1
  Basis Set: AUG-CC-PVTZ
    Blend: AUG-CC-PVTZ
  Basis Set: (AUG-CC-PVTZ AUX)
    Blend: AUG-CC-PVTZ-JKFIT

    Orbital Energies [Eh]
    ---------------------

    Doubly Occupied:

       1A    -20.624057     2A    -20.614957     3A    -20.553270
       4A    -11.442551     5A    -11.303403     6A    -11.246698
       7A    -11.226751     8A     -1.506836     9A     -1.402409
      10A     -1.365427    11A     -1.074570    12A     -0.944687
      13A     -0.884103    14A     -0.787777    15A     -0.747734
      16A     -0.716780    17A     -0.684734    18A     -0.636865
      19A     -0.627956    20A     -0.597718    21A     -0.573135
      22A     -0.551345    23A     -0.541224    24A     -0.506858
      25A     -0.499734    26A     -0.489701    27A     -0.478423
      28A     -0.465070

  @DF-RHF Final Energy:  -380.88053449595151

   => Energetics <=

    Nuclear Repulsion Energy =            323.5561628917003532
    One-Electron Energy =               -1162.6838478625925291
    Two-Electron Energy =                 458.2471504749407245
    Total Energy =                       -380.8805344959515082
  Basis Set: (AUG-CC-PVTZ AUX)
    Blend: AUG-CC-PVTZ-RI
    Molecular point group: c1

    Geometry (in Angstrom), charge = 0, multiplicity = 1:

       Center              X                  Y                   Z               Mass
    ------------   -----------------  -----------------  -----------------  -----------------
         O            0.011817770778    -0.585774073760     0.249201546731    15.994914619570
         O            2.168121770778    -0.718762073760     0.484480546731    15.994914619570
         O            1.328824770778     0.994917926240    -0.762856453269    15.994914619570
         C           -1.184745229222     0.075172926240    -0.266451453269    12.000000000000
         C           -2.248543229222    -1.002071073760    -0.288805453269    12.000000000000
         C           -1.527960229222     1.250944926240     0.627652546731    12.000000000000
         C            1.169516770778    -0.001165073760    -0.078844453269    12.000000000000
         H           -0.958257229222     0.423099926240    -1.278135453269     1.007825032230
         H           -3.182727229222    -0.594060073760    -0.684787453269     1.007825032230
         H           -1.936148229222    -1.838391073760    -0.918047453269     1.007825032230
         H           -2.429926229222    -1.374048073760     0.722887546731     1.007825032230
         H           -2.613747929222     1.820678226240     0.213905346731     1.007825032230
         H           -0.724106229222     1.989275926240     0.612880546731     1.007825032230
         H           -1.683336229222     0.905100926240     1.653279546731     1.007825032230
         H            2.989115770778    -0.262287073760     0.217820546731     1.007825032230

  Basis Set: AUG-CC-PVTZ
    Blend: AUG-CC-PVTZ
  Basis Set: (AUG-CC-PVTZ AUX)
    Blend: AUG-CC-PVTZ-JKFIT
	 Reference Energy          =    -380.8805344959515082 [Eh]
	 Singles Energy            =      -0.0000000000000000 [Eh]
	 Same-Spin Energy          =      -0.3680410846795289 [Eh]
	 Opposite-Spin Energy      =      -1.1643183689839807 [Eh]
	 Correlation Energy        =      -1.5323594536635095 [Eh]
	 Total Energy              =    -382.4128939496150110 [Eh]

	 ================> DF-SCS-MP2 Energies <==================
	-----------------------------------------------------------
	 SCS Same-Spin Scale       =       0.3333333333333333 [-]
	 SCS Opposite-Spin Scale   =       1.2000000000000000 [-]
	 SCS Same-Spin Energy      =      -0.1226803615598430 [Eh]
	 SCS Opposite-Spin Energy  =      -1.3971820427807768 [Eh]
	 SCS Correlation Energy    =      -1.5198624043406197 [Eh]
	 SCS Total Energy          =    -382.4003969002921508 [Eh]
	-----------------------------------------------------------

  Dipole Moment: [D]
     X:    -0.8676      Y:    -0.1420      Z:     0.1104     Total:     0.8860

*** Psi4 exiting successfully. Buy a developer a beer!
