                               Psi4 1.4a3.dev225

  ==> Input File <==

--------------------------------------------------------------------------
#psi4
#
memory 32 gb

molecule  {
0 1
  O        0.1020250    -0.5936610     0.2432790
  O        2.2583290    -0.7266490     0.4785580
  O        1.4190320     0.9870310    -0.7687790
  C       -1.0945380     0.0672860    -0.2723740
  C       -2.1583360    -1.0099580    -0.2947280
  C       -1.4377530     1.2430580     0.6217300
  C        1.2597240    -0.0090520    -0.0847670
  H       -0.8680500     0.4152130    -1.2840580
  H       -3.0925200    -0.6019470    -0.6907100
  H       -1.8459410    -1.8462780    -0.9239700
  H       -2.3397190    -1.3819350     0.7169650
  H       -2.3976872     1.7467536     0.2559402
  H       -0.6338990     1.9813890     0.6069580
  H       -1.5931290     0.8972140     1.6473570
  H        3.0793230    -0.2701740     0.2118980
units angstrom
no_reorient  #important for SAPT in psi4, default
symmetry c1  #important for SAPT in psi4, default
}

set PROPERTIES_ORIGIN ["COM"]
properties('MP2/aug-cc-pvtz', properties = ['dipole'])
--------------------------------------------------------------------------

    Molecular point group: c1
  Charge       = 0
  Multiplicity = 1
  Basis Set: AUG-CC-PVTZ
    Blend: AUG-CC-PVTZ
  Basis Set: (AUG-CC-PVTZ AUX)
    Blend: AUG-CC-PVTZ-JKFIT

    Orbital Energies [Eh]
    ---------------------

    Doubly Occupied:

       1A    -20.622999     2A    -20.612978     3A    -20.552060
       4A    -11.441265     5A    -11.301627     6A    -11.229674
       7A    -11.226693     8A     -1.505450     9A     -1.400942
      10A     -1.364202    11A     -1.075476    12A     -0.949338
      13A     -0.884958    14A     -0.788114    15A     -0.746500
      16A     -0.715721    17A     -0.685578    18A     -0.636763
      19A     -0.626347    20A     -0.601174    21A     -0.571239
      22A     -0.551888    23A     -0.542906    24A     -0.522283
      25A     -0.503705    26A     -0.488446    27A     -0.477938
      28A     -0.464103

  @DF-RHF Final Energy:  -380.89851703429525

   => Energetics <=

    Nuclear Repulsion Energy =            324.1564980219940821
    One-Electron Energy =               -1163.9292922523300149
    Two-Electron Energy =                 458.8742771960406230
    Total Energy =                       -380.8985170342952529
  Basis Set: (AUG-CC-PVTZ AUX)
    Blend: AUG-CC-PVTZ-RI
    Molecular point group: c1

    Geometry (in Angstrom), charge = 0, multiplicity = 1:

       Center              X                  Y                   Z               Mass
    ------------   -----------------  -----------------  -----------------  -----------------
         O            0.010598726614    -0.585134418345     0.248737021004    15.994914619570
         O            2.166902726614    -0.718122418345     0.484016021004    15.994914619570
         O            1.327605726614     0.995557581655    -0.763320978996    15.994914619570
         C           -1.185964273386     0.075812581655    -0.266915978996    12.000000000000
         C           -2.249762273386    -1.001431418345    -0.289269978996    12.000000000000
         C           -1.529179273386     1.251584581655     0.627188021004    12.000000000000
         C            1.168297726614    -0.000525418345    -0.079308978996    12.000000000000
         H           -0.959476273386     0.423739581655    -1.278599978996     1.007825032230
         H           -3.183946273386    -0.593420418345    -0.685251978996     1.007825032230
         H           -1.937367273386    -1.837751418345    -0.918511978996     1.007825032230
         H           -2.431145273386    -1.373408418345     0.722423021004     1.007825032230
         H           -2.489113473386     1.755280181655     0.261398221004     1.007825032230
         H           -0.725325273386     1.989915581655     0.612416021004     1.007825032230
         H           -1.684555273386     0.905740581655     1.652815021004     1.007825032230
         H            2.987896726614    -0.261647418345     0.217356021004     1.007825032230

  Basis Set: AUG-CC-PVTZ
    Blend: AUG-CC-PVTZ
  Basis Set: (AUG-CC-PVTZ AUX)
    Blend: AUG-CC-PVTZ-JKFIT
	 Reference Energy          =    -380.8985170342952529 [Eh]
	 Singles Energy            =      -0.0000000000000000 [Eh]
	 Same-Spin Energy          =      -0.3680854594346243 [Eh]
	 Opposite-Spin Energy      =      -1.1630945106676425 [Eh]
	 Correlation Energy        =      -1.5311799701022668 [Eh]
	 Total Energy              =    -382.4296970043974966 [Eh]

	 ================> DF-SCS-MP2 Energies <==================
	-----------------------------------------------------------
	 SCS Same-Spin Scale       =       0.3333333333333333 [-]
	 SCS Opposite-Spin Scale   =       1.2000000000000000 [-]
	 SCS Same-Spin Energy      =      -0.1226951531448748 [Eh]
	 SCS Opposite-Spin Energy  =      -1.3957134128011710 [Eh]
	 SCS Correlation Energy    =      -1.5184085659460458 [Eh]
	 SCS Total Energy          =    -382.4169256002413135 [Eh]
	-----------------------------------------------------------

  Dipole Moment: [D]
     X:    -0.9653      Y:    -0.0911      Z:     0.0937     Total:     0.9741

*** Psi4 exiting successfully. Buy a developer a beer!
