                               Psi4 1.4a3.dev225

  ==> Input File <==

--------------------------------------------------------------------------
#psi4
#
memory 32 gb

molecule  {
0 1
  O        0.1020250    -0.5936610     0.2432790
  O        2.2583290    -0.7266490     0.4785580
  O        1.4190320     0.9870310    -0.7687790
  C       -1.0945380     0.0672860    -0.2723740
  C       -2.1723875    -1.0241871    -0.2950233
  C       -1.4377530     1.2430580     0.6217300
  C        1.2597240    -0.0090520    -0.0847670
  H       -0.8680500     0.4152130    -1.2840580
  H       -3.0925200    -0.6019470    -0.6907100
  H       -1.8459410    -1.8462780    -0.9239700
  H       -2.3397190    -1.3819350     0.7169650
  H       -2.3557360     1.7247410     0.2719260
  H       -0.6338990     1.9813890     0.6069580
  H       -1.5931290     0.8972140     1.6473570
  H        3.0793230    -0.2701740     0.2118980
units angstrom
no_reorient  #important for SAPT in psi4, default
symmetry c1  #important for SAPT in psi4, default
}

set PROPERTIES_ORIGIN ["COM"]
properties('MP2/aug-cc-pvtz', properties = ['dipole'])
--------------------------------------------------------------------------

    Molecular point group: c1
  Charge       = 0
  Multiplicity = 1
  Basis Set: AUG-CC-PVTZ
    Blend: AUG-CC-PVTZ
  Basis Set: (AUG-CC-PVTZ AUX)
    Blend: AUG-CC-PVTZ-JKFIT

    Orbital Energies [Eh]
    ---------------------

    Doubly Occupied:

       1A    -20.622683     2A    -20.612422     3A    -20.551686
       4A    -11.440870     5A    -11.301903     6A    -11.226109
       7A    -11.223602     8A     -1.504974     9A     -1.400330
      10A     -1.363793    11A     -1.073432    12A     -0.951843
      13A     -0.885887    14A     -0.788209    15A     -0.745878
      16A     -0.715332    17A     -0.686143    18A     -0.636765
      19A     -0.625056    20A     -0.602512    21A     -0.570473
      22A     -0.555358    23A     -0.545773    24A     -0.528124
      25A     -0.501393    26A     -0.487537    27A     -0.477659
      28A     -0.463316

  @DF-RHF Final Energy:  -380.90042755473740

   => Energetics <=

    Nuclear Repulsion Energy =            324.0456756886396761
    One-Electron Energy =               -1163.7140859450196331
    Two-Electron Energy =                 458.7679827016425520
    Total Energy =                       -380.9004275547374050
  Basis Set: (AUG-CC-PVTZ AUX)
    Blend: AUG-CC-PVTZ-RI
    Molecular point group: c1

    Geometry (in Angstrom), charge = 0, multiplicity = 1:

       Center              X                  Y                   Z               Mass
    ------------   -----------------  -----------------  -----------------  -----------------
         O            0.011812967415    -0.583280127388     0.248616236668    15.994914619570
         O            2.168116967415    -0.716268127388     0.483895236668    15.994914619570
         O            1.328819967415     0.997411872612    -0.763441763332    15.994914619570
         C           -1.184750032585     0.077666872612    -0.267036763332    12.000000000000
         C           -2.262599532585    -1.013806227388    -0.289686063332    12.000000000000
         C           -1.527965032585     1.253438872612     0.627067236668    12.000000000000
         C            1.169511967415     0.001328872612    -0.079429763332    12.000000000000
         H           -0.958262032585     0.425593872612    -1.278720763332     1.007825032230
         H           -3.182732032585    -0.591566127388    -0.685372763332     1.007825032230
         H           -1.936153032585    -1.835897127388    -0.918632763332     1.007825032230
         H           -2.429931032585    -1.371554127388     0.722302236668     1.007825032230
         H           -2.445948032585     1.735121872612     0.277263236668     1.007825032230
         H           -0.724111032585     1.991769872612     0.612295236668     1.007825032230
         H           -1.683341032585     0.907594872612     1.652694236668     1.007825032230
         H            2.989110967415    -0.259793127388     0.217235236668     1.007825032230

  Basis Set: AUG-CC-PVTZ
    Blend: AUG-CC-PVTZ
  Basis Set: (AUG-CC-PVTZ AUX)
    Blend: AUG-CC-PVTZ-JKFIT
	 Reference Energy          =    -380.9004275547374050 [Eh]
	 Singles Energy            =      -0.0000000000000000 [Eh]
	 Same-Spin Energy          =      -0.3679756450433259 [Eh]
	 Opposite-Spin Energy      =      -1.1626756591456326 [Eh]
	 Correlation Energy        =      -1.5306513041889587 [Eh]
	 Total Energy              =    -382.4310788589263552 [Eh]

	 ================> DF-SCS-MP2 Energies <==================
	-----------------------------------------------------------
	 SCS Same-Spin Scale       =       0.3333333333333333 [-]
	 SCS Opposite-Spin Scale   =       1.2000000000000000 [-]
	 SCS Same-Spin Energy      =      -0.1226585483477753 [Eh]
	 SCS Opposite-Spin Energy  =      -1.3952107909747591 [Eh]
	 SCS Correlation Energy    =      -1.5178693393225344 [Eh]
	 SCS Total Energy          =    -382.4182968940599494 [Eh]
	-----------------------------------------------------------

  Dipole Moment: [D]
     X:    -0.9852      Y:    -0.0732      Z:     0.0913     Total:     0.9921

*** Psi4 exiting successfully. Buy a developer a beer!
