                               Psi4 1.4a3.dev225

  ==> Input File <==

--------------------------------------------------------------------------
#psi4
#
memory 32 gb

molecule  {
0 1
  O        0.1020250    -0.5936610     0.2432790
  O        2.2583290    -0.7266490     0.4785580
  O        1.4190320     0.9870310    -0.7687790
  C       -1.0126376     0.0220465    -0.2370794
  C       -2.1583360    -1.0099580    -0.2947280
  C       -1.4377530     1.2430580     0.6217300
  C        1.2597240    -0.0090520    -0.0847670
  H       -0.8680500     0.4152130    -1.2840580
  H       -3.0925200    -0.6019470    -0.6907100
  H       -1.8459410    -1.8462780    -0.9239700
  H       -2.3397190    -1.3819350     0.7169650
  H       -2.3557360     1.7247410     0.2719260
  H       -0.6338990     1.9813890     0.6069580
  H       -1.5931290     0.8972140     1.6473570
  H        3.0793230    -0.2701740     0.2118980
units angstrom
no_reorient  #important for SAPT in psi4, default
symmetry c1  #important for SAPT in psi4, default
}

set PROPERTIES_ORIGIN ["COM"]
properties('MP2/aug-cc-pvtz', properties = ['dipole'])
--------------------------------------------------------------------------

    Molecular point group: c1
  Charge       = 0
  Multiplicity = 1
  Basis Set: AUG-CC-PVTZ
    Blend: AUG-CC-PVTZ
  Basis Set: (AUG-CC-PVTZ AUX)
    Blend: AUG-CC-PVTZ-JKFIT

    Orbital Energies [Eh]
    ---------------------

    Doubly Occupied:

       1A    -20.629137     2A    -20.626045     3A    -20.559258
       4A    -11.449830     5A    -11.298463     6A    -11.223593
       7A    -11.220122     8A     -1.523615     9A     -1.424837
      10A     -1.372370    11A     -1.066172    12A     -0.943958
      13A     -0.905729    14A     -0.784441    15A     -0.761785
      16A     -0.721844    17A     -0.700086    18A     -0.644039
      19A     -0.621290    20A     -0.611001    21A     -0.572281
      22A     -0.558397    23A     -0.546925    24A     -0.529587
      25A     -0.499557    26A     -0.485372    27A     -0.472258
      28A     -0.449598

  @DF-RHF Final Energy:  -380.89265961373485

   => Energetics <=

    Nuclear Repulsion Energy =            325.6352206886502358
    One-Electron Energy =               -1166.6525808928963670
    Two-Electron Energy =                 460.1247005905113383
    Total Energy =                       -380.8926596137348497
  Basis Set: (AUG-CC-PVTZ AUX)
    Blend: AUG-CC-PVTZ-RI
    Molecular point group: c1

    Geometry (in Angstrom), charge = 0, multiplicity = 1:

       Center              X                  Y                   Z               Mass
    ------------   -----------------  -----------------  -----------------  -----------------
         O            0.000746632087    -0.579703632445     0.244511578316    15.994914619570
         O            2.157050632087    -0.712691632445     0.479790578316    15.994914619570
         O            1.317753632087     1.000988367555    -0.767546421684    15.994914619570
         C           -1.113915967913     0.036003867555    -0.235846821684    12.000000000000
         C           -2.259614367913    -0.996000632445    -0.293495421684    12.000000000000
         C           -1.539031367913     1.257015367555     0.622962578316    12.000000000000
         C            1.158445632087     0.004905367555    -0.083534421684    12.000000000000
         H           -0.969328367913     0.429170367555    -1.282825421684     1.007825032230
         H           -3.193798367913    -0.587989632445    -0.689477421684     1.007825032230
         H           -1.947219367913    -1.832320632445    -0.922737421684     1.007825032230
         H           -2.440997367913    -1.367977632445     0.718197578316     1.007825032230
         H           -2.457014367913     1.738698367555     0.273158578316     1.007825032230
         H           -0.735177367913     1.995346367555     0.608190578316     1.007825032230
         H           -1.694407367913     0.911171367555     1.648589578316     1.007825032230
         H            2.978044632087    -0.256216632445     0.213130578316     1.007825032230

  Basis Set: AUG-CC-PVTZ
    Blend: AUG-CC-PVTZ
  Basis Set: (AUG-CC-PVTZ AUX)
    Blend: AUG-CC-PVTZ-JKFIT
	 Reference Energy          =    -380.8926596137348497 [Eh]
	 Singles Energy            =      -0.0000000000000000 [Eh]
	 Same-Spin Energy          =      -0.3681703586279455 [Eh]
	 Opposite-Spin Energy      =      -1.1623777223010949 [Eh]
	 Correlation Energy        =      -1.5305480809290404 [Eh]
	 Total Energy              =    -382.4232076946639154 [Eh]

	 ================> DF-SCS-MP2 Energies <==================
	-----------------------------------------------------------
	 SCS Same-Spin Scale       =       0.3333333333333333 [-]
	 SCS Opposite-Spin Scale   =       1.2000000000000000 [-]
	 SCS Same-Spin Energy      =      -0.1227234528759818 [Eh]
	 SCS Opposite-Spin Energy  =      -1.3948532667613138 [Eh]
	 SCS Correlation Energy    =      -1.5175767196372956 [Eh]
	 SCS Total Energy          =    -382.4102363333721541 [Eh]
	-----------------------------------------------------------

  Dipole Moment: [D]
     X:    -0.5262      Y:    -0.1691      Z:     0.1270     Total:     0.5670

*** Psi4 exiting successfully. Buy a developer a beer!
