                               Psi4 1.4a3.dev225

  ==> Input File <==

--------------------------------------------------------------------------
#psi4
#
memory 32 gb

molecule  {
0 1
  O        0.1020250    -0.5936610     0.2432790
  O        2.2583290    -0.7266490     0.4785580
  O        1.4190320     0.9870310    -0.7687790
  C       -1.0945380     0.0672860    -0.2723740
  C       -2.1583360    -1.0099580    -0.2947280
  C       -1.4377530     1.2430580     0.6217300
  C        1.2597240    -0.0090520    -0.0847670
  H       -0.8680500     0.4152130    -1.2840580
  H       -3.0925200    -0.6019470    -0.6907100
  H       -1.8459410    -1.8462780    -0.9239700
  H       -2.3397190    -1.3819350     0.7169650
  H       -2.4396383     1.7687661     0.2399544
  H       -0.6338990     1.9813890     0.6069580
  H       -1.5931290     0.8972140     1.6473570
  H        3.0793230    -0.2701740     0.2118980
units angstrom
no_reorient  #important for SAPT in psi4, default
symmetry c1  #important for SAPT in psi4, default
}

set PROPERTIES_ORIGIN ["COM"]
properties('MP2/aug-cc-pvtz', properties = ['dipole'])
--------------------------------------------------------------------------

    Molecular point group: c1
  Charge       = 0
  Multiplicity = 1
  Basis Set: AUG-CC-PVTZ
    Blend: AUG-CC-PVTZ
  Basis Set: (AUG-CC-PVTZ AUX)
    Blend: AUG-CC-PVTZ-JKFIT

    Orbital Energies [Eh]
    ---------------------

    Doubly Occupied:

       1A    -20.623320     2A    -20.613580     3A    -20.552427
       4A    -11.441656     5A    -11.302162     6A    -11.235546
       7A    -11.226692     8A     -1.505871     9A     -1.401389
      10A     -1.364574    11A     -1.074985    12A     -0.947351
      13A     -0.884558    14A     -0.787864    15A     -0.746868
      16A     -0.716039    17A     -0.685104    18A     -0.636696
      19A     -0.626816    20A     -0.599660    21A     -0.571794
      22A     -0.551429    23A     -0.542023    24A     -0.516227
      25A     -0.503890    26A     -0.488852    27A     -0.478176
      28A     -0.464473

  @DF-RHF Final Energy:  -380.89410070388635

   => Energetics <=

    Nuclear Repulsion Energy =            323.9458060671711337
    One-Electron Energy =               -1163.4997691991200099
    Two-Electron Energy =                 458.6598624280625245
    Total Energy =                       -380.8941007038863518
  Basis Set: (AUG-CC-PVTZ AUX)
    Blend: AUG-CC-PVTZ-RI
    Molecular point group: c1

    Geometry (in Angstrom), charge = 0, multiplicity = 1:

       Center              X                  Y                   Z               Mass
    ------------   -----------------  -----------------  -----------------  -----------------
         O            0.011005074023    -0.585347636171     0.248891862913    15.994914619570
         O            2.167309074023    -0.718335636171     0.484170862913    15.994914619570
         O            1.328012074023     0.995344363829    -0.763166137087    15.994914619570
         C           -1.185557925977     0.075599363829    -0.266761137087    12.000000000000
         C           -2.249355925977    -1.001644636171    -0.289115137087    12.000000000000
         C           -1.528772925977     1.251371363829     0.627342862913    12.000000000000
         C            1.168704074023    -0.000738636171    -0.079154137087    12.000000000000
         H           -0.959069925977     0.423526363829    -1.278445137087     1.007825032230
         H           -3.183539925977    -0.593633636171    -0.685097137087     1.007825032230
         H           -1.936960925977    -1.837964636171    -0.918357137087     1.007825032230
         H           -2.430738925977    -1.373621636171     0.722577862913     1.007825032230
         H           -2.530658225977     1.777079463829     0.245567262913     1.007825032230
         H           -0.724918925977     1.989702363829     0.612570862913     1.007825032230
         H           -1.684148925977     0.905527363829     1.652969862913     1.007825032230
         H            2.988303074023    -0.261860636171     0.217510862913     1.007825032230

  Basis Set: AUG-CC-PVTZ
    Blend: AUG-CC-PVTZ
  Basis Set: (AUG-CC-PVTZ AUX)
    Blend: AUG-CC-PVTZ-JKFIT
	 Reference Energy          =    -380.8941007038863518 [Eh]
	 Singles Energy            =      -0.0000000000000000 [Eh]
	 Same-Spin Energy          =      -0.3680729018680014 [Eh]
	 Opposite-Spin Energy      =      -1.1634679973467470 [Eh]
	 Correlation Energy        =      -1.5315408992147483 [Eh]
	 Total Energy              =    -382.4256416031010986 [Eh]

	 ================> DF-SCS-MP2 Energies <==================
	-----------------------------------------------------------
	 SCS Same-Spin Scale       =       0.3333333333333333 [-]
	 SCS Opposite-Spin Scale   =       1.2000000000000000 [-]
	 SCS Same-Spin Energy      =      -0.1226909672893338 [Eh]
	 SCS Opposite-Spin Energy  =      -1.3961615968160963 [Eh]
	 SCS Correlation Energy    =      -1.5188525641054300 [Eh]
	 SCS Total Energy          =    -382.4129532679917816 [Eh]
	-----------------------------------------------------------

  Dipole Moment: [D]
     X:    -0.9354      Y:    -0.1063      Z:     0.0988     Total:     0.9466

*** Psi4 exiting successfully. Buy a developer a beer!
