                               Psi4 1.4a3.dev225

  ==> Input File <==

--------------------------------------------------------------------------
#psi4
#
memory 32 gb

molecule  {
0 1
  O        0.1020250    -0.5936610     0.2432790
  O        2.2583290    -0.7266490     0.4785580
  O        1.4190320     0.9870310    -0.7687790
  C       -1.0945380     0.0672860    -0.2723740
  C       -2.1551660    -1.0128850    -0.2420536
  C       -1.4377530     1.2430580     0.6217300
  C        1.2597240    -0.0090520    -0.0847670
  H       -0.8680500     0.4152130    -1.2840580
  H       -3.0925200    -0.6019470    -0.6907100
  H       -1.8459410    -1.8462780    -0.9239700
  H       -2.3397190    -1.3819350     0.7169650
  H       -2.3557360     1.7247410     0.2719260
  H       -0.6338990     1.9813890     0.6069580
  H       -1.5931290     0.8972140     1.6473570
  H        3.0793230    -0.2701740     0.2118980
units angstrom
no_reorient  #important for SAPT in psi4, default
symmetry c1  #important for SAPT in psi4, default
}

set PROPERTIES_ORIGIN ["COM"]
properties('MP2/aug-cc-pvtz', properties = ['dipole'])
--------------------------------------------------------------------------

    Molecular point group: c1
  Charge       = 0
  Multiplicity = 1
  Basis Set: AUG-CC-PVTZ
    Blend: AUG-CC-PVTZ
  Basis Set: (AUG-CC-PVTZ AUX)
    Blend: AUG-CC-PVTZ-JKFIT

    Orbital Energies [Eh]
    ---------------------

    Doubly Occupied:

       1A    -20.622629     2A    -20.612031     3A    -20.551854
       4A    -11.440754     5A    -11.301527     6A    -11.227024
       7A    -11.223164     8A     -1.505038     9A     -1.400540
      10A     -1.363954    11A     -1.076747    12A     -0.951242
      13A     -0.885436    14A     -0.789934    15A     -0.745907
      16A     -0.715669    17A     -0.686284    18A     -0.637958
      19A     -0.623116    20A     -0.605577    21A     -0.568842
      22A     -0.562667    23A     -0.537788    24A     -0.522738
      25A     -0.502493    26A     -0.491920    27A     -0.477695
      28A     -0.462253

  @DF-RHF Final Energy:  -380.89732207073013

   => Energetics <=

    Nuclear Repulsion Energy =            324.5147313223643550
    One-Electron Energy =               -1164.6385473006471329
    Two-Electron Energy =                 459.2264939075526513
    Total Energy =                       -380.8973220707301266
  Basis Set: (AUG-CC-PVTZ AUX)
    Blend: AUG-CC-PVTZ-RI
    Molecular point group: c1

    Geometry (in Angstrom), charge = 0, multiplicity = 1:

       Center              X                  Y                   Z               Mass
    ------------   -----------------  -----------------  -----------------  -----------------
         O            0.009826775439    -0.584583622457     0.242507129267    15.994914619570
         O            2.166130775439    -0.717571622457     0.477786129267    15.994914619570
         O            1.326833775439     0.996108377543    -0.769550870733    15.994914619570
         C           -1.186736224561     0.076363377543    -0.273145870733    12.000000000000
         C           -2.247364224561    -1.003807622457    -0.242825470733    12.000000000000
         C           -1.529951224561     1.252135377543     0.620958129267    12.000000000000
         C            1.167525775439     0.000025377543    -0.085538870733    12.000000000000
         H           -0.960248224561     0.424290377543    -1.284829870733     1.007825032230
         H           -3.184718224561    -0.592869622457    -0.691481870733     1.007825032230
         H           -1.938139224561    -1.837200622457    -0.924741870733     1.007825032230
         H           -2.431917224561    -1.372857622457     0.716193129267     1.007825032230
         H           -2.447934224561     1.733818377543     0.271154129267     1.007825032230
         H           -0.726097224561     1.990466377543     0.606186129267     1.007825032230
         H           -1.685327224561     0.906291377543     1.646585129267     1.007825032230
         H            2.987124775439    -0.261096622457     0.211126129267     1.007825032230

  Basis Set: AUG-CC-PVTZ
    Blend: AUG-CC-PVTZ
  Basis Set: (AUG-CC-PVTZ AUX)
    Blend: AUG-CC-PVTZ-JKFIT
	 Reference Energy          =    -380.8973220707301266 [Eh]
	 Singles Energy            =      -0.0000000000000000 [Eh]
	 Same-Spin Energy          =      -0.3681757883693259 [Eh]
	 Opposite-Spin Energy      =      -1.1629564180931256 [Eh]
	 Correlation Energy        =      -1.5311322064624515 [Eh]
	 Total Energy              =    -382.4284542771925999 [Eh]

	 ================> DF-SCS-MP2 Energies <==================
	-----------------------------------------------------------
	 SCS Same-Spin Scale       =       0.3333333333333333 [-]
	 SCS Opposite-Spin Scale   =       1.2000000000000000 [-]
	 SCS Same-Spin Energy      =      -0.1227252627897753 [Eh]
	 SCS Opposite-Spin Energy  =      -1.3955477017117506 [Eh]
	 SCS Correlation Energy    =      -1.5182729645015258 [Eh]
	 SCS Total Energy          =    -382.4155950352316609 [Eh]
	-----------------------------------------------------------

  Dipole Moment: [D]
     X:    -0.9916      Y:    -0.0811      Z:     0.1080     Total:     1.0007

*** Psi4 exiting successfully. Buy a developer a beer!
