                               Psi4 1.4a3.dev225

  ==> Input File <==

--------------------------------------------------------------------------
#psi4
#
memory 32 gb

molecule  {
0 1
  O        0.1020250    -0.5936610     0.2432790
  O        2.2583290    -0.7266490     0.4785580
  O        1.4190320     0.9870310    -0.7687790
  C       -1.0535878     0.0446663    -0.2547267
  C       -2.1583360    -1.0099580    -0.2947280
  C       -1.4377530     1.2430580     0.6217300
  C        1.2597240    -0.0090520    -0.0847670
  H       -0.8680500     0.4152130    -1.2840580
  H       -3.0925200    -0.6019470    -0.6907100
  H       -1.8459410    -1.8462780    -0.9239700
  H       -2.3397190    -1.3819350     0.7169650
  H       -2.3557360     1.7247410     0.2719260
  H       -0.6338990     1.9813890     0.6069580
  H       -1.5931290     0.8972140     1.6473570
  H        3.0793230    -0.2701740     0.2118980
units angstrom
no_reorient  #important for SAPT in psi4, default
symmetry c1  #important for SAPT in psi4, default
}

set PROPERTIES_ORIGIN ["COM"]
properties('MP2/aug-cc-pvtz', properties = ['dipole'])
--------------------------------------------------------------------------

    Molecular point group: c1
  Charge       = 0
  Multiplicity = 1
  Basis Set: AUG-CC-PVTZ
    Blend: AUG-CC-PVTZ
  Basis Set: (AUG-CC-PVTZ AUX)
    Blend: AUG-CC-PVTZ-JKFIT

    Orbital Energies [Eh]
    ---------------------

    Doubly Occupied:

       1A    -20.625966     2A    -20.619513     3A    -20.555476
       4A    -11.445411     5A    -11.299366     6A    -11.225039
       7A    -11.221819     8A     -1.513475     9A     -1.412441
      10A     -1.368277    11A     -1.070918    12A     -0.947729
      13A     -0.895298    14A     -0.786198    15A     -0.753910
      16A     -0.718674    17A     -0.692953    18A     -0.640277
      19A     -0.622818    20A     -0.606697    21A     -0.571317
      22A     -0.552270    23A     -0.549914    24A     -0.528483
      25A     -0.500264    26A     -0.482586    27A     -0.480076
      28A     -0.458474

  @DF-RHF Final Energy:  -380.89911091193113

   => Energetics <=

    Nuclear Repulsion Energy =            324.9934206585218703
    One-Electron Energy =               -1165.4937851142256022
    Two-Electron Energy =                 459.6012535437725433
    Total Energy =                       -380.8991109119311318
  Basis Set: (AUG-CC-PVTZ AUX)
    Blend: AUG-CC-PVTZ-RI
    Molecular point group: c1

    Geometry (in Angstrom), charge = 0, multiplicity = 1:

       Center              X                  Y                   Z               Mass
    ------------   -----------------  -----------------  -----------------  -----------------
         O            0.005469505161    -0.582312421764     0.246546878705    15.994914619570
         O            2.161773505161    -0.715300421764     0.481825878705    15.994914619570
         O            1.322476505161     0.998379578236    -0.765511121295    15.994914619570
         C           -1.150143294839     0.056014878236    -0.251458821295    12.000000000000
         C           -2.254891494839    -0.998609421764    -0.291460121295    12.000000000000
         C           -1.534308494839     1.254406578236     0.624997878705    12.000000000000
         C            1.163168505161     0.002296578236    -0.081499121295    12.000000000000
         H           -0.964605494839     0.426561578236    -1.280790121295     1.007825032230
         H           -3.189075494839    -0.590598421764    -0.687442121295     1.007825032230
         H           -1.942496494839    -1.834929421764    -0.920702121295     1.007825032230
         H           -2.436274494839    -1.370586421764     0.720232878705     1.007825032230
         H           -2.452291494839     1.736089578236     0.275193878705     1.007825032230
         H           -0.730454494839     1.992737578236     0.610225878705     1.007825032230
         H           -1.689684494839     0.908562578236     1.650624878705     1.007825032230
         H            2.982767505161    -0.258825421764     0.215165878705     1.007825032230

  Basis Set: AUG-CC-PVTZ
    Blend: AUG-CC-PVTZ
  Basis Set: (AUG-CC-PVTZ AUX)
    Blend: AUG-CC-PVTZ-JKFIT
	 Reference Energy          =    -380.8991109119311318 [Eh]
	 Singles Energy            =      -0.0000000000000000 [Eh]
	 Same-Spin Energy          =      -0.3680455550264962 [Eh]
	 Opposite-Spin Energy      =      -1.1624318381913314 [Eh]
	 Correlation Energy        =      -1.5304773932178275 [Eh]
	 Total Energy              =    -382.4295883051489682 [Eh]

	 ================> DF-SCS-MP2 Energies <==================
	-----------------------------------------------------------
	 SCS Same-Spin Scale       =       0.3333333333333333 [-]
	 SCS Opposite-Spin Scale   =       1.2000000000000000 [-]
	 SCS Same-Spin Energy      =      -0.1226818516754987 [Eh]
	 SCS Opposite-Spin Energy  =      -1.3949182058295977 [Eh]
	 SCS Correlation Energy    =      -1.5176000575050963 [Eh]
	 SCS Total Energy          =    -382.4167109694362239 [Eh]
	-----------------------------------------------------------

  Dipole Moment: [D]
     X:    -0.7602      Y:    -0.1225      Z:     0.1069     Total:     0.7774

*** Psi4 exiting successfully. Buy a developer a beer!
