                               Psi4 1.4a3.dev225

  ==> Input File <==

--------------------------------------------------------------------------
#psi4
#
memory 32 gb

molecule  {
0 1
  O        0.1020250    -0.5936610     0.2432790
  O        2.2583290    -0.7266490     0.4785580
  O        1.4190320     0.9870310    -0.7687790
  C       -1.0945380     0.0672860    -0.2723740
  C       -2.1583360    -1.0099580    -0.2947280
  C       -1.4490693     1.2818249     0.6512099
  C        1.2597240    -0.0090520    -0.0847670
  H       -0.8680500     0.4152130    -1.2840580
  H       -3.0925200    -0.6019470    -0.6907100
  H       -1.8459410    -1.8462780    -0.9239700
  H       -2.3397190    -1.3819350     0.7169650
  H       -2.3557360     1.7247410     0.2719260
  H       -0.6338990     1.9813890     0.6069580
  H       -1.5931290     0.8972140     1.6473570
  H        3.0793230    -0.2701740     0.2118980
units angstrom
no_reorient  #important for SAPT in psi4, default
symmetry c1  #important for SAPT in psi4, default
}

set PROPERTIES_ORIGIN ["COM"]
properties('MP2/aug-cc-pvtz', properties = ['dipole'])
--------------------------------------------------------------------------

    Molecular point group: c1
  Charge       = 0
  Multiplicity = 1
  Basis Set: AUG-CC-PVTZ
    Blend: AUG-CC-PVTZ
  Basis Set: (AUG-CC-PVTZ AUX)
    Blend: AUG-CC-PVTZ-JKFIT

    Orbital Energies [Eh]
    ---------------------

    Doubly Occupied:

       1A    -20.622757     2A    -20.612635     3A    -20.551821
       4A    -11.440909     5A    -11.302935     6A    -11.226726
       7A    -11.222314     8A     -1.504953     9A     -1.400178
      10A     -1.363875    11A     -1.070173    12A     -0.951866
      13A     -0.885863    14A     -0.788000    15A     -0.745774
      16A     -0.715302    17A     -0.685400    18A     -0.636624
      19A     -0.623229    20A     -0.602396    21A     -0.572340
      22A     -0.556426    23A     -0.545240    24A     -0.531919
      25A     -0.503560    26A     -0.488655    27A     -0.477420
      28A     -0.457135

  @DF-RHF Final Energy:  -380.89884647085512

   => Energetics <=

    Nuclear Repulsion Energy =            323.5665405984750578
    One-Electron Energy =               -1162.7579220504869681
    Two-Electron Energy =                 458.2925349811567912
    Total Energy =                       -380.8988464708551192
  Basis Set: (AUG-CC-PVTZ AUX)
    Blend: AUG-CC-PVTZ-RI
    Molecular point group: c1

    Geometry (in Angstrom), charge = 0, multiplicity = 1:

       Center              X                  Y                   Z               Mass
    ------------   -----------------  -----------------  -----------------  -----------------
         O            0.011497511021    -0.589392268023     0.245182199951    15.994914619570
         O            2.167801511021    -0.722380268023     0.480461199951    15.994914619570
         O            1.328504511021     0.991299731977    -0.766875800049    15.994914619570
         C           -1.185065488979     0.071554731977    -0.270470800049    12.000000000000
         C           -2.248863488979    -1.005689268023    -0.292824800049    12.000000000000
         C           -1.539596788979     1.286093631977     0.653113099951    12.000000000000
         C            1.169196511021    -0.004783268023    -0.082863800049    12.000000000000
         H           -0.958577488979     0.419481731977    -1.282154800049     1.007825032230
         H           -3.183047488979    -0.597678268023    -0.688806800049     1.007825032230
         H           -1.936468488979    -1.842009268023    -0.922066800049     1.007825032230
         H           -2.430246488979    -1.377666268023     0.718868199951     1.007825032230
         H           -2.446263488979     1.729009731977     0.273829199951     1.007825032230
         H           -0.724426488979     1.985657731977     0.608861199951     1.007825032230
         H           -1.683656488979     0.901482731977     1.649260199951     1.007825032230
         H            2.988795511021    -0.265905268023     0.213801199951     1.007825032230

  Basis Set: AUG-CC-PVTZ
    Blend: AUG-CC-PVTZ
  Basis Set: (AUG-CC-PVTZ AUX)
    Blend: AUG-CC-PVTZ-JKFIT
	 Reference Energy          =    -380.8988464708551192 [Eh]
	 Singles Energy            =      -0.0000000000000000 [Eh]
	 Same-Spin Energy          =      -0.3678363172689139 [Eh]
	 Opposite-Spin Energy      =      -1.1626459895838868 [Eh]
	 Correlation Energy        =      -1.5304823068528006 [Eh]
	 Total Energy              =    -382.4293287777078945 [Eh]

	 ================> DF-SCS-MP2 Energies <==================
	-----------------------------------------------------------
	 SCS Same-Spin Scale       =       0.3333333333333333 [-]
	 SCS Opposite-Spin Scale   =       1.2000000000000000 [-]
	 SCS Same-Spin Energy      =      -0.1226121057563046 [Eh]
	 SCS Opposite-Spin Energy  =      -1.3951751875006642 [Eh]
	 SCS Correlation Energy    =      -1.5177872932569687 [Eh]
	 SCS Total Energy          =    -382.4166337641120776 [Eh]
	-----------------------------------------------------------

  Dipole Moment: [D]
     X:    -0.9812      Y:    -0.1076      Z:     0.0779     Total:     0.9902

*** Psi4 exiting successfully. Buy a developer a beer!
