                               Psi4 1.4a3.dev225

  ==> Input File <==

--------------------------------------------------------------------------
#psi4
#
memory 32 gb

molecule  {
0 1
  O        0.1020250    -0.5936610     0.2432790
  O        2.2583290    -0.7266490     0.4785580
  O        1.4190320     0.9870310    -0.7687790
  C       -1.1027028     0.0049258    -0.1872374
  C       -2.1583360    -1.0099580    -0.2947280
  C       -1.4377530     1.2430580     0.6217300
  C        1.2597240    -0.0090520    -0.0847670
  H       -0.8680500     0.4152130    -1.2840580
  H       -3.0925200    -0.6019470    -0.6907100
  H       -1.8459410    -1.8462780    -0.9239700
  H       -2.3397190    -1.3819350     0.7169650
  H       -2.3557360     1.7247410     0.2719260
  H       -0.6338990     1.9813890     0.6069580
  H       -1.5931290     0.8972140     1.6473570
  H        3.0793230    -0.2701740     0.2118980
units angstrom
no_reorient  #important for SAPT in psi4, default
symmetry c1  #important for SAPT in psi4, default
}

set PROPERTIES_ORIGIN ["COM"]
properties('MP2/aug-cc-pvtz', properties = ['dipole'])
--------------------------------------------------------------------------

    Molecular point group: c1
  Charge       = 0
  Multiplicity = 1
  Basis Set: AUG-CC-PVTZ
    Blend: AUG-CC-PVTZ
  Basis Set: (AUG-CC-PVTZ AUX)
    Blend: AUG-CC-PVTZ-JKFIT

    Orbital Energies [Eh]
    ---------------------

    Doubly Occupied:

       1A    -20.625705     2A    -20.616690     3A    -20.554280
       4A    -11.445612     5A    -11.303872     6A    -11.225330
       7A    -11.223012     8A     -1.511225     9A     -1.410704
      10A     -1.366990    11A     -1.082279    12A     -0.956258
      13A     -0.898011    14A     -0.774341    15A     -0.752006
      16A     -0.715689    17A     -0.692321    18A     -0.639557
      19A     -0.632610    20A     -0.608050    21A     -0.575120
      22A     -0.552647    23A     -0.551550    24A     -0.529759
      25A     -0.507872    26A     -0.481046    27A     -0.475172
      28A     -0.444268

  @DF-RHF Final Energy:  -380.88868545401306

   => Energetics <=

    Nuclear Repulsion Energy =            325.1027267461666383
    One-Electron Energy =               -1165.6788664818345751
    Two-Electron Energy =                 459.6874542816549365
    Total Energy =                       -380.8886854540130571
  Basis Set: (AUG-CC-PVTZ AUX)
    Blend: AUG-CC-PVTZ-RI
    Molecular point group: c1

    Geometry (in Angstrom), charge = 0, multiplicity = 1:

       Center              X                  Y                   Z               Mass
    ------------   -----------------  -----------------  -----------------  -----------------
         O            0.011134041868    -0.577729065946     0.238763195163    15.994914619570
         O            2.167438041868    -0.710717065946     0.474042195163    15.994914619570
         O            1.328141041868     1.002962934054    -0.773294804837    15.994914619570
         C           -1.193593758132     0.020857734054    -0.191753204837    12.000000000000
         C           -2.249226958132    -0.994026065946    -0.299243804837    12.000000000000
         C           -1.528643958132     1.258989934054     0.617214195163    12.000000000000
         C            1.168833041868     0.006879934054    -0.089282804837    12.000000000000
         H           -0.958940958132     0.431144934054    -1.288573804837     1.007825032230
         H           -3.183410958132    -0.586015065946    -0.695225804837     1.007825032230
         H           -1.936831958132    -1.830346065946    -0.928485804837     1.007825032230
         H           -2.430609958132    -1.366003065946     0.712449195163     1.007825032230
         H           -2.446626958132     1.740672934054     0.267410195163     1.007825032230
         H           -0.724789958132     1.997320934054     0.602442195163     1.007825032230
         H           -1.684019958132     0.913145934054     1.642841195163     1.007825032230
         H            2.988432041868    -0.254242065946     0.207382195163     1.007825032230

  Basis Set: AUG-CC-PVTZ
    Blend: AUG-CC-PVTZ
  Basis Set: (AUG-CC-PVTZ AUX)
    Blend: AUG-CC-PVTZ-JKFIT
	 Reference Energy          =    -380.8886854540130571 [Eh]
	 Singles Energy            =      -0.0000000000000000 [Eh]
	 Same-Spin Energy          =      -0.3687019365991705 [Eh]
	 Opposite-Spin Energy      =      -1.1632305227928841 [Eh]
	 Correlation Energy        =      -1.5319324593920545 [Eh]
	 Total Energy              =    -382.4206179134051240 [Eh]

	 ================> DF-SCS-MP2 Energies <==================
	-----------------------------------------------------------
	 SCS Same-Spin Scale       =       0.3333333333333333 [-]
	 SCS Opposite-Spin Scale   =       1.2000000000000000 [-]
	 SCS Same-Spin Energy      =      -0.1229006455330568 [Eh]
	 SCS Opposite-Spin Energy  =      -1.3958766273514609 [Eh]
	 SCS Correlation Energy    =      -1.5187772728845177 [Eh]
	 SCS Total Energy          =    -382.4074627268975632 [Eh]
	-----------------------------------------------------------

  Dipole Moment: [D]
     X:    -0.8759      Y:    -0.1643      Z:     0.1844     Total:     0.9100

*** Psi4 exiting successfully. Buy a developer a beer!
