                               Psi4 1.4a3.dev225

  ==> Input File <==

--------------------------------------------------------------------------
#psi4
#
memory 32 gb

molecule  {
0 1
  O        0.1020250    -0.5936610     0.2432790
  O        2.2583290    -0.7266490     0.4785580
  O        1.4190320     0.9870310    -0.7687790
  C       -1.1074002    -0.0240102    -0.1431644
  C       -2.1583360    -1.0099580    -0.2947280
  C       -1.4377530     1.2430580     0.6217300
  C        1.2597240    -0.0090520    -0.0847670
  H       -0.8680500     0.4152130    -1.2840580
  H       -3.0925200    -0.6019470    -0.6907100
  H       -1.8459410    -1.8462780    -0.9239700
  H       -2.3397190    -1.3819350     0.7169650
  H       -2.3557360     1.7247410     0.2719260
  H       -0.6338990     1.9813890     0.6069580
  H       -1.5931290     0.8972140     1.6473570
  H        3.0793230    -0.2701740     0.2118980
units angstrom
no_reorient  #important for SAPT in psi4, default
symmetry c1  #important for SAPT in psi4, default
}

set PROPERTIES_ORIGIN ["COM"]
properties('MP2/aug-cc-pvtz', properties = ['dipole'])
--------------------------------------------------------------------------

    Molecular point group: c1
  Charge       = 0
  Multiplicity = 1
  Basis Set: AUG-CC-PVTZ
    Blend: AUG-CC-PVTZ
  Basis Set: (AUG-CC-PVTZ AUX)
    Blend: AUG-CC-PVTZ-JKFIT

    Orbital Energies [Eh]
    ---------------------

    Doubly Occupied:

       1A    -20.627136     2A    -20.618767     3A    -20.555533
       4A    -11.447947     5A    -11.306630     6A    -11.225316
       7A    -11.223527     8A     -1.514337     9A     -1.415525
      10A     -1.368351    11A     -1.085985    12A     -0.958659
      13A     -0.904750    14A     -0.771601    15A     -0.752576
      16A     -0.715456    17A     -0.695411    18A     -0.643199
      19A     -0.634333    20A     -0.610906    21A     -0.578445
      22A     -0.555242    23A     -0.551425    24A     -0.531241
      25A     -0.509188    26A     -0.482177    27A     -0.475692
      28A     -0.425763

  @DF-RHF Final Energy:  -380.87476928363435

   => Energetics <=

    Nuclear Repulsion Energy =            325.4092312924427688
    One-Electron Energy =               -1166.1977606630152877
    Two-Electron Energy =                 459.9137600869381686
    Total Energy =                       -380.8747692836343504
  Basis Set: (AUG-CC-PVTZ AUX)
    Blend: AUG-CC-PVTZ-RI
    Molecular point group: c1

    Geometry (in Angstrom), charge = 0, multiplicity = 1:

       Center              X                  Y                   Z               Mass
    ------------   -----------------  -----------------  -----------------  -----------------
         O            0.011675802934    -0.574391815938     0.233680162968    15.994914619570
         O            2.167979802934    -0.707379815938     0.468959162968    15.994914619570
         O            1.328682802934     1.006300184062    -0.778377837032    15.994914619570
         C           -1.197749397066    -0.004741015938    -0.152763237032    12.000000000000
         C           -2.248685197066    -0.990688815938    -0.304326837032    12.000000000000
         C           -1.528102197066     1.262327184062     0.612131162968    12.000000000000
         C            1.169374802934     0.010217184062    -0.094365837032    12.000000000000
         H           -0.958399197066     0.434482184062    -1.293656837032     1.007825032230
         H           -3.182869197066    -0.582677815938    -0.700308837032     1.007825032230
         H           -1.936290197066    -1.827008815938    -0.933568837032     1.007825032230
         H           -2.430068197066    -1.362665815938     0.707366162968     1.007825032230
         H           -2.446085197066     1.744010184062     0.262327162968     1.007825032230
         H           -0.724248197066     2.000658184062     0.597359162968     1.007825032230
         H           -1.683478197066     0.916483184062     1.637758162968     1.007825032230
         H            2.988973802934    -0.250904815938     0.202299162968     1.007825032230

  Basis Set: AUG-CC-PVTZ
    Blend: AUG-CC-PVTZ
  Basis Set: (AUG-CC-PVTZ AUX)
    Blend: AUG-CC-PVTZ-JKFIT
	 Reference Energy          =    -380.8747692836343504 [Eh]
	 Singles Energy            =      -0.0000000000000000 [Eh]
	 Same-Spin Energy          =      -0.3692015054760158 [Eh]
	 Opposite-Spin Energy      =      -1.1639925877738073 [Eh]
	 Correlation Energy        =      -1.5331940932498231 [Eh]
	 Total Energy              =    -382.4079633768841973 [Eh]

	 ================> DF-SCS-MP2 Energies <==================
	-----------------------------------------------------------
	 SCS Same-Spin Scale       =       0.3333333333333333 [-]
	 SCS Opposite-Spin Scale   =       1.2000000000000000 [-]
	 SCS Same-Spin Energy      =      -0.1230671684920053 [Eh]
	 SCS Opposite-Spin Energy  =      -1.3967911053285686 [Eh]
	 SCS Correlation Energy    =      -1.5198582738205739 [Eh]
	 SCS Total Energy          =    -382.3946275574548963 [Eh]
	-----------------------------------------------------------

  Dipole Moment: [D]
     X:    -0.8186      Y:    -0.2065      Z:     0.2504     Total:     0.8806

*** Psi4 exiting successfully. Buy a developer a beer!
