                               Psi4 1.4a3.dev225

  ==> Input File <==

--------------------------------------------------------------------------
#psi4
#
memory 32 gb

molecule  {
0 1
  O        0.1020250    -0.5936610     0.2432790
  O        2.2583290    -0.7266490     0.4785580
  O        1.4190320     0.9870310    -0.7687790
  C       -1.0945380     0.0672860    -0.2723740
  C       -2.1583360    -1.0099580    -0.2947280
  C       -1.4377530     1.2430580     0.6217300
  C        1.2597240    -0.0090520    -0.0847670
  H       -0.8680500     0.4152130    -1.2840580
  H       -3.0925200    -0.6019470    -0.6907100
  H       -1.8459410    -1.8462780    -0.9239700
  H       -2.3397190    -1.3819350     0.7169650
  H       -2.2718337     1.6807159     0.3038976
  H       -0.6338990     1.9813890     0.6069580
  H       -1.5931290     0.8972140     1.6473570
  H        3.0793230    -0.2701740     0.2118980
units angstrom
no_reorient  #important for SAPT in psi4, default
symmetry c1  #important for SAPT in psi4, default
}

set PROPERTIES_ORIGIN ["COM"]
properties('MP2/aug-cc-pvtz', properties = ['dipole'])
--------------------------------------------------------------------------

    Molecular point group: c1
  Charge       = 0
  Multiplicity = 1
  Basis Set: AUG-CC-PVTZ
    Blend: AUG-CC-PVTZ
  Basis Set: (AUG-CC-PVTZ AUX)
    Blend: AUG-CC-PVTZ-JKFIT

    Orbital Energies [Eh]
    ---------------------

    Doubly Occupied:

       1A    -20.622231     2A    -20.611538     3A    -20.551185
       4A    -11.440327     5A    -11.300380     6A    -11.226788
       7A    -11.211135     8A     -1.504437     9A     -1.399868
      10A     -1.363312    11A     -1.078518    12A     -0.958687
      13A     -0.886765    14A     -0.789784    15A     -0.745666
      16A     -0.714987    17A     -0.688531    18A     -0.637860
      19A     -0.625345    20A     -0.608326    21A     -0.570044
      22A     -0.557700    23A     -0.546289    24A     -0.532484
      25A     -0.502924    26A     -0.487502    27A     -0.477243
      28A     -0.463124

  @DF-RHF Final Energy:  -380.89453816221612

   => Energetics <=

    Nuclear Repulsion Energy =            324.8683733864127703
    One-Electron Energy =               -1165.3198620781638510
    Two-Electron Energy =                 459.5569505295350154
    Total Energy =                       -380.8945381622161221
  Basis Set: (AUG-CC-PVTZ AUX)
    Blend: AUG-CC-PVTZ-RI
    Molecular point group: c1

    Geometry (in Angstrom), charge = 0, multiplicity = 1:

       Center              X                  Y                   Z               Mass
    ------------   -----------------  -----------------  -----------------  -----------------
         O            0.009379682449    -0.584494762929     0.248272495277    15.994914619570
         O            2.165683682449    -0.717482762929     0.483551495277    15.994914619570
         O            1.326386682449     0.996197237071    -0.763785504723    15.994914619570
         C           -1.187183317551     0.076452237071    -0.267380504723    12.000000000000
         C           -2.250981317551    -1.000791762929    -0.289734504723    12.000000000000
         C           -1.530398317551     1.252224237071     0.626723495277    12.000000000000
         C            1.167078682449     0.000114237071    -0.079773504723    12.000000000000
         H           -0.960695317551     0.424379237071    -1.279064504723     1.007825032230
         H           -3.185165317551    -0.592780762929    -0.685716504723     1.007825032230
         H           -1.938586317551    -1.837111762929    -0.918976504723     1.007825032230
         H           -2.432364317551    -1.372768762929     0.721958495277     1.007825032230
         H           -2.364479017551     1.689882137071     0.308891095277     1.007825032230
         H           -0.726544317551     1.990555237071     0.611951495277     1.007825032230
         H           -1.685774317551     0.906380237071     1.652350495277     1.007825032230
         H            2.986677682449    -0.261007762929     0.216891495277     1.007825032230

  Basis Set: AUG-CC-PVTZ
    Blend: AUG-CC-PVTZ
  Basis Set: (AUG-CC-PVTZ AUX)
    Blend: AUG-CC-PVTZ-JKFIT
	 Reference Energy          =    -380.8945381622161221 [Eh]
	 Singles Energy            =      -0.0000000000000000 [Eh]
	 Same-Spin Energy          =      -0.3681469225877233 [Eh]
	 Opposite-Spin Energy      =      -1.1622965652642874 [Eh]
	 Correlation Energy        =      -1.5304434878520108 [Eh]
	 Total Energy              =    -382.4249816500681050 [Eh]

	 ================> DF-SCS-MP2 Energies <==================
	-----------------------------------------------------------
	 SCS Same-Spin Scale       =       0.3333333333333333 [-]
	 SCS Opposite-Spin Scale   =       1.2000000000000000 [-]
	 SCS Same-Spin Energy      =      -0.1227156408625744 [Eh]
	 SCS Opposite-Spin Energy  =      -1.3947558783171448 [Eh]
	 SCS Correlation Energy    =      -1.5174715191797192 [Eh]
	 SCS Total Energy          =    -382.4120096813958298 [Eh]
	-----------------------------------------------------------

  Dipole Moment: [D]
     X:    -1.0367      Y:    -0.0573      Z:     0.0817     Total:     1.0415

*** Psi4 exiting successfully. Buy a developer a beer!
