                               Psi4 1.4a3.dev225

  ==> Input File <==

--------------------------------------------------------------------------
#psi4
#
memory 32 gb

molecule  {
0 1
  O        0.1020250    -0.5936610     0.2432790
  O        2.2583290    -0.7266490     0.4785580
  O        1.4190320     0.9870310    -0.7687790
  C       -1.0945380     0.0672860    -0.2723740
  C       -2.2285936    -1.0811036    -0.2962043
  C       -1.4377530     1.2430580     0.6217300
  C        1.2597240    -0.0090520    -0.0847670
  H       -0.8680500     0.4152130    -1.2840580
  H       -3.0925200    -0.6019470    -0.6907100
  H       -1.8459410    -1.8462780    -0.9239700
  H       -2.3397190    -1.3819350     0.7169650
  H       -2.3557360     1.7247410     0.2719260
  H       -0.6338990     1.9813890     0.6069580
  H       -1.5931290     0.8972140     1.6473570
  H        3.0793230    -0.2701740     0.2118980
units angstrom
no_reorient  #important for SAPT in psi4, default
symmetry c1  #important for SAPT in psi4, default
}

set PROPERTIES_ORIGIN ["COM"]
properties('MP2/aug-cc-pvtz', properties = ['dipole'])
--------------------------------------------------------------------------

    Molecular point group: c1
  Charge       = 0
  Multiplicity = 1
  Basis Set: AUG-CC-PVTZ
    Blend: AUG-CC-PVTZ
  Basis Set: (AUG-CC-PVTZ AUX)
    Blend: AUG-CC-PVTZ-JKFIT

    Orbital Energies [Eh]
    ---------------------

    Doubly Occupied:

       1A    -20.622589     2A    -20.612409     3A    -20.551525
       4A    -11.440714     5A    -11.304461     6A    -11.224922
       7A    -11.223611     8A     -1.504647     9A     -1.399621
      10A     -1.363532    11A     -1.064041    12A     -0.952253
      13A     -0.887337    14A     -0.787016    15A     -0.744810
      16A     -0.714954    17A     -0.685666    18A     -0.636234
      19A     -0.623288    20A     -0.600695    21A     -0.573034
      22A     -0.562785    23A     -0.553760    24A     -0.529708
      25A     -0.497133    26A     -0.480932    27A     -0.477484
      28A     -0.457389

  @DF-RHF Final Energy:  -380.89301255322437

   => Energetics <=

    Nuclear Repulsion Energy =            322.7498531812067313
    One-Electron Energy =               -1161.1326258163401235
    Two-Electron Energy =                 457.4897600819090258
    Total Energy =                       -380.8930125532243665
  Basis Set: (AUG-CC-PVTZ AUX)
    Blend: AUG-CC-PVTZ-RI
    Molecular point group: c1

    Geometry (in Angstrom), charge = 0, multiplicity = 1:

       Center              X                  Y                   Z               Mass
    ------------   -----------------  -----------------  -----------------  -----------------
         O            0.018295335665    -0.576715827205     0.248752443893    15.994914619570
         O            2.174599335665    -0.709703827205     0.484031443893    15.994914619570
         O            1.335302335665     1.003976172795    -0.763305556107    15.994914619570
         C           -1.178267664335     0.084231172795    -0.266900556107    12.000000000000
         C           -2.312323264335    -1.064158427205    -0.290730856107    12.000000000000
         C           -1.521482664335     1.260003172795     0.627203443893    12.000000000000
         C            1.175994335665     0.007893172795    -0.079293556107    12.000000000000
         H           -0.951779664335     0.432158172795    -1.278584556107     1.007825032230
         H           -3.176249664335    -0.585001827205    -0.685236556107     1.007825032230
         H           -1.929670664335    -1.829332827205    -0.918496556107     1.007825032230
         H           -2.423448664335    -1.364989827205     0.722438443893     1.007825032230
         H           -2.439465664335     1.741686172795     0.277399443893     1.007825032230
         H           -0.717628664335     1.998334172795     0.612431443893     1.007825032230
         H           -1.676858664335     0.914159172795     1.652830443893     1.007825032230
         H            2.995593335665    -0.253228827205     0.217371443893     1.007825032230

  Basis Set: AUG-CC-PVTZ
    Blend: AUG-CC-PVTZ
  Basis Set: (AUG-CC-PVTZ AUX)
    Blend: AUG-CC-PVTZ-JKFIT
	 Reference Energy          =    -380.8930125532243665 [Eh]
	 Singles Energy            =      -0.0000000000000000 [Eh]
	 Same-Spin Energy          =      -0.3677666661709674 [Eh]
	 Opposite-Spin Energy      =      -1.1628300554126145 [Eh]
	 Correlation Energy        =      -1.5305967215835818 [Eh]
	 Total Energy              =    -382.4236092748079727 [Eh]

	 ================> DF-SCS-MP2 Energies <==================
	-----------------------------------------------------------
	 SCS Same-Spin Scale       =       0.3333333333333333 [-]
	 SCS Opposite-Spin Scale   =       1.2000000000000000 [-]
	 SCS Same-Spin Energy      =      -0.1225888887236558 [Eh]
	 SCS Opposite-Spin Energy  =      -1.3953960664951375 [Eh]
	 SCS Correlation Energy    =      -1.5179849552187932 [Eh]
	 SCS Total Energy          =    -382.4109975084431881 [Eh]
	-----------------------------------------------------------

  Dipole Moment: [D]
     X:    -0.9529      Y:    -0.0491      Z:     0.0997     Total:     0.9593

*** Psi4 exiting successfully. Buy a developer a beer!
