                               Psi4 1.4a3.dev225

  ==> Input File <==

--------------------------------------------------------------------------
#psi4
#
memory 32 gb

molecule  {
0 1
  O        0.1020250    -0.5936610     0.2432790
  O        2.2583290    -0.7266490     0.4785580
  O        1.4190320     0.9870310    -0.7687790
  C       -1.0880453     0.1353745    -0.3531546
  C       -2.1583360    -1.0099580    -0.2947280
  C       -1.4377530     1.2430580     0.6217300
  C        1.2597240    -0.0090520    -0.0847670
  H       -0.8680500     0.4152130    -1.2840580
  H       -3.0925200    -0.6019470    -0.6907100
  H       -1.8459410    -1.8462780    -0.9239700
  H       -2.3397190    -1.3819350     0.7169650
  H       -2.3557360     1.7247410     0.2719260
  H       -0.6338990     1.9813890     0.6069580
  H       -1.5931290     0.8972140     1.6473570
  H        3.0793230    -0.2701740     0.2118980
units angstrom
no_reorient  #important for SAPT in psi4, default
symmetry c1  #important for SAPT in psi4, default
}

set PROPERTIES_ORIGIN ["COM"]
properties('MP2/aug-cc-pvtz', properties = ['dipole'])
--------------------------------------------------------------------------

    Molecular point group: c1
  Charge       = 0
  Multiplicity = 1
  Basis Set: AUG-CC-PVTZ
    Blend: AUG-CC-PVTZ
  Basis Set: (AUG-CC-PVTZ AUX)
    Blend: AUG-CC-PVTZ-JKFIT

    Orbital Energies [Eh]
    ---------------------

    Doubly Occupied:

       1A    -20.619523     2A    -20.607568     3A    -20.549067
       4A    -11.436193     5A    -11.301736     6A    -11.229619
       7A    -11.226361     8A     -1.499072     9A     -1.390228
      10A     -1.359930    11A     -1.072559    12A     -0.947838
      13A     -0.875578    14A     -0.810022    15A     -0.737592
      16A     -0.714259    17A     -0.680496    18A     -0.636235
      19A     -0.620041    20A     -0.599276    21A     -0.570540
      22A     -0.553538    23A     -0.534122    24A     -0.530969
      25A     -0.508143    26A     -0.495385    27A     -0.474988
      28A     -0.460211

  @DF-RHF Final Energy:  -380.88651359887137

   => Energetics <=

    Nuclear Repulsion Energy =            323.5557876530654653
    One-Electron Energy =               -1162.8024242516473805
    Two-Electron Energy =                 458.3601229997105975
    Total Energy =                       -380.8865135988713746
  Basis Set: (AUG-CC-PVTZ AUX)
    Blend: AUG-CC-PVTZ-RI
    Molecular point group: c1

    Geometry (in Angstrom), charge = 0, multiplicity = 1:

       Center              X                  Y                   Z               Mass
    ------------   -----------------  -----------------  -----------------  -----------------
         O            0.009443561429    -0.592773990094     0.257898776344    15.994914619570
         O            2.165747561429    -0.725761990094     0.493177776344    15.994914619570
         O            1.326450561429     0.987918009906    -0.754159223656    15.994914619570
         C           -1.180626738571     0.136261509906    -0.338534823656    12.000000000000
         C           -2.250917438571    -1.009070990094    -0.280108223656    12.000000000000
         C           -1.530334438571     1.243945009906     0.636349776344    12.000000000000
         C            1.167142561429    -0.008164990094    -0.070147223656    12.000000000000
         H           -0.960631438571     0.416100009906    -1.269438223656     1.007825032230
         H           -3.185101438571    -0.601059990094    -0.676090223656     1.007825032230
         H           -1.938522438571    -1.845390990094    -0.909350223656     1.007825032230
         H           -2.432300438571    -1.381047990094     0.731584776344     1.007825032230
         H           -2.448317438571     1.725628009906     0.286545776344     1.007825032230
         H           -0.726480438571     1.982276009906     0.621577776344     1.007825032230
         H           -1.685710438571     0.898101009906     1.661976776344     1.007825032230
         H            2.986741561429    -0.269286990094     0.226517776344     1.007825032230

  Basis Set: AUG-CC-PVTZ
    Blend: AUG-CC-PVTZ
  Basis Set: (AUG-CC-PVTZ AUX)
    Blend: AUG-CC-PVTZ-JKFIT
	 Reference Energy          =    -380.8865135988713746 [Eh]
	 Singles Energy            =      -0.0000000000000000 [Eh]
	 Same-Spin Energy          =      -0.3680668679142859 [Eh]
	 Opposite-Spin Energy      =      -1.1638481400041045 [Eh]
	 Correlation Energy        =      -1.5319150079183905 [Eh]
	 Total Energy              =    -382.4184286067897460 [Eh]

	 ================> DF-SCS-MP2 Energies <==================
	-----------------------------------------------------------
	 SCS Same-Spin Scale       =       0.3333333333333333 [-]
	 SCS Opposite-Spin Scale   =       1.2000000000000000 [-]
	 SCS Same-Spin Energy      =      -0.1226889559714286 [Eh]
	 SCS Opposite-Spin Energy  =      -1.3966177680049254 [Eh]
	 SCS Correlation Energy    =      -1.5193067239763540 [Eh]
	 SCS Total Energy          =    -382.4058203228477169 [Eh]
	-----------------------------------------------------------

  Dipole Moment: [D]
     X:    -1.1110      Y:     0.0142      Z:     0.0364     Total:     1.1117

*** Psi4 exiting successfully. Buy a developer a beer!
