                               Psi4 1.4a3.dev225

  ==> Input File <==

--------------------------------------------------------------------------
#psi4
#
memory 32 gb

molecule  {
0 1
  O        0.1020250    -0.5936610     0.2432790
  O        2.2583290    -0.7266490     0.4785580
  O        1.4190320     0.9870310    -0.7687790
  C       -1.2583389     0.1577649    -0.3429632
  C       -2.1583360    -1.0099580    -0.2947280
  C       -1.4377530     1.2430580     0.6217300
  C        1.2597240    -0.0090520    -0.0847670
  H       -0.8680500     0.4152130    -1.2840580
  H       -3.0925200    -0.6019470    -0.6907100
  H       -1.8459410    -1.8462780    -0.9239700
  H       -2.3397190    -1.3819350     0.7169650
  H       -2.3557360     1.7247410     0.2719260
  H       -0.6338990     1.9813890     0.6069580
  H       -1.5931290     0.8972140     1.6473570
  H        3.0793230    -0.2701740     0.2118980
units angstrom
no_reorient  #important for SAPT in psi4, default
symmetry c1  #important for SAPT in psi4, default
}

set PROPERTIES_ORIGIN ["COM"]
properties('MP2/aug-cc-pvtz', properties = ['dipole'])
--------------------------------------------------------------------------

    Molecular point group: c1
  Charge       = 0
  Multiplicity = 1
  Basis Set: AUG-CC-PVTZ
    Blend: AUG-CC-PVTZ
  Basis Set: (AUG-CC-PVTZ AUX)
    Blend: AUG-CC-PVTZ-JKFIT

    Orbital Energies [Eh]
    ---------------------

    Doubly Occupied:

       1A    -20.607983     2A    -20.577227     3A    -20.536087
       4A    -11.421079     5A    -11.316548     6A    -11.236430
       7A    -11.233115     8A     -1.479063     9A     -1.363462
      10A     -1.338405    11A     -1.099721    12A     -0.970451
      13A     -0.854769    14A     -0.798337    15A     -0.716506
      16A     -0.701029    17A     -0.663618    18A     -0.645628
      19A     -0.626427    20A     -0.597831    21A     -0.578581
      22A     -0.559695    23A     -0.536120    24A     -0.523428
      25A     -0.498444    26A     -0.490955    27A     -0.460526
      28A     -0.456590

  @DF-RHF Final Energy:  -380.87297999489874

   => Energetics <=

    Nuclear Repulsion Energy =            322.0646426456308973
    One-Electron Energy =               -1160.0991370697772709
    Two-Electron Energy =                 457.1615144292476316
    Total Energy =                       -380.8729799948987420
  Basis Set: (AUG-CC-PVTZ AUX)
    Blend: AUG-CC-PVTZ-RI
    Molecular point group: c1

    Geometry (in Angstrom), charge = 0, multiplicity = 1:

       Center              X                  Y                   Z               Mass
    ------------   -----------------  -----------------  -----------------  -----------------
         O            0.029083882067    -0.595356322226     0.256723380653    15.994914619570
         O            2.185387882067    -0.728344322226     0.492002380653    15.994914619570
         O            1.346090882067     0.985335677774    -0.755334619347    15.994914619570
         C           -1.331280017933     0.156069577774    -0.329518819347    12.000000000000
         C           -2.231277117933    -1.011653322226    -0.281283619347    12.000000000000
         C           -1.510694117933     1.241362677774     0.635174380653    12.000000000000
         C            1.186782882067    -0.010747322226    -0.071322619347    12.000000000000
         H           -0.940991117933     0.413517677774    -1.270613619347     1.007825032230
         H           -3.165461117933    -0.603642322226    -0.677265619347     1.007825032230
         H           -1.918882117933    -1.847973322226    -0.910525619347     1.007825032230
         H           -2.412660117933    -1.383630322226     0.730409380653     1.007825032230
         H           -2.428677117933     1.723045677774     0.285370380653     1.007825032230
         H           -0.706840117933     1.979693677774     0.620402380653     1.007825032230
         H           -1.666070117933     0.895518677774     1.660801380653     1.007825032230
         H            3.006381882067    -0.271869322226     0.225342380653     1.007825032230

  Basis Set: AUG-CC-PVTZ
    Blend: AUG-CC-PVTZ
  Basis Set: (AUG-CC-PVTZ AUX)
    Blend: AUG-CC-PVTZ-JKFIT
	 Reference Energy          =    -380.8729799948987420 [Eh]
	 Singles Energy            =      -0.0000000000000000 [Eh]
	 Same-Spin Energy          =      -0.3694803181708424 [Eh]
	 Opposite-Spin Energy      =      -1.1654981760781649 [Eh]
	 Correlation Energy        =      -1.5349784942490072 [Eh]
	 Total Energy              =    -382.4079584891477452 [Eh]

	 ================> DF-SCS-MP2 Energies <==================
	-----------------------------------------------------------
	 SCS Same-Spin Scale       =       0.3333333333333333 [-]
	 SCS Opposite-Spin Scale   =       1.2000000000000000 [-]
	 SCS Same-Spin Energy      =      -0.1231601060569475 [Eh]
	 SCS Opposite-Spin Energy  =      -1.3985978112937978 [Eh]
	 SCS Correlation Energy    =      -1.5217579173507452 [Eh]
	 SCS Total Energy          =    -382.3947379122494681 [Eh]
	-----------------------------------------------------------

  Dipole Moment: [D]
     X:    -1.9515      Y:     0.1032      Z:     0.0273     Total:     1.9544

*** Psi4 exiting successfully. Buy a developer a beer!
