                               Psi4 1.4a3.dev225

  ==> Input File <==

--------------------------------------------------------------------------
#psi4
#
memory 32 gb

molecule  {
0 1
  O        0.1020250    -0.5936610     0.2432790
  O        2.2583290    -0.7266490     0.4785580
  O        1.4190320     0.9870310    -0.7687790
  C       -1.0945380     0.0672860    -0.2723740
  C       -2.2988511    -1.1522492    -0.2976807
  C       -1.4377530     1.2430580     0.6217300
  C        1.2597240    -0.0090520    -0.0847670
  H       -0.8680500     0.4152130    -1.2840580
  H       -3.0925200    -0.6019470    -0.6907100
  H       -1.8459410    -1.8462780    -0.9239700
  H       -2.3397190    -1.3819350     0.7169650
  H       -2.3557360     1.7247410     0.2719260
  H       -0.6338990     1.9813890     0.6069580
  H       -1.5931290     0.8972140     1.6473570
  H        3.0793230    -0.2701740     0.2118980
units angstrom
no_reorient  #important for SAPT in psi4, default
symmetry c1  #important for SAPT in psi4, default
}

set PROPERTIES_ORIGIN ["COM"]
properties('MP2/aug-cc-pvtz', properties = ['dipole'])
--------------------------------------------------------------------------

    Molecular point group: c1
  Charge       = 0
  Multiplicity = 1
  Basis Set: AUG-CC-PVTZ
    Blend: AUG-CC-PVTZ
  Basis Set: (AUG-CC-PVTZ AUX)
    Blend: AUG-CC-PVTZ-JKFIT

    Orbital Energies [Eh]
    ---------------------

    Doubly Occupied:

       1A    -20.622551     2A    -20.612571     3A    -20.551423
       4A    -11.440615     5A    -11.306964     6A    -11.226256
       7A    -11.223856     8A     -1.504410     9A     -1.399045
      10A     -1.363336    11A     -1.055355    12A     -0.953392
      13A     -0.888719    14A     -0.785809    15A     -0.743806
      16A     -0.714641    17A     -0.685288    18A     -0.636049
      19A     -0.624077    20A     -0.600322    21A     -0.582965
      22A     -0.565964    23A     -0.561363    24A     -0.529755
      25A     -0.496558    26A     -0.477545    27A     -0.474847
      28A     -0.437514

  @DF-RHF Final Energy:  -380.87272732831838

   => Energetics <=

    Nuclear Repulsion Energy =            321.1968403525874578
    One-Electron Energy =               -1158.0091507739427925
    Two-Electron Energy =                 455.9395830930369016
    Total Energy =                       -380.8727273283183763
  Basis Set: (AUG-CC-PVTZ AUX)
    Blend: AUG-CC-PVTZ-RI
    Molecular point group: c1

    Geometry (in Angstrom), charge = 0, multiplicity = 1:

       Center              X                  Y                   Z               Mass
    ------------   -----------------  -----------------  -----------------  -----------------
         O            0.026398281561    -0.568510454860     0.248922720223    15.994914619570
         O            2.182702281561    -0.701498454860     0.484201720223    15.994914619570
         O            1.343405281561     1.012181545140    -0.763135279777    15.994914619570
         C           -1.170164718439     0.092436545140    -0.266730279777    12.000000000000
         C           -2.374477818439    -1.127098654860    -0.292036979777    12.000000000000
         C           -1.513379718439     1.268208545140     0.627373720223    12.000000000000
         C            1.184097281561     0.016098545140    -0.079123279777    12.000000000000
         H           -0.943676718439     0.440363545140    -1.278414279777     1.007825032230
         H           -3.168146718439    -0.576796454860    -0.685066279777     1.007825032230
         H           -1.921567718439    -1.821127454860    -0.918326279777     1.007825032230
         H           -2.415345718439    -1.356784454860     0.722608720223     1.007825032230
         H           -2.431362718439     1.749891545140     0.277569720223     1.007825032230
         H           -0.709525718439     2.006539545140     0.612601720223     1.007825032230
         H           -1.668755718439     0.922364545140     1.653000720223     1.007825032230
         H            3.003696281561    -0.245023454860     0.217541720223     1.007825032230

  Basis Set: AUG-CC-PVTZ
    Blend: AUG-CC-PVTZ
  Basis Set: (AUG-CC-PVTZ AUX)
    Blend: AUG-CC-PVTZ-JKFIT
	 Reference Energy          =    -380.8727273283183763 [Eh]
	 Singles Energy            =      -0.0000000000000000 [Eh]
	 Same-Spin Energy          =      -0.3680726596587158 [Eh]
	 Opposite-Spin Energy      =      -1.1641137717631944 [Eh]
	 Correlation Energy        =      -1.5321864314219102 [Eh]
	 Total Energy              =    -382.4049137597402819 [Eh]

	 ================> DF-SCS-MP2 Energies <==================
	-----------------------------------------------------------
	 SCS Same-Spin Scale       =       0.3333333333333333 [-]
	 SCS Opposite-Spin Scale   =       1.2000000000000000 [-]
	 SCS Same-Spin Energy      =      -0.1226908865529053 [Eh]
	 SCS Opposite-Spin Energy  =      -1.3969365261158333 [Eh]
	 SCS Correlation Energy    =      -1.5196274126687386 [Eh]
	 SCS Total Energy          =    -382.3923547409871162 [Eh]
	-----------------------------------------------------------

  Dipole Moment: [D]
     X:    -0.8947      Y:    -0.0003      Z:     0.1109     Total:     0.9016

*** Psi4 exiting successfully. Buy a developer a beer!
