                               Psi4 1.4a3.dev225

  ==> Input File <==

--------------------------------------------------------------------------
#psi4
#
memory 32 gb

molecule  {
0 1
  O        0.1020250    -0.5936610     0.2432790
  O        2.2583290    -0.7266490     0.4785580
  O        1.4190320     0.9870310    -0.7687790
  C       -1.0945380     0.0672860    -0.2723740
  C       -2.1583360    -1.0099580    -0.2947280
  C       -1.4377530     1.2430580     0.6217300
  C        1.2597240    -0.0090520    -0.0847670
  H       -0.8680500     0.4152130    -1.2840580
  H       -3.0925200    -0.6019470    -0.6907100
  H       -1.8516613    -1.8309640    -0.9124479
  H       -2.3397190    -1.3819350     0.7169650
  H       -2.3557360     1.7247410     0.2719260
  H       -0.6338990     1.9813890     0.6069580
  H       -1.5931290     0.8972140     1.6473570
  H        3.0793230    -0.2701740     0.2118980
units angstrom
no_reorient  #important for SAPT in psi4, default
symmetry c1  #important for SAPT in psi4, default
}

set PROPERTIES_ORIGIN ["COM"]
properties('MP2/aug-cc-pvtz', properties = ['dipole'])
--------------------------------------------------------------------------

    Molecular point group: c1
  Charge       = 0
  Multiplicity = 1
  Basis Set: AUG-CC-PVTZ
    Blend: AUG-CC-PVTZ
  Basis Set: (AUG-CC-PVTZ AUX)
    Blend: AUG-CC-PVTZ-JKFIT

    Orbital Energies [Eh]
    ---------------------

    Doubly Occupied:

       1A    -20.622704     2A    -20.612424     3A    -20.551716
       4A    -11.440899     5A    -11.300962     6A    -11.224291
       7A    -11.223440     8A     -1.505058     9A     -1.400529
      10A     -1.363853    11A     -1.076474    12A     -0.952968
      13A     -0.885809    14A     -0.788684    15A     -0.746236
      16A     -0.715431    17A     -0.686293    18A     -0.636925
      19A     -0.627746    20A     -0.603045    21A     -0.570663
      22A     -0.552943    23A     -0.544822    24A     -0.528157
      25A     -0.503722    26A     -0.488048    27A     -0.477679
      28A     -0.463827

  @DF-RHF Final Energy:  -380.90062593453666

   => Energetics <=

    Nuclear Repulsion Energy =            324.4652283966869959
    One-Electron Energy =               -1164.5410129128713379
    Two-Electron Energy =                 459.1751585816476222
    Total Energy =                       -380.9006259345366630
  Basis Set: (AUG-CC-PVTZ AUX)
    Blend: AUG-CC-PVTZ-RI
    Molecular point group: c1

    Geometry (in Angstrom), charge = 0, multiplicity = 1:

       Center              X                  Y                   Z               Mass
    ------------   -----------------  -----------------  -----------------  -----------------
         O            0.010247786296    -0.585069534259     0.248470573547    15.994914619570
         O            2.166551786296    -0.718057534259     0.483749573547    15.994914619570
         O            1.327254786296     0.995622465741    -0.763587426453    15.994914619570
         C           -1.186315213704     0.075877465741    -0.267182426453    12.000000000000
         C           -2.250113213704    -1.001366534259    -0.289536426453    12.000000000000
         C           -1.529530213704     1.251649465741     0.626921573547    12.000000000000
         C            1.167946786296    -0.000460534259    -0.079575426453    12.000000000000
         H           -0.959827213704     0.423804465741    -1.278866426453     1.007825032230
         H           -3.184297213704    -0.593355534259    -0.685518426453     1.007825032230
         H           -1.943438513704    -1.822372534259    -0.907256326453     1.007825032230
         H           -2.431496213704    -1.373343534259     0.722156573547     1.007825032230
         H           -2.447513213704     1.733332465741     0.277117573547     1.007825032230
         H           -0.725676213704     1.989980465741     0.612149573547     1.007825032230
         H           -1.684906213704     0.905805465741     1.652548573547     1.007825032230
         H            2.987545786296    -0.261582534259     0.217089573547     1.007825032230

  Basis Set: AUG-CC-PVTZ
    Blend: AUG-CC-PVTZ
  Basis Set: (AUG-CC-PVTZ AUX)
    Blend: AUG-CC-PVTZ-JKFIT
	 Reference Energy          =    -380.9006259345366630 [Eh]
	 Singles Energy            =      -0.0000000000000000 [Eh]
	 Same-Spin Energy          =      -0.3681040575339108 [Eh]
	 Opposite-Spin Energy      =      -1.1626483167280304 [Eh]
	 Correlation Energy        =      -1.5307523742619411 [Eh]
	 Total Energy              =    -382.4313783087986280 [Eh]

	 ================> DF-SCS-MP2 Energies <==================
	-----------------------------------------------------------
	 SCS Same-Spin Scale       =       0.3333333333333333 [-]
	 SCS Opposite-Spin Scale   =       1.2000000000000000 [-]
	 SCS Same-Spin Energy      =      -0.1227013525113036 [Eh]
	 SCS Opposite-Spin Energy  =      -1.3951779800736364 [Eh]
	 SCS Correlation Energy    =      -1.5178793325849400 [Eh]
	 SCS Total Energy          =    -382.4185052671215885 [Eh]
	-----------------------------------------------------------

  Dipole Moment: [D]
     X:    -0.9926      Y:    -0.0867      Z:     0.0834     Total:     0.9999

*** Psi4 exiting successfully. Buy a developer a beer!
