                               Psi4 1.4a3.dev225

  ==> Input File <==

--------------------------------------------------------------------------
#psi4
#
memory 32 gb

molecule  {
0 1
  O        0.1020250    -0.5936610     0.2432790
  O        2.2583290    -0.7266490     0.4785580
  O        1.4190320     0.9870310    -0.7687790
  C       -1.0945380     0.0672860    -0.2723740
  C       -2.1583360    -1.0099580    -0.2947280
  C       -1.4377530     1.2430580     0.6217300
  C        1.3462630     0.0346480    -0.1092887
  H       -0.8680500     0.4152130    -1.2840580
  H       -3.0925200    -0.6019470    -0.6907100
  H       -1.8459410    -1.8462780    -0.9239700
  H       -2.3397190    -1.3819350     0.7169650
  H       -2.3557360     1.7247410     0.2719260
  H       -0.6338990     1.9813890     0.6069580
  H       -1.5931290     0.8972140     1.6473570
  H        3.0793230    -0.2701740     0.2118980
units angstrom
no_reorient  #important for SAPT in psi4, default
symmetry c1  #important for SAPT in psi4, default
}

set PROPERTIES_ORIGIN ["COM"]
properties('MP2/aug-cc-pvtz', properties = ['dipole'])
--------------------------------------------------------------------------

    Molecular point group: c1
  Charge       = 0
  Multiplicity = 1
  Basis Set: AUG-CC-PVTZ
    Blend: AUG-CC-PVTZ
  Basis Set: (AUG-CC-PVTZ AUX)
    Blend: AUG-CC-PVTZ-JKFIT

    Orbital Energies [Eh]
    ---------------------

    Doubly Occupied:

       1A    -20.637950     2A    -20.586404     3A    -20.570613
       4A    -11.440553     5A    -11.288014     6A    -11.218297
       7A    -11.216387     8A     -1.517413     9A     -1.416625
      10A     -1.363001    11A     -1.058621    12A     -0.943275
      13A     -0.874488    14A     -0.783028    15A     -0.739379
      16A     -0.732264    17A     -0.686754    18A     -0.647402
      19A     -0.616349    20A     -0.608391    21A     -0.566729
      22A     -0.545225    23A     -0.532246    24A     -0.520679
      25A     -0.513312    26A     -0.495971    27A     -0.472526
      28A     -0.453292

  @DF-RHF Final Energy:  -380.88797587373074

   => Energetics <=

    Nuclear Repulsion Energy =            323.8860749428577037
    One-Electron Energy =               -1163.4577282853688303
    Two-Electron Energy =                 458.6836774687803882
    Total Energy =                       -380.8879758737307384
  Basis Set: (AUG-CC-PVTZ AUX)
    Blend: AUG-CC-PVTZ-RI
    Molecular point group: c1

    Geometry (in Angstrom), charge = 0, multiplicity = 1:

       Center              X                  Y                   Z               Mass
    ------------   -----------------  -----------------  -----------------  -----------------
         O            0.000211652550    -0.589961212868     0.251410318559    15.994914619570
         O            2.156515652550    -0.722949212868     0.486689318559    15.994914619570
         O            1.317218652550     0.990730787132    -0.760647681441    15.994914619570
         C           -1.196351347450     0.070985787132    -0.264242681441    12.000000000000
         C           -2.260149347450    -1.006258212868    -0.286596681441    12.000000000000
         C           -1.539566347450     1.246757787132     0.629861318559    12.000000000000
         C            1.244449652550     0.038347787132    -0.101157381441    12.000000000000
         H           -0.969863347450     0.418912787132    -1.275926681441     1.007825032230
         H           -3.194333347450    -0.598247212868    -0.682578681441     1.007825032230
         H           -1.947754347450    -1.842578212868    -0.915838681441     1.007825032230
         H           -2.441532347450    -1.378235212868     0.725096318559     1.007825032230
         H           -2.457549347450     1.728440787132     0.280057318559     1.007825032230
         H           -0.735712347450     1.985088787132     0.615089318559     1.007825032230
         H           -1.694942347450     0.900913787132     1.655488318559     1.007825032230
         H            2.977509652550    -0.266474212868     0.220029318559     1.007825032230

  Basis Set: AUG-CC-PVTZ
    Blend: AUG-CC-PVTZ
  Basis Set: (AUG-CC-PVTZ AUX)
    Blend: AUG-CC-PVTZ-JKFIT
	 Reference Energy          =    -380.8879758737307384 [Eh]
	 Singles Energy            =      -0.0000000000000000 [Eh]
	 Same-Spin Energy          =      -0.3682432187781640 [Eh]
	 Opposite-Spin Energy      =      -1.1634803808014962 [Eh]
	 Correlation Energy        =      -1.5317235995796601 [Eh]
	 Total Energy              =    -382.4196994733104020 [Eh]

	 ================> DF-SCS-MP2 Energies <==================
	-----------------------------------------------------------
	 SCS Same-Spin Scale       =       0.3333333333333333 [-]
	 SCS Opposite-Spin Scale   =       1.2000000000000000 [-]
	 SCS Same-Spin Energy      =      -0.1227477395927213 [Eh]
	 SCS Opposite-Spin Energy  =      -1.3961764569617954 [Eh]
	 SCS Correlation Energy    =      -1.5189241965545166 [Eh]
	 SCS Total Energy          =    -382.4069000702852463 [Eh]
	-----------------------------------------------------------

  Dipole Moment: [D]
     X:     0.0533      Y:     0.2315      Z:    -0.1115     Total:     0.2625

*** Psi4 exiting successfully. Buy a developer a beer!
