                               Psi4 1.4a3.dev225

  ==> Input File <==

--------------------------------------------------------------------------
#psi4
#
memory 32 gb

molecule  {
0 1
  O        0.1020250    -0.5936610     0.2432790
  O        2.2583290    -0.7266490     0.4785580
  O        1.4190320     0.9870310    -0.7687790
  C       -1.0945380     0.0672860    -0.2723740
  C       -2.1583360    -1.0099580    -0.2947280
  C       -1.4377530     1.2430580     0.6217300
  C        1.2597240    -0.0090520    -0.0847670
  H       -0.8680500     0.4152130    -1.2840580
  H       -3.0925200    -0.6019470    -0.6907100
  H       -1.8459410    -1.8462780    -0.9239700
  H       -2.3397190    -1.3819350     0.7169650
  H       -2.3557360     1.7247410     0.2719260
  H       -0.6338990     1.9813890     0.6069580
  H       -1.5931290     0.8972140     1.6473570
  H        3.0372844    -0.2935476     0.2255522
units angstrom
no_reorient  #important for SAPT in psi4, default
symmetry c1  #important for SAPT in psi4, default
}

set PROPERTIES_ORIGIN ["COM"]
properties('MP2/aug-cc-pvtz', properties = ['dipole'])
--------------------------------------------------------------------------

    Molecular point group: c1
  Charge       = 0
  Multiplicity = 1
  Basis Set: AUG-CC-PVTZ
    Blend: AUG-CC-PVTZ
  Basis Set: (AUG-CC-PVTZ AUX)
    Blend: AUG-CC-PVTZ-JKFIT

    Orbital Energies [Eh]
    ---------------------

    Doubly Occupied:

       1A    -20.619404     2A    -20.612925     3A    -20.552815
       4A    -11.442018     5A    -11.301486     6A    -11.226974
       7A    -11.223914     8A     -1.509608     9A     -1.407791
      10A     -1.366127    11A     -1.077057    12A     -0.952150
      13A     -0.892061    14A     -0.791177    15A     -0.750446
      16A     -0.718776    17A     -0.687497    18A     -0.640768
      19A     -0.626597    20A     -0.604398    21A     -0.571651
      22A     -0.553295    23A     -0.544872    24A     -0.527744
      25A     -0.504360    26A     -0.488809    27A     -0.478785
      28A     -0.464272

  @DF-RHF Final Energy:  -380.90115746897635

   => Energetics <=

    Nuclear Repulsion Energy =            324.6980854946230579
    One-Electron Energy =               -1164.9229350642763166
    Two-Electron Energy =                 459.3236921006769649
    Total Energy =                       -380.9011574689763506
  Basis Set: (AUG-CC-PVTZ AUX)
    Blend: AUG-CC-PVTZ-RI
    Molecular point group: c1

    Geometry (in Angstrom), charge = 0, multiplicity = 1:

       Center              X                  Y                   Z               Mass
    ------------   -----------------  -----------------  -----------------  -----------------
         O            0.010599573189    -0.584694797816     0.248449921567    15.994914619570
         O            2.166903573189    -0.717682797816     0.483728921567    15.994914619570
         O            1.327606573189     0.995997202184    -0.763608078433    15.994914619570
         C           -1.185963426811     0.076252202184    -0.267203078433    12.000000000000
         C           -2.249761426811    -1.000991797816    -0.289557078433    12.000000000000
         C           -1.529178426811     1.252024202184     0.626900921567    12.000000000000
         C            1.168298573189    -0.000085797816    -0.079596078433    12.000000000000
         H           -0.959475426811     0.424179202184    -1.278887078433     1.007825032230
         H           -3.183945426811    -0.592980797816    -0.685539078433     1.007825032230
         H           -1.937366426811    -1.837311797816    -0.918799078433     1.007825032230
         H           -2.431144426811    -1.372968797816     0.722135921567     1.007825032230
         H           -2.447161426811     1.733707202184     0.277096921567     1.007825032230
         H           -0.725324426811     1.990355202184     0.612128921567     1.007825032230
         H           -1.684554426811     0.906180202184     1.652527921567     1.007825032230
         H            2.945858973189    -0.284581397816     0.230723121567     1.007825032230

  Basis Set: AUG-CC-PVTZ
    Blend: AUG-CC-PVTZ
  Basis Set: (AUG-CC-PVTZ AUX)
    Blend: AUG-CC-PVTZ-JKFIT
	 Reference Energy          =    -380.9011574689763506 [Eh]
	 Singles Energy            =      -0.0000000000000000 [Eh]
	 Same-Spin Energy          =      -0.3675254458009358 [Eh]
	 Opposite-Spin Energy      =      -1.1613912809457514 [Eh]
	 Correlation Energy        =      -1.5289167267466872 [Eh]
	 Total Energy              =    -382.4300741957230230 [Eh]

	 ================> DF-SCS-MP2 Energies <==================
	-----------------------------------------------------------
	 SCS Same-Spin Scale       =       0.3333333333333333 [-]
	 SCS Opposite-Spin Scale   =       1.2000000000000000 [-]
	 SCS Same-Spin Energy      =      -0.1225084819336452 [Eh]
	 SCS Opposite-Spin Energy  =      -1.3936695371349017 [Eh]
	 SCS Correlation Energy    =      -1.5161780190685470 [Eh]
	 SCS Total Energy          =    -382.4173354880448983 [Eh]
	-----------------------------------------------------------

  Dipole Moment: [D]
     X:    -1.0644      Y:    -0.0929      Z:     0.0960     Total:     1.0727

*** Psi4 exiting successfully. Buy a developer a beer!
