                               Psi4 1.4a3.dev225

  ==> Input File <==

--------------------------------------------------------------------------
#psi4
#
memory 32 gb

molecule  {
0 1
  O        0.1020250    -0.5936610     0.2432790
  O        2.2583290    -0.7266490     0.4785580
  O        1.4190320     0.9870310    -0.7687790
  C       -1.0945380     0.0672860    -0.2723740
  C       -2.1594352    -1.0080020    -0.3210590
  C       -1.4377530     1.2430580     0.6217300
  C        1.2597240    -0.0090520    -0.0847670
  H       -0.8680500     0.4152130    -1.2840580
  H       -3.0925200    -0.6019470    -0.6907100
  H       -1.8459410    -1.8462780    -0.9239700
  H       -2.3397190    -1.3819350     0.7169650
  H       -2.3557360     1.7247410     0.2719260
  H       -0.6338990     1.9813890     0.6069580
  H       -1.5931290     0.8972140     1.6473570
  H        3.0793230    -0.2701740     0.2118980
units angstrom
no_reorient  #important for SAPT in psi4, default
symmetry c1  #important for SAPT in psi4, default
}

set PROPERTIES_ORIGIN ["COM"]
properties('MP2/aug-cc-pvtz', properties = ['dipole'])
--------------------------------------------------------------------------

    Molecular point group: c1
  Charge       = 0
  Multiplicity = 1
  Basis Set: AUG-CC-PVTZ
    Blend: AUG-CC-PVTZ
  Basis Set: (AUG-CC-PVTZ AUX)
    Blend: AUG-CC-PVTZ-JKFIT

    Orbital Energies [Eh]
    ---------------------

    Doubly Occupied:

       1A    -20.622775     2A    -20.612684     3A    -20.551701
       4A    -11.441020     5A    -11.301141     6A    -11.226905
       7A    -11.223899     8A     -1.505121     9A     -1.400581
      10A     -1.363857    11A     -1.076053    12A     -0.952331
      13A     -0.885628    14A     -0.788088    15A     -0.746336
      16A     -0.715385    17A     -0.686346    18A     -0.636774
      19A     -0.627462    20A     -0.602527    21A     -0.572124
      22A     -0.548942    23A     -0.546779    24A     -0.528484
      25A     -0.503951    26A     -0.485163    27A     -0.477699
      28A     -0.464294

  @DF-RHF Final Energy:  -380.89988335354457

   => Energetics <=

    Nuclear Repulsion Energy =            324.3164531931962529
    One-Electron Energy =               -1164.2445724112608332
    Two-Electron Energy =                 459.0282358645200134
    Total Energy =                       -380.8998833535445669
  Basis Set: (AUG-CC-PVTZ AUX)
    Blend: AUG-CC-PVTZ-RI
    Molecular point group: c1

    Geometry (in Angstrom), charge = 0, multiplicity = 1:

       Center              X                  Y                   Z               Mass
    ------------   -----------------  -----------------  -----------------  -----------------
         O            0.010319151294    -0.585146789162     0.251618988950    15.994914619570
         O            2.166623151294    -0.718134789162     0.486897988950    15.994914619570
         O            1.327326151294     0.995545210838    -0.760439011050    15.994914619570
         C           -1.186243848706     0.075800210838    -0.264034011050    12.000000000000
         C           -2.251141048706    -0.999487789162    -0.312719011050    12.000000000000
         C           -1.529458848706     1.251572210838     0.630069988950    12.000000000000
         C            1.168018151294    -0.000537789162    -0.076427011050    12.000000000000
         H           -0.959755848706     0.423727210838    -1.275718011050     1.007825032230
         H           -3.184225848706    -0.593432789162    -0.682370011050     1.007825032230
         H           -1.937646848706    -1.837763789162    -0.915630011050     1.007825032230
         H           -2.431424848706    -1.373420789162     0.725304988950     1.007825032230
         H           -2.447441848706     1.733255210838     0.280265988950     1.007825032230
         H           -0.725604848706     1.989903210838     0.615297988950     1.007825032230
         H           -1.684834848706     0.905728210838     1.655696988950     1.007825032230
         H            2.987617151294    -0.261659789162     0.220237988950     1.007825032230

  Basis Set: AUG-CC-PVTZ
    Blend: AUG-CC-PVTZ
  Basis Set: (AUG-CC-PVTZ AUX)
    Blend: AUG-CC-PVTZ-JKFIT
	 Reference Energy          =    -380.8998833535445669 [Eh]
	 Singles Energy            =      -0.0000000000000000 [Eh]
	 Same-Spin Energy          =      -0.3680961964740243 [Eh]
	 Opposite-Spin Energy      =      -1.1627763215442048 [Eh]
	 Correlation Energy        =      -1.5308725180182292 [Eh]
	 Total Energy              =    -382.4307558715627806 [Eh]

	 ================> DF-SCS-MP2 Energies <==================
	-----------------------------------------------------------
	 SCS Same-Spin Scale       =       0.3333333333333333 [-]
	 SCS Opposite-Spin Scale   =       1.2000000000000000 [-]
	 SCS Same-Spin Energy      =      -0.1226987321580081 [Eh]
	 SCS Opposite-Spin Energy  =      -1.3953315858530457 [Eh]
	 SCS Correlation Energy    =      -1.5180303180110537 [Eh]
	 SCS Total Energy          =    -382.4179136715555956 [Eh]
	-----------------------------------------------------------

  Dipole Moment: [D]
     X:    -0.9900      Y:    -0.0734      Z:     0.0781     Total:     0.9957

*** Psi4 exiting successfully. Buy a developer a beer!
