                               Psi4 1.4a3.dev225

  ==> Input File <==

--------------------------------------------------------------------------
#psi4
#
memory 32 gb

molecule  {
0 1
  O        0.1020250    -0.5936610     0.2432790
  O        2.2583290    -0.7266490     0.4785580
  O        1.4190320     0.9870310    -0.7687790
  C       -1.0945380     0.0672860    -0.2723740
  C       -2.1583360    -1.0099580    -0.2947280
  C       -1.4377530     1.2430580     0.6217300
  C        1.2597240    -0.0090520    -0.0847670
  H       -0.8680500     0.4152130    -1.2840580
  H       -3.0925200    -0.6019470    -0.6907100
  H       -1.8316402    -1.8845630    -0.9527754
  H       -2.3397190    -1.3819350     0.7169650
  H       -2.3557360     1.7247410     0.2719260
  H       -0.6338990     1.9813890     0.6069580
  H       -1.5931290     0.8972140     1.6473570
  H        3.0793230    -0.2701740     0.2118980
units angstrom
no_reorient  #important for SAPT in psi4, default
symmetry c1  #important for SAPT in psi4, default
}

set PROPERTIES_ORIGIN ["COM"]
properties('MP2/aug-cc-pvtz', properties = ['dipole'])
--------------------------------------------------------------------------

    Molecular point group: c1
  Charge       = 0
  Multiplicity = 1
  Basis Set: AUG-CC-PVTZ
    Blend: AUG-CC-PVTZ
  Basis Set: (AUG-CC-PVTZ AUX)
    Blend: AUG-CC-PVTZ-JKFIT

    Orbital Energies [Eh]
    ---------------------

    Doubly Occupied:

       1A    -20.622734     2A    -20.612486     3A    -20.551777
       4A    -11.440957     5A    -11.301673     6A    -11.232651
       7A    -11.224124     8A     -1.505109     9A     -1.400579
      10A     -1.363914    11A     -1.075702    12A     -0.949444
      13A     -0.884697    14A     -0.788181    15A     -0.746069
      16A     -0.715475    17A     -0.686286    18A     -0.637088
      19A     -0.621921    20A     -0.603335    21A     -0.571048
      22A     -0.553199    23A     -0.542713    24A     -0.524072
      25A     -0.502433    26A     -0.488107    27A     -0.477731
      28A     -0.463467

  @DF-RHF Final Energy:  -380.89851447754467

   => Energetics <=

    Nuclear Repulsion Energy =            324.1737308304509497
    One-Electron Energy =               -1163.9705522541075879
    Two-Electron Energy =                 458.8983069461119726
    Total Energy =                       -380.8985144775446656
  Basis Set: (AUG-CC-PVTZ AUX)
    Blend: AUG-CC-PVTZ-RI
    Molecular point group: c1

    Geometry (in Angstrom), charge = 0, multiplicity = 1:

       Center              X                  Y                   Z               Mass
    ------------   -----------------  -----------------  -----------------  -----------------
         O            0.010053857600    -0.584550362777     0.248861194416    15.994914619570
         O            2.166357857600    -0.717538362777     0.484140194416    15.994914619570
         O            1.327060857600     0.996141637223    -0.763196805584    15.994914619570
         C           -1.186509142400     0.076396637223    -0.266791805584    12.000000000000
         C           -2.250307142400    -1.000847362777    -0.289145805584    12.000000000000
         C           -1.529724142400     1.252168637223     0.627312194416    12.000000000000
         C            1.167752857600     0.000058637223    -0.079184805584    12.000000000000
         H           -0.960021142400     0.424323637223    -1.278475805584     1.007825032230
         H           -3.184491142400    -0.592836362777    -0.685127805584     1.007825032230
         H           -1.923611342400    -1.875452362777    -0.947193205584     1.007825032230
         H           -2.431690142400    -1.372824362777     0.722547194416     1.007825032230
         H           -2.447707142400     1.733851637223     0.277508194416     1.007825032230
         H           -0.725870142400     1.990499637223     0.612540194416     1.007825032230
         H           -1.685100142400     0.906324637223     1.652939194416     1.007825032230
         H            2.987351857600    -0.261063362777     0.217480194416     1.007825032230

  Basis Set: AUG-CC-PVTZ
    Blend: AUG-CC-PVTZ
  Basis Set: (AUG-CC-PVTZ AUX)
    Blend: AUG-CC-PVTZ-JKFIT
	 Reference Energy          =    -380.8985144775446656 [Eh]
	 Singles Energy            =      -0.0000000000000000 [Eh]
	 Same-Spin Energy          =      -0.3680908357862999 [Eh]
	 Opposite-Spin Energy      =      -1.1630982025612746 [Eh]
	 Correlation Energy        =      -1.5311890383475746 [Eh]
	 Total Energy              =    -382.4297035158922426 [Eh]

	 ================> DF-SCS-MP2 Energies <==================
	-----------------------------------------------------------
	 SCS Same-Spin Scale       =       0.3333333333333333 [-]
	 SCS Opposite-Spin Scale   =       1.2000000000000000 [-]
	 SCS Same-Spin Energy      =      -0.1226969452621000 [Eh]
	 SCS Opposite-Spin Energy  =      -1.3957178430735295 [Eh]
	 SCS Correlation Energy    =      -1.5184147883356296 [Eh]
	 SCS Total Energy          =    -382.4169292658802988 [Eh]
	-----------------------------------------------------------

  Dipole Moment: [D]
     X:    -0.9914      Y:    -0.0535      Z:     0.1049     Total:     0.9984

*** Psi4 exiting successfully. Buy a developer a beer!
