                               Psi4 1.4a3.dev225

  ==> Input File <==

--------------------------------------------------------------------------
#psi4
#
memory 32 gb

molecule  {
0 1
  O        0.1020250    -0.5936610     0.2432790
  O        2.2583290    -0.7266490     0.4785580
  O        1.4190320     0.9870310    -0.7687790
  C       -1.0854362     0.1714642    -0.3917876
  C       -2.1583360    -1.0099580    -0.2947280
  C       -1.4377530     1.2430580     0.6217300
  C        1.2597240    -0.0090520    -0.0847670
  H       -0.8680500     0.4152130    -1.2840580
  H       -3.0925200    -0.6019470    -0.6907100
  H       -1.8459410    -1.8462780    -0.9239700
  H       -2.3397190    -1.3819350     0.7169650
  H       -2.3557360     1.7247410     0.2719260
  H       -0.6338990     1.9813890     0.6069580
  H       -1.5931290     0.8972140     1.6473570
  H        3.0793230    -0.2701740     0.2118980
units angstrom
no_reorient  #important for SAPT in psi4, default
symmetry c1  #important for SAPT in psi4, default
}

set PROPERTIES_ORIGIN ["COM"]
properties('MP2/aug-cc-pvtz', properties = ['dipole'])
--------------------------------------------------------------------------

    Molecular point group: c1
  Charge       = 0
  Multiplicity = 1
  Basis Set: AUG-CC-PVTZ
    Blend: AUG-CC-PVTZ
  Basis Set: (AUG-CC-PVTZ AUX)
    Blend: AUG-CC-PVTZ-JKFIT

    Orbital Energies [Eh]
    ---------------------

    Doubly Occupied:

       1A    -20.617837     2A    -20.604706     3A    -20.547654
       4A    -11.433802     5A    -11.303162     6A    -11.231546
       7A    -11.228510     8A     -1.496114     9A     -1.385247
      10A     -1.357483    11A     -1.071889    12A     -0.946019
      13A     -0.872878    14A     -0.821506    15A     -0.732831
      16A     -0.713344    17A     -0.677699    18A     -0.636062
      19A     -0.618165    20A     -0.597807    21A     -0.571946
      22A     -0.553538    23A     -0.538950    24A     -0.529800
      25A     -0.508002    26A     -0.491186    27A     -0.473393
      28A     -0.456385

  @DF-RHF Final Energy:  -380.86796915831133

   => Energetics <=

    Nuclear Repulsion Energy =            323.1220638601888027
    One-Electron Energy =               -1161.9451467188544029
    Two-Electron Energy =                 457.9551137003543317
    Total Energy =                       -380.8679691583113254
  Basis Set: (AUG-CC-PVTZ AUX)
    Blend: AUG-CC-PVTZ-RI
    Molecular point group: c1

    Geometry (in Angstrom), charge = 0, multiplicity = 1:

       Center              X                  Y                   Z               Mass
    ------------   -----------------  -----------------  -----------------  -----------------
         O            0.009142648414    -0.596936291436     0.262354401848    15.994914619570
         O            2.165446648414    -0.729924291436     0.497633401848    15.994914619570
         O            1.326149648414     0.983755708564    -0.749703598152    15.994914619570
         C           -1.178318551586     0.168188908564    -0.372712198152    12.000000000000
         C           -2.251218351586    -1.013233291436    -0.275652598152    12.000000000000
         C           -1.530635351586     1.239782708564     0.640805401848    12.000000000000
         C            1.166841648414    -0.012327291436    -0.065691598152    12.000000000000
         H           -0.960932351586     0.411937708564    -1.264982598152     1.007825032230
         H           -3.185402351586    -0.605222291436    -0.671634598152     1.007825032230
         H           -1.938823351586    -1.849553291436    -0.904894598152     1.007825032230
         H           -2.432601351586    -1.385210291436     0.736040401848     1.007825032230
         H           -2.448618351586     1.721465708564     0.291001401848     1.007825032230
         H           -0.726781351586     1.978113708564     0.626033401848     1.007825032230
         H           -1.686011351586     0.893938708564     1.666432401848     1.007825032230
         H            2.986440648414    -0.273449291436     0.230973401848     1.007825032230

  Basis Set: AUG-CC-PVTZ
    Blend: AUG-CC-PVTZ
  Basis Set: (AUG-CC-PVTZ AUX)
    Blend: AUG-CC-PVTZ-JKFIT
	 Reference Energy          =    -380.8679691583113254 [Eh]
	 Singles Energy            =      -0.0000000000000000 [Eh]
	 Same-Spin Energy          =      -0.3682709527679178 [Eh]
	 Opposite-Spin Energy      =      -1.1649940175150175 [Eh]
	 Correlation Energy        =      -1.5332649702829353 [Eh]
	 Total Energy              =    -382.4012341285942398 [Eh]

	 ================> DF-SCS-MP2 Energies <==================
	-----------------------------------------------------------
	 SCS Same-Spin Scale       =       0.3333333333333333 [-]
	 SCS Opposite-Spin Scale   =       1.2000000000000000 [-]
	 SCS Same-Spin Energy      =      -0.1227569842559726 [Eh]
	 SCS Opposite-Spin Energy  =      -1.3979928210180210 [Eh]
	 SCS Correlation Energy    =      -1.5207498052739936 [Eh]
	 SCS Total Energy          =    -382.3887189635853474 [Eh]
	-----------------------------------------------------------

  Dipole Moment: [D]
     X:    -1.1719      Y:     0.0636      Z:     0.0232     Total:     1.1739

*** Psi4 exiting successfully. Buy a developer a beer!
