                               Psi4 1.4a3.dev225

  ==> Input File <==

--------------------------------------------------------------------------
#psi4
#
memory 32 gb

molecule  {
0 1
  O        0.1020250    -0.5936610     0.2432790
  O        2.2583290    -0.7266490     0.4785580
  O        1.4190320     0.9870310    -0.7687790
  C       -1.0945380     0.0672860    -0.2723740
  C       -2.1583360    -1.0099580    -0.2947280
  C       -1.4377530     1.2430580     0.6217300
  C        1.2597240    -0.0090520    -0.0847670
  H       -0.8680500     0.4152130    -1.2840580
  H       -3.0925200    -0.6019470    -0.6907100
  H       -1.8173394    -1.9228479    -0.9815807
  H       -2.3397190    -1.3819350     0.7169650
  H       -2.3557360     1.7247410     0.2719260
  H       -0.6338990     1.9813890     0.6069580
  H       -1.5931290     0.8972140     1.6473570
  H        3.0793230    -0.2701740     0.2118980
units angstrom
no_reorient  #important for SAPT in psi4, default
symmetry c1  #important for SAPT in psi4, default
}

set PROPERTIES_ORIGIN ["COM"]
properties('MP2/aug-cc-pvtz', properties = ['dipole'])
--------------------------------------------------------------------------

    Molecular point group: c1
  Charge       = 0
  Multiplicity = 1
  Basis Set: AUG-CC-PVTZ
    Blend: AUG-CC-PVTZ
  Basis Set: (AUG-CC-PVTZ AUX)
    Blend: AUG-CC-PVTZ-JKFIT

    Orbital Energies [Eh]
    ---------------------

    Doubly Occupied:

       1A    -20.622768     2A    -20.612559     3A    -20.551838
       4A    -11.441018     5A    -11.302259     6A    -11.238413
       7A    -11.224683     8A     -1.505164     9A     -1.400637
      10A     -1.363975    11A     -1.075449    12A     -0.947557
      13A     -0.884057    14A     -0.787974    15A     -0.746016
      16A     -0.715532    17A     -0.686317    18A     -0.637262
      19A     -0.618586    20A     -0.603585    21A     -0.571387
      22A     -0.553723    23A     -0.541846    24A     -0.520772
      25A     -0.500891    26A     -0.487938    27A     -0.477778
      28A     -0.463044

  @DF-RHF Final Energy:  -380.89407299625816

   => Energetics <=

    Nuclear Repulsion Energy =            323.9794759096085386
    One-Electron Energy =               -1163.5810366981861534
    Two-Electron Energy =                 458.7074877923195118
    Total Energy =                       -380.8940729962581599
  Basis Set: (AUG-CC-PVTZ AUX)
    Blend: AUG-CC-PVTZ-RI
    Molecular point group: c1

    Geometry (in Angstrom), charge = 0, multiplicity = 1:

       Center              X                  Y                   Z               Mass
    ------------   -----------------  -----------------  -----------------  -----------------
         O            0.009915336965    -0.584179526972     0.249140208769    15.994914619570
         O            2.166219336965    -0.717167526972     0.484419208769    15.994914619570
         O            1.326922336965     0.996512473028    -0.762917791231    15.994914619570
         C           -1.186647663035     0.076767473028    -0.266512791231    12.000000000000
         C           -2.250445663035    -1.000476526972    -0.288866791231    12.000000000000
         C           -1.529862663035     1.252539473028     0.627591208769    12.000000000000
         C            1.167614336965     0.000429473028    -0.078905791231    12.000000000000
         H           -0.960159663035     0.424694473028    -1.278196791231     1.007825032230
         H           -3.184629663035    -0.592465526972    -0.684848791231     1.007825032230
         H           -1.909449063035    -1.913366426972    -0.975719491231     1.007825032230
         H           -2.431828663035    -1.372453526972     0.722826208769     1.007825032230
         H           -2.447845663035     1.734222473028     0.277787208769     1.007825032230
         H           -0.726008663035     1.990870473028     0.612819208769     1.007825032230
         H           -1.685238663035     0.906695473028     1.653218208769     1.007825032230
         H            2.987213336965    -0.260692526972     0.217759208769     1.007825032230

  Basis Set: AUG-CC-PVTZ
    Blend: AUG-CC-PVTZ
  Basis Set: (AUG-CC-PVTZ AUX)
    Blend: AUG-CC-PVTZ-JKFIT
	 Reference Energy          =    -380.8940729962581599 [Eh]
	 Singles Energy            =      -0.0000000000000000 [Eh]
	 Same-Spin Energy          =      -0.3680848589365422 [Eh]
	 Opposite-Spin Energy      =      -1.1634767832144579 [Eh]
	 Correlation Energy        =      -1.5315616421510001 [Eh]
	 Total Energy              =    -382.4256346384091785 [Eh]

	 ================> DF-SCS-MP2 Energies <==================
	-----------------------------------------------------------
	 SCS Same-Spin Scale       =       0.3333333333333333 [-]
	 SCS Opposite-Spin Scale   =       1.2000000000000000 [-]
	 SCS Same-Spin Energy      =      -0.1226949529788474 [Eh]
	 SCS Opposite-Spin Energy  =      -1.3961721398573494 [Eh]
	 SCS Correlation Energy    =      -1.5188670928361969 [Eh]
	 SCS Total Energy          =    -382.4129400890943771 [Eh]
	-----------------------------------------------------------

  Dipole Moment: [D]
     X:    -0.9906      Y:    -0.0261      Z:     0.1227     Total:     0.9985

*** Psi4 exiting successfully. Buy a developer a beer!
