                               Psi4 1.4a3.dev225

  ==> Input File <==

--------------------------------------------------------------------------
#psi4
#
memory 32 gb

molecule  {
0 1
  O        0.1020250    -0.5936610     0.2432790
  O        2.2583290    -0.7266490     0.4785580
  O        1.4190320     0.9870310    -0.7687790
  C       -1.0945380     0.0672860    -0.2723740
  C       -2.1583360    -1.0099580    -0.2947280
  C       -1.4377530     1.2430580     0.6217300
  C        1.0866460    -0.0964520    -0.0357236
  H       -0.8680500     0.4152130    -1.2840580
  H       -3.0925200    -0.6019470    -0.6907100
  H       -1.8459410    -1.8462780    -0.9239700
  H       -2.3397190    -1.3819350     0.7169650
  H       -2.3557360     1.7247410     0.2719260
  H       -0.6338990     1.9813890     0.6069580
  H       -1.5931290     0.8972140     1.6473570
  H        3.0793230    -0.2701740     0.2118980
units angstrom
no_reorient  #important for SAPT in psi4, default
symmetry c1  #important for SAPT in psi4, default
}

set PROPERTIES_ORIGIN ["COM"]
properties('MP2/aug-cc-pvtz', properties = ['dipole'])
--------------------------------------------------------------------------

    Molecular point group: c1
  Charge       = 0
  Multiplicity = 1
  Basis Set: AUG-CC-PVTZ
    Blend: AUG-CC-PVTZ
  Basis Set: (AUG-CC-PVTZ AUX)
    Blend: AUG-CC-PVTZ-JKFIT

    Orbital Energies [Eh]
    ---------------------

    Doubly Occupied:

       1A    -20.663371     2A    -20.588630     3A    -20.511897
       4A    -11.438388     5A    -11.330561     6A    -11.245461
       7A    -11.240110     8A     -1.597868     9A     -1.381724
      10A     -1.267872    11A     -1.118650    12A     -0.971517
      13A     -0.924390    14A     -0.816480    15A     -0.768625
      16A     -0.737871    17A     -0.692410    18A     -0.642235
      19A     -0.629208    20A     -0.585232    21A     -0.577364
      22A     -0.567125    23A     -0.538335    24A     -0.532248
      25A     -0.517390    26A     -0.504588    27A     -0.429892
      28A     -0.428197

  @DF-RHF Final Energy:  -380.83174585543043

   => Energetics <=

    Nuclear Repulsion Energy =            326.0081623451138739
    One-Electron Energy =               -1167.1845381061066291
    Two-Electron Energy =                 460.3446299055623285
    Total Energy =                       -380.8317458554304267
  Basis Set: (AUG-CC-PVTZ AUX)
    Blend: AUG-CC-PVTZ-RI
    Molecular point group: c1

    Geometry (in Angstrom), charge = 0, multiplicity = 1:

       Center              X                  Y                   Z               Mass
    ------------   -----------------  -----------------  -----------------  -----------------
         O            0.030153829608    -0.574841172915     0.242925900167    15.994914619570
         O            2.186457829608    -0.707829172915     0.478204900167    15.994914619570
         O            1.347160829608     1.005850827085    -0.769132099833    15.994914619570
         C           -1.166409170392     0.086105827085    -0.272727099833    12.000000000000
         C           -2.230207170392    -0.991138172915    -0.295081099833    12.000000000000
         C           -1.509624170392     1.261877827085     0.621376900167    12.000000000000
         C            1.014774829608    -0.077632172915    -0.036076699833    12.000000000000
         H           -0.939921170392     0.434032827085    -1.284411099833     1.007825032230
         H           -3.164391170392    -0.583127172915    -0.691063099833     1.007825032230
         H           -1.917812170392    -1.827458172915    -0.924323099833     1.007825032230
         H           -2.411590170392    -1.363115172915     0.716611900167     1.007825032230
         H           -2.427607170392     1.743560827085     0.271572900167     1.007825032230
         H           -0.705770170392     2.000208827085     0.606604900167     1.007825032230
         H           -1.665000170392     0.916033827085     1.647003900167     1.007825032230
         H            3.007451829608    -0.251354172915     0.211544900167     1.007825032230

  Basis Set: AUG-CC-PVTZ
    Blend: AUG-CC-PVTZ
  Basis Set: (AUG-CC-PVTZ AUX)
    Blend: AUG-CC-PVTZ-JKFIT
	 Reference Energy          =    -380.8317458554304267 [Eh]
	 Singles Energy            =      -0.0000000000000000 [Eh]
	 Same-Spin Energy          =      -0.3686558945871552 [Eh]
	 Opposite-Spin Energy      =      -1.1636409304276947 [Eh]
	 Correlation Energy        =      -1.5322968250148499 [Eh]
	 Total Energy              =    -382.3640426804452659 [Eh]

	 ================> DF-SCS-MP2 Energies <==================
	-----------------------------------------------------------
	 SCS Same-Spin Scale       =       0.3333333333333333 [-]
	 SCS Opposite-Spin Scale   =       1.2000000000000000 [-]
	 SCS Same-Spin Energy      =      -0.1228852981957184 [Eh]
	 SCS Opposite-Spin Energy  =      -1.3963691165132335 [Eh]
	 SCS Correlation Energy    =      -1.5192544147089520 [Eh]
	 SCS Total Energy          =    -382.3510002701393660 [Eh]
	-----------------------------------------------------------

  Dipole Moment: [D]
     X:    -3.2108      Y:    -0.6912      Z:     0.4977     Total:     3.3219

*** Psi4 exiting successfully. Buy a developer a beer!
