                               Psi4 1.4a3.dev225

  ==> Input File <==

--------------------------------------------------------------------------
#psi4
#
memory 32 gb

molecule  {
0 1
  O        0.1020250    -0.5936610     0.2432790
  O        2.2583290    -0.7266490     0.4785580
  O        1.4190320     0.9870310    -0.7687790
  C       -1.0945380     0.0672860    -0.2723740
  C       -2.1583360    -1.0099580    -0.2947280
  C       -1.4377530     1.2430580     0.6217300
  C        1.2597240    -0.0090520    -0.0847670
  H       -0.8680500     0.4152130    -1.2840580
  H       -3.0925200    -0.6019470    -0.6907100
  H       -1.8459410    -1.8462780    -0.9239700
  H       -2.3397190    -1.3819350     0.7169650
  H       -2.3557360     1.7247410     0.2719260
  H       -0.6338990     1.9813890     0.6069580
  H       -1.5931290     0.8972140     1.6473570
  H        3.0961384    -0.2608246     0.2064363
units angstrom
no_reorient  #important for SAPT in psi4, default
symmetry c1  #important for SAPT in psi4, default
}

set PROPERTIES_ORIGIN ["COM"]
properties('MP2/aug-cc-pvtz', properties = ['dipole'])
--------------------------------------------------------------------------

    Molecular point group: c1
  Charge       = 0
  Multiplicity = 1
  Basis Set: AUG-CC-PVTZ
    Blend: AUG-CC-PVTZ
  Basis Set: (AUG-CC-PVTZ AUX)
    Blend: AUG-CC-PVTZ-JKFIT

    Orbital Energies [Eh]
    ---------------------

    Doubly Occupied:

       1A    -20.623877     2A    -20.612247     3A    -20.551304
       4A    -11.440476     5A    -11.301021     6A    -11.226606
       7A    -11.223509     8A     -1.503544     9A     -1.397941
      10A     -1.362878    11A     -1.075877    12A     -0.951728
      13A     -0.883121    14A     -0.787557    15A     -0.744486
      16A     -0.714007    17A     -0.685800    18A     -0.635323
      19A     -0.625674    20A     -0.602592    21A     -0.570403
      22A     -0.552795    23A     -0.543821    24A     -0.526887
      25A     -0.503073    26A     -0.487789    27A     -0.477253
      28A     -0.463531

  @DF-RHF Final Energy:  -380.89907017238579

   => Energetics <=

    Nuclear Repulsion Energy =            324.2587145504974728
    One-Electron Energy =               -1164.1653336265567305
    Two-Electron Energy =                 459.0075489036735235
    Total Energy =                       -380.8990701723857910
  Basis Set: (AUG-CC-PVTZ AUX)
    Blend: AUG-CC-PVTZ-RI
    Molecular point group: c1

    Geometry (in Angstrom), charge = 0, multiplicity = 1:

       Center              X                  Y                   Z               Mass
    ------------   -----------------  -----------------  -----------------  -----------------
         O            0.010029500642    -0.585011759856     0.248635082300    15.994914619570
         O            2.166333500642    -0.717999759856     0.483914082300    15.994914619570
         O            1.327036500642     0.995680240144    -0.763422917700    15.994914619570
         C           -1.186533499358     0.075935240144    -0.267017917700    12.000000000000
         C           -2.250331499358    -1.001308759856    -0.289371917700    12.000000000000
         C           -1.529748499358     1.251707240144     0.627086082300    12.000000000000
         C            1.167728500642    -0.000402759856    -0.079410917700    12.000000000000
         H           -0.960045499358     0.423862240144    -1.278701917700     1.007825032230
         H           -3.184515499358    -0.593297759856    -0.685353917700     1.007825032230
         H           -1.937936499358    -1.837628759856    -0.918613917700     1.007825032230
         H           -2.431714499358    -1.373285759856     0.722321082300     1.007825032230
         H           -2.447731499358     1.733390240144     0.277282082300     1.007825032230
         H           -0.725894499358     1.990038240144     0.612314082300     1.007825032230
         H           -1.685124499358     0.905863240144     1.652713082300     1.007825032230
         H            3.004142900642    -0.252175359856     0.211792382300     1.007825032230

  Basis Set: AUG-CC-PVTZ
    Blend: AUG-CC-PVTZ
  Basis Set: (AUG-CC-PVTZ AUX)
    Blend: AUG-CC-PVTZ-JKFIT
	 Reference Energy          =    -380.8990701723857910 [Eh]
	 Singles Energy            =      -0.0000000000000000 [Eh]
	 Same-Spin Energy          =      -0.3683284853826473 [Eh]
	 Opposite-Spin Energy      =      -1.1633363021214191 [Eh]
	 Correlation Energy        =      -1.5316647875040665 [Eh]
	 Total Energy              =    -382.4307349598898327 [Eh]

	 ================> DF-SCS-MP2 Energies <==================
	-----------------------------------------------------------
	 SCS Same-Spin Scale       =       0.3333333333333333 [-]
	 SCS Opposite-Spin Scale   =       1.2000000000000000 [-]
	 SCS Same-Spin Energy      =      -0.1227761617942158 [Eh]
	 SCS Opposite-Spin Energy  =      -1.3960035625457030 [Eh]
	 SCS Correlation Energy    =      -1.5187797243399188 [Eh]
	 SCS Total Energy          =    -382.4178498967257269 [Eh]
	-----------------------------------------------------------

  Dipole Moment: [D]
     X:    -0.9637      Y:    -0.0714      Z:     0.0861     Total:     0.9701

*** Psi4 exiting successfully. Buy a developer a beer!
