                               Psi4 1.4a3.dev225

  ==> Input File <==

--------------------------------------------------------------------------
#psi4
#
memory 32 gb

molecule  {
0 1
  O        0.1020250    -0.5936610     0.2432790
  O        2.2583290    -0.7266490     0.4785580
  O        1.4190320     0.9870310    -0.7687790
  C       -1.0945380     0.0672860    -0.2723740
  C       -2.1583360    -1.0099580    -0.2947280
  C       -1.4377530     1.2430580     0.6217300
  C        1.2597240    -0.0090520    -0.0847670
  H       -0.8680500     0.4152130    -1.2840580
  H       -3.0925200    -0.6019470    -0.6907100
  H       -1.8459410    -1.8462780    -0.9239700
  H       -2.3397190    -1.3819350     0.7169650
  H       -2.3137848     1.7027284     0.2879118
  H       -0.6338990     1.9813890     0.6069580
  H       -1.5931290     0.8972140     1.6473570
  H        3.0793230    -0.2701740     0.2118980
units angstrom
no_reorient  #important for SAPT in psi4, default
symmetry c1  #important for SAPT in psi4, default
}

set PROPERTIES_ORIGIN ["COM"]
properties('MP2/aug-cc-pvtz', properties = ['dipole'])
--------------------------------------------------------------------------

    Molecular point group: c1
  Charge       = 0
  Multiplicity = 1
  Basis Set: AUG-CC-PVTZ
    Blend: AUG-CC-PVTZ
  Basis Set: (AUG-CC-PVTZ AUX)
    Blend: AUG-CC-PVTZ-JKFIT

    Orbital Energies [Eh]
    ---------------------

    Doubly Occupied:

       1A    -20.622455     2A    -20.611957     3A    -20.551439
       4A    -11.440600     5A    -11.300736     6A    -11.226743
       7A    -11.217425     8A     -1.504732     9A     -1.400181
      10A     -1.363571    11A     -1.077194    12A     -0.954944
      13A     -0.886075    14A     -0.789069    15A     -0.745899
      16A     -0.715194    17A     -0.687258    18A     -0.637312
      19A     -0.625612    20A     -0.605519    21A     -0.570363
      22A     -0.554892    23A     -0.545377    24A     -0.530447
      25A     -0.503164    26A     -0.487767    27A     -0.477457
      28A     -0.463413

  @DF-RHF Final Energy:  -380.89961565735541

   => Energetics <=

    Nuclear Repulsion Energy =            324.6161043899131187
    One-Electron Energy =               -1164.8378513489087709
    Two-Electron Energy =                 459.3221313016402974
    Total Energy =                       -380.8996156573554117
  Basis Set: (AUG-CC-PVTZ AUX)
    Blend: AUG-CC-PVTZ-RI
    Molecular point group: c1

    Geometry (in Angstrom), charge = 0, multiplicity = 1:

       Center              X                  Y                   Z               Mass
    ------------   -----------------  -----------------  -----------------  -----------------
         O            0.009786029858    -0.584707980755     0.248427337186    15.994914619570
         O            2.166090029858    -0.717695980755     0.483706337186    15.994914619570
         O            1.326793029858     0.995984019245    -0.763630662814    15.994914619570
         C           -1.186776970142     0.076239019245    -0.267225662814    12.000000000000
         C           -2.250574970142    -1.001004980755    -0.289579662814    12.000000000000
         C           -1.529991970142     1.252011019245     0.626878337186    12.000000000000
         C            1.167485029858    -0.000098980755    -0.079618662814    12.000000000000
         H           -0.960288970142     0.424166019245    -1.278909662814     1.007825032230
         H           -3.184758970142    -0.592993980755    -0.685561662814     1.007825032230
         H           -1.938179970142    -1.837324980755    -0.918821662814     1.007825032230
         H           -2.431957970142    -1.372981980755     0.722113337186     1.007825032230
         H           -2.406023770142     1.711681419245     0.293060137186     1.007825032230
         H           -0.726137970142     1.990342019245     0.612106337186     1.007825032230
         H           -1.685367970142     0.906167019245     1.652505337186     1.007825032230
         H            2.987084029858    -0.261220980755     0.217046337186     1.007825032230

  Basis Set: AUG-CC-PVTZ
    Blend: AUG-CC-PVTZ
  Basis Set: (AUG-CC-PVTZ AUX)
    Blend: AUG-CC-PVTZ-JKFIT
	 Reference Energy          =    -380.8996156573554117 [Eh]
	 Singles Energy            =      -0.0000000000000000 [Eh]
	 Same-Spin Energy          =      -0.3681180908967592 [Eh]
	 Opposite-Spin Energy      =      -1.1624942513660073 [Eh]
	 Correlation Energy        =      -1.5306123422627664 [Eh]
	 Total Energy              =    -382.4302279996181824 [Eh]

	 ================> DF-SCS-MP2 Energies <==================
	-----------------------------------------------------------
	 SCS Same-Spin Scale       =       0.3333333333333333 [-]
	 SCS Opposite-Spin Scale   =       1.2000000000000000 [-]
	 SCS Same-Spin Energy      =      -0.1227060302989197 [Eh]
	 SCS Opposite-Spin Energy  =      -1.3949931016392088 [Eh]
	 SCS Correlation Energy    =      -1.5176991319381286 [Eh]
	 SCS Total Energy          =    -382.4173147892935276 [Eh]
	-----------------------------------------------------------

  Dipole Moment: [D]
     X:    -1.0161      Y:    -0.0666      Z:     0.0851     Total:     1.0218

*** Psi4 exiting successfully. Buy a developer a beer!
