                               Psi4 1.4a3.dev225

  ==> Input File <==

--------------------------------------------------------------------------
#psi4
#
memory 32 gb

molecule  {
0 1
  O        0.1020250    -0.5936610     0.2432790
  O        2.2583290    -0.7266490     0.4785580
  O        1.4190320     0.9870310    -0.7687790
  C       -1.0945380     0.0672860    -0.2723740
  C       -2.1583360    -1.0099580    -0.2947280
  C       -1.4377530     1.2430580     0.6217300
  C        1.2597240    -0.0090520    -0.0847670
  H       -0.8680500     0.4152130    -1.2840580
  H       -3.0925200    -0.6019470    -0.6907100
  H       -1.8459410    -1.8462780    -0.9239700
  H       -2.3397190    -1.3819350     0.7169650
  H       -2.3557360     1.7247410     0.2719260
  H       -0.6338990     1.9813890     0.6069580
  H       -1.5931290     0.8972140     1.6473570
  H        3.2474772    -0.1766798     0.1572813
units angstrom
no_reorient  #important for SAPT in psi4, default
symmetry c1  #important for SAPT in psi4, default
}

set PROPERTIES_ORIGIN ["COM"]
properties('MP2/aug-cc-pvtz', properties = ['dipole'])
--------------------------------------------------------------------------

    Molecular point group: c1
  Charge       = 0
  Multiplicity = 1
  Basis Set: AUG-CC-PVTZ
    Blend: AUG-CC-PVTZ
  Basis Set: (AUG-CC-PVTZ AUX)
    Blend: AUG-CC-PVTZ-JKFIT

    Orbital Energies [Eh]
    ---------------------

    Doubly Occupied:

       1A    -20.630836     2A    -20.610658     3A    -20.547633
       4A    -11.436683     5A    -11.299888     6A    -11.225706
       7A    -11.222506     8A     -1.494222     9A     -1.382018
      10A     -1.352235    11A     -1.073445    12A     -0.950711
      13A     -0.868006    14A     -0.781294    15A     -0.731898
      16A     -0.700235    17A     -0.681329    18A     -0.624414
      19A     -0.617098    20A     -0.596457    21A     -0.566854
      22A     -0.551547    23A     -0.540701    24A     -0.524872
      25A     -0.500117    26A     -0.485115    27A     -0.473236
      28A     -0.461575

  @DF-RHF Final Energy:  -380.86556834277258

   => Energetics <=

    Nuclear Repulsion Energy =            323.3107683430333736
    One-Electron Energy =               -1162.4900952067087019
    Two-Electron Energy =                 458.3137585209027520
    Total Energy =                       -380.8655683427725762
  Basis Set: (AUG-CC-PVTZ AUX)
    Blend: AUG-CC-PVTZ-RI
    Molecular point group: c1

    Geometry (in Angstrom), charge = 0, multiplicity = 1:

       Center              X                  Y                   Z               Mass
    ------------   -----------------  -----------------  -----------------  -----------------
         O            0.008563600361    -0.585826804551     0.249111208239    15.994914619570
         O            2.164867600361    -0.718814804551     0.484390208239    15.994914619570
         O            1.325570600361     0.994865195449    -0.762946791761    15.994914619570
         C           -1.187999399639     0.075120195449    -0.266541791761    12.000000000000
         C           -2.251797399639    -1.002123804551    -0.288895791761    12.000000000000
         C           -1.531214399639     1.250892195449     0.627562208239    12.000000000000
         C            1.166262600361    -0.001217804551    -0.078934791761    12.000000000000
         H           -0.961511399639     0.423047195449    -1.278225791761     1.007825032230
         H           -3.185981399639    -0.594112804551    -0.684877791761     1.007825032230
         H           -1.939402399639    -1.838443804551    -0.918137791761     1.007825032230
         H           -2.433180399639    -1.374100804551     0.722797208239     1.007825032230
         H           -2.449197399639     1.732575195449     0.277758208239     1.007825032230
         H           -0.727360399639     1.989223195449     0.612790208239     1.007825032230
         H           -1.686590399639     0.905048195449     1.653189208239     1.007825032230
         H            3.154015800361    -0.168845604551     0.163113508239     1.007825032230

  Basis Set: AUG-CC-PVTZ
    Blend: AUG-CC-PVTZ
  Basis Set: (AUG-CC-PVTZ AUX)
    Blend: AUG-CC-PVTZ-JKFIT
	 Reference Energy          =    -380.8655683427725762 [Eh]
	 Singles Energy            =      -0.0000000000000000 [Eh]
	 Same-Spin Energy          =      -0.3703370888962053 [Eh]
	 Opposite-Spin Energy      =      -1.1689702551394205 [Eh]
	 Correlation Energy        =      -1.5393073440356257 [Eh]
	 Total Energy              =    -382.4048756868082251 [Eh]

	 ================> DF-SCS-MP2 Energies <==================
	-----------------------------------------------------------
	 SCS Same-Spin Scale       =       0.3333333333333333 [-]
	 SCS Opposite-Spin Scale   =       1.2000000000000000 [-]
	 SCS Same-Spin Energy      =      -0.1234456962987351 [Eh]
	 SCS Opposite-Spin Energy  =      -1.4027643061673045 [Eh]
	 SCS Correlation Energy    =      -1.5262100024660397 [Eh]
	 SCS Total Energy          =    -382.3917783452386061 [Eh]
	-----------------------------------------------------------

  Dipole Moment: [D]
     X:    -0.7179      Y:    -0.0033      Z:     0.0513     Total:     0.7197

*** Psi4 exiting successfully. Buy a developer a beer!
