                               Psi4 1.4a3.dev225

  ==> Input File <==

--------------------------------------------------------------------------
#psi4
#
memory 32 gb

molecule  {
0 1
  O        0.1020250    -0.5936610     0.2432790
  O        2.2583290    -0.7266490     0.4785580
  O        1.4190320     0.9870310    -0.7687790
  C       -1.0945380     0.0672860    -0.2723740
  C       -2.1583360    -1.0099580    -0.2947280
  C       -1.4377530     1.2430580     0.6217300
  C        1.2597240    -0.0090520    -0.0847670
  H       -0.8680500     0.4152130    -1.2840580
  H       -3.0925200    -0.6019470    -0.6907100
  H       -1.8745426    -1.7697081    -0.8663593
  H       -2.3397190    -1.3819350     0.7169650
  H       -2.3557360     1.7247410     0.2719260
  H       -0.6338990     1.9813890     0.6069580
  H       -1.5931290     0.8972140     1.6473570
  H        3.0793230    -0.2701740     0.2118980
units angstrom
no_reorient  #important for SAPT in psi4, default
symmetry c1  #important for SAPT in psi4, default
}

set PROPERTIES_ORIGIN ["COM"]
properties('MP2/aug-cc-pvtz', properties = ['dipole'])
--------------------------------------------------------------------------

    Molecular point group: c1
  Charge       = 0
  Multiplicity = 1
  Basis Set: AUG-CC-PVTZ
    Blend: AUG-CC-PVTZ
  Basis Set: (AUG-CC-PVTZ AUX)
    Blend: AUG-CC-PVTZ-JKFIT

    Orbital Energies [Eh]
    ---------------------

    Doubly Occupied:

       1A    -20.622690     2A    -20.612404     3A    -20.551679
       4A    -11.440868     5A    -11.300307     6A    -11.222798
       7A    -11.214449     8A     -1.505035     9A     -1.400513
      10A     -1.363817    11A     -1.078108    12A     -0.958465
      13A     -0.887343    14A     -0.789580    15A     -0.746563
      16A     -0.715430    17A     -0.686381    18A     -0.637511
      19A     -0.635345    20A     -0.602799    21A     -0.570356
      22A     -0.554136    23A     -0.547483    24A     -0.530992
      25A     -0.504487    26A     -0.487860    27A     -0.477645
      28A     -0.464073

  @DF-RHF Final Energy:  -380.89443956064667

   => Energetics <=

    Nuclear Repulsion Energy =            324.8314436371392162
    One-Electron Energy =               -1165.2335304000757787
    Two-Electron Energy =                 459.5076472022898315
    Total Energy =                       -380.8944395606466742
  Basis Set: (AUG-CC-PVTZ AUX)
    Blend: AUG-CC-PVTZ-RI
    Molecular point group: c1

    Geometry (in Angstrom), charge = 0, multiplicity = 1:

       Center              X                  Y                   Z               Mass
    ------------   -----------------  -----------------  -----------------  -----------------
         O            0.010469419507    -0.585662872128     0.248024149420    15.994914619570
         O            2.166773419507    -0.718650872128     0.483303149420    15.994914619570
         O            1.327476419507     0.995029127872    -0.764033850580    15.994914619570
         C           -1.186093580493     0.075284127872    -0.267628850580    12.000000000000
         C           -2.249891580493    -1.001959872128    -0.289982850580    12.000000000000
         C           -1.529308580493     1.251056127872     0.626475149420    12.000000000000
         C            1.168168419507    -0.001053872128    -0.080021850580    12.000000000000
         H           -0.959605580493     0.423211127872    -1.279312850580     1.007825032230
         H           -3.184075580493    -0.593948872128    -0.685964850580     1.007825032230
         H           -1.966098180493    -1.761709972128    -0.861614150580     1.007825032230
         H           -2.431274580493    -1.373936872128     0.721710149420     1.007825032230
         H           -2.447291580493     1.732739127872     0.276671149420     1.007825032230
         H           -0.725454580493     1.989387127872     0.611703149420     1.007825032230
         H           -1.684684580493     0.905212127872     1.652102149420     1.007825032230
         H            2.987767419507    -0.262175872128     0.216643149420     1.007825032230

  Basis Set: AUG-CC-PVTZ
    Blend: AUG-CC-PVTZ
  Basis Set: (AUG-CC-PVTZ AUX)
    Blend: AUG-CC-PVTZ-JKFIT
	 Reference Energy          =    -380.8944395606466742 [Eh]
	 Singles Energy            =      -0.0000000000000000 [Eh]
	 Same-Spin Energy          =      -0.3681402534156101 [Eh]
	 Opposite-Spin Energy      =      -1.1622961738084898 [Eh]
	 Correlation Energy        =      -1.5304364272241000 [Eh]
	 Total Energy              =    -382.4248759878707915 [Eh]

	 ================> DF-SCS-MP2 Energies <==================
	-----------------------------------------------------------
	 SCS Same-Spin Scale       =       0.3333333333333333 [-]
	 SCS Opposite-Spin Scale   =       1.2000000000000000 [-]
	 SCS Same-Spin Energy      =      -0.1227134178052034 [Eh]
	 SCS Opposite-Spin Energy  =      -1.3947554085701876 [Eh]
	 SCS Correlation Energy    =      -1.5174688263753910 [Eh]
	 SCS Total Energy          =    -382.4119083870220379 [Eh]
	-----------------------------------------------------------

  Dipole Moment: [D]
     X:    -0.9943      Y:    -0.1168      Z:     0.0640     Total:     1.0032

*** Psi4 exiting successfully. Buy a developer a beer!
