                               Psi4 1.4a3.dev225

  ==> Input File <==

--------------------------------------------------------------------------
#psi4
#
memory 32 gb

molecule  {
0 1
  O        0.1020250    -0.5936610     0.2432790
  O        2.2583290    -0.7266490     0.4785580
  O        1.4190320     0.9870310    -0.7687790
  C       -1.0945380     0.0672860    -0.2723740
  C       -2.1583360    -1.0099580    -0.2947280
  C       -1.4377530     1.2430580     0.6217300
  C        1.2597240    -0.0090520    -0.0847670
  H       -0.8680500     0.4152130    -1.2840580
  H       -3.0925200    -0.6019470    -0.6907100
  H       -1.8459410    -1.8462780    -0.9239700
  H       -2.3397190    -1.3819350     0.7169650
  H       -2.3557360     1.7247410     0.2719260
  H       -0.6338990     1.9813890     0.6069580
  H       -1.5931290     0.8972140     1.6473570
  H        2.9111688    -0.3636682     0.2665147
units angstrom
no_reorient  #important for SAPT in psi4, default
symmetry c1  #important for SAPT in psi4, default
}

set PROPERTIES_ORIGIN ["COM"]
properties('MP2/aug-cc-pvtz', properties = ['dipole'])
--------------------------------------------------------------------------

    Molecular point group: c1
  Charge       = 0
  Multiplicity = 1
  Basis Set: AUG-CC-PVTZ
    Blend: AUG-CC-PVTZ
  Basis Set: (AUG-CC-PVTZ AUX)
    Blend: AUG-CC-PVTZ-JKFIT

    Orbital Energies [Eh]
    ---------------------

    Doubly Occupied:

       1A    -20.614513     2A    -20.606127     3A    -20.556193
       4A    -11.445441     5A    -11.302546     6A    -11.227796
       7A    -11.224817     8A     -1.533894     9A     -1.433638
      10A     -1.371381    11A     -1.080213    12A     -0.953144
      13A     -0.918235    14A     -0.800929    15A     -0.761493
      16A     -0.726773    17A     -0.691218    18A     -0.649928
      19A     -0.628527    20A     -0.608095    21A     -0.574344
      22A     -0.554422    23A     -0.547015    24A     -0.529745
      25A     -0.507323    26A     -0.490923    27A     -0.482037
      28A     -0.465856

  @DF-RHF Final Energy:  -380.85480483621762

   => Energetics <=

    Nuclear Repulsion Energy =            325.8382586104528968
    One-Electron Energy =               -1166.8129915132128644
    Two-Electron Energy =                 460.1199280665423998
    Total Energy =                       -380.8548048362176246
  Basis Set: (AUG-CC-PVTZ AUX)
    Blend: AUG-CC-PVTZ-RI
    Molecular point group: c1

    Geometry (in Angstrom), charge = 0, multiplicity = 1:

       Center              X                  Y                   Z               Mass
    ------------   -----------------  -----------------  -----------------  -----------------
         O            0.011821156111    -0.584015594549     0.248053149950    15.994914619570
         O            2.168125156111    -0.717003594549     0.483332149950    15.994914619570
         O            1.328828156111     0.996676405451    -0.764004850050    15.994914619570
         C           -1.184741843889     0.076931405451    -0.267599850050    12.000000000000
         C           -2.248539843889    -1.000312594549    -0.289953850050    12.000000000000
         C           -1.527956843889     1.252703405451     0.626504149950    12.000000000000
         C            1.169520156111     0.000593405451    -0.079992850050    12.000000000000
         H           -0.958253843889     0.424858405451    -1.279283850050     1.007825032230
         H           -3.182723843889    -0.592301594549    -0.685935850050     1.007825032230
         H           -1.936144843889    -1.836632594549    -0.919195850050     1.007825032230
         H           -2.429922843889    -1.372289594549     0.721739149950     1.007825032230
         H           -2.445939843889     1.734386405451     0.276700149950     1.007825032230
         H           -0.724102843889     1.991034405451     0.611732149950     1.007825032230
         H           -1.683332843889     0.906859405451     1.652131149950     1.007825032230
         H            2.820964956111    -0.354022794549     0.271288849950     1.007825032230

  Basis Set: AUG-CC-PVTZ
    Blend: AUG-CC-PVTZ
  Basis Set: (AUG-CC-PVTZ AUX)
    Blend: AUG-CC-PVTZ-JKFIT
	 Reference Energy          =    -380.8548048362176246 [Eh]
	 Singles Energy            =      -0.0000000000000000 [Eh]
	 Same-Spin Energy          =      -0.3659018117764804 [Eh]
	 Opposite-Spin Energy      =      -1.1578047063189123 [Eh]
	 Correlation Energy        =      -1.5237065180953926 [Eh]
	 Total Energy              =    -382.3785113543129910 [Eh]

	 ================> DF-SCS-MP2 Energies <==================
	-----------------------------------------------------------
	 SCS Same-Spin Scale       =       0.3333333333333333 [-]
	 SCS Opposite-Spin Scale   =       1.2000000000000000 [-]
	 SCS Same-Spin Energy      =      -0.1219672705921601 [Eh]
	 SCS Opposite-Spin Energy  =      -1.3893656475826948 [Eh]
	 SCS Correlation Energy    =      -1.5113329181748549 [Eh]
	 SCS Total Energy          =    -382.3661377543924687 [Eh]
	-----------------------------------------------------------

  Dipole Moment: [D]
     X:    -1.2840      Y:    -0.1258      Z:     0.1081     Total:     1.2947

*** Psi4 exiting successfully. Buy a developer a beer!
