                               Psi4 1.4a3.dev225

  ==> Input File <==

--------------------------------------------------------------------------
#psi4
#
memory 32 gb

molecule  {
0 1
  O        0.1020250    -0.5936610     0.2432790
  O        2.2583290    -0.7266490     0.4785580
  O        1.4190320     0.9870310    -0.7687790
  C       -1.0964239     0.0511466    -0.2514824
  C       -2.1583360    -1.0099580    -0.2947280
  C       -1.4377530     1.2430580     0.6217300
  C        1.2597240    -0.0090520    -0.0847670
  H       -0.8680500     0.4152130    -1.2840580
  H       -3.0925200    -0.6019470    -0.6907100
  H       -1.8459410    -1.8462780    -0.9239700
  H       -2.3397190    -1.3819350     0.7169650
  H       -2.3557360     1.7247410     0.2719260
  H       -0.6338990     1.9813890     0.6069580
  H       -1.5931290     0.8972140     1.6473570
  H        3.0793230    -0.2701740     0.2118980
units angstrom
no_reorient  #important for SAPT in psi4, default
symmetry c1  #important for SAPT in psi4, default
}

set PROPERTIES_ORIGIN ["COM"]
properties('MP2/aug-cc-pvtz', properties = ['dipole'])
--------------------------------------------------------------------------

    Molecular point group: c1
  Charge       = 0
  Multiplicity = 1
  Basis Set: AUG-CC-PVTZ
    Blend: AUG-CC-PVTZ
  Basis Set: (AUG-CC-PVTZ AUX)
    Blend: AUG-CC-PVTZ-JKFIT

    Orbital Energies [Eh]
    ---------------------

    Doubly Occupied:

       1A    -20.623476     2A    -20.613534     3A    -20.552375
       4A    -11.442089     5A    -11.301503     6A    -11.226209
       7A    -11.223268     8A     -1.506594     9A     -1.403121
      10A     -1.364708    11A     -1.077521    12A     -0.952909
      13A     -0.888436    14A     -0.784092    15A     -0.748012
      16A     -0.715592    17A     -0.687772    18A     -0.637282
      19A     -0.627723    20A     -0.604252    21A     -0.571472
      22A     -0.552625    23A     -0.546543    24A     -0.527671
      25A     -0.504696    26A     -0.482738    27A     -0.477927
      28A     -0.462490

  @DF-RHF Final Energy:  -380.89984566357583

   => Energetics <=

    Nuclear Repulsion Energy =            324.5717788684897300
    One-Electron Energy =               -1164.7299838168623864
    Two-Electron Energy =                 459.2583592847968816
    Total Energy =                       -380.8998456635758316
  Basis Set: (AUG-CC-PVTZ AUX)
    Blend: AUG-CC-PVTZ-RI
    Molecular point group: c1

    Geometry (in Angstrom), charge = 0, multiplicity = 1:

       Center              X                  Y                   Z               Mass
    ------------   -----------------  -----------------  -----------------  -----------------
         O            0.010409883067    -0.583059808453     0.246172706733    15.994914619570
         O            2.166713883067    -0.716047808453     0.481451706733    15.994914619570
         O            1.327416883067     0.997632191547    -0.765885293267    15.994914619570
         C           -1.188039016933     0.061747791547    -0.248588693267    12.000000000000
         C           -2.249951116933    -0.999356808453    -0.291834293267    12.000000000000
         C           -1.529368116933     1.253659191547     0.624623706733    12.000000000000
         C            1.168108883067     0.001549191547    -0.081873293267    12.000000000000
         H           -0.959665116933     0.425814191547    -1.281164293267     1.007825032230
         H           -3.184135116933    -0.591345808453    -0.687816293267     1.007825032230
         H           -1.937556116933    -1.835676808453    -0.921076293267     1.007825032230
         H           -2.431334116933    -1.371333808453     0.719858706733     1.007825032230
         H           -2.447351116933     1.735342191547     0.274819706733     1.007825032230
         H           -0.725514116933     1.991990191547     0.609851706733     1.007825032230
         H           -1.684744116933     0.907815191547     1.650250706733     1.007825032230
         H            2.987707883067    -0.259572808453     0.214791706733     1.007825032230

  Basis Set: AUG-CC-PVTZ
    Blend: AUG-CC-PVTZ
  Basis Set: (AUG-CC-PVTZ AUX)
    Blend: AUG-CC-PVTZ-JKFIT
	 Reference Energy          =    -380.8998456635758316 [Eh]
	 Singles Energy            =      -0.0000000000000000 [Eh]
	 Same-Spin Energy          =      -0.3681979176067948 [Eh]
	 Opposite-Spin Energy      =      -1.1627419621638266 [Eh]
	 Correlation Energy        =      -1.5309398797706213 [Eh]
	 Total Energy              =    -382.4307855433464738 [Eh]

	 ================> DF-SCS-MP2 Energies <==================
	-----------------------------------------------------------
	 SCS Same-Spin Scale       =       0.3333333333333333 [-]
	 SCS Opposite-Spin Scale   =       1.2000000000000000 [-]
	 SCS Same-Spin Energy      =      -0.1227326392022649 [Eh]
	 SCS Opposite-Spin Energy  =      -1.3952903545965920 [Eh]
	 SCS Correlation Energy    =      -1.5180229937988570 [Eh]
	 SCS Total Energy          =    -382.4178686573746972 [Eh]
	-----------------------------------------------------------

  Dipole Moment: [D]
     X:    -0.9630      Y:    -0.0998      Z:     0.1086     Total:     0.9742

*** Psi4 exiting successfully. Buy a developer a beer!
