                               Psi4 1.4a3.dev225

  ==> Input File <==

--------------------------------------------------------------------------
#psi4
#
memory 32 gb

molecule  {
0 1
  O        0.1020250    -0.5936610     0.2432790
  O        2.2583290    -0.7266490     0.4785580
  O        1.4190320     0.9870310    -0.7687790
  C       -1.0945380     0.0672860    -0.2723740
  C       -2.1583360    -1.0099580    -0.2947280
  C       -1.4377530     1.2430580     0.6217300
  C        1.2597240    -0.0090520    -0.0847670
  H       -0.8680500     0.4152130    -1.2840580
  H       -3.0925200    -0.6019470    -0.6907100
  H       -1.8459410    -1.8462780    -0.9239700
  H       -2.3397190    -1.3819350     0.7169650
  H       -2.3557360     1.7247410     0.2719260
  H       -0.6338990     1.9813890     0.6069580
  H       -1.5931290     0.8972140     1.6473570
  H        3.1634001    -0.2234269     0.1845896
units angstrom
no_reorient  #important for SAPT in psi4, default
symmetry c1  #important for SAPT in psi4, default
}

set PROPERTIES_ORIGIN ["COM"]
properties('MP2/aug-cc-pvtz', properties = ['dipole'])
--------------------------------------------------------------------------

    Molecular point group: c1
  Charge       = 0
  Multiplicity = 1
  Basis Set: AUG-CC-PVTZ
    Blend: AUG-CC-PVTZ
  Basis Set: (AUG-CC-PVTZ AUX)
    Blend: AUG-CC-PVTZ-JKFIT

    Orbital Energies [Eh]
    ---------------------

    Doubly Occupied:

       1A    -20.627704     2A    -20.611516     3A    -20.549634
       4A    -11.438758     5A    -11.300507     6A    -11.226199
       7A    -11.223056     8A     -1.498619     9A     -1.389321
      10A     -1.358450    11A     -1.074703    12A     -0.951266
      13A     -0.875210    14A     -0.784309    15A     -0.738201
      16A     -0.707880    17A     -0.683849    18A     -0.628462
      19A     -0.624226    20A     -0.600288    21A     -0.568926
      22A     -0.552238    23A     -0.542537    24A     -0.525962
      25A     -0.501696    26A     -0.486606    27A     -0.475484
      28A     -0.462675

  @DF-RHF Final Energy:  -380.88754159991100

   => Energetics <=

    Nuclear Repulsion Energy =            323.8093465771982551
    One-Electron Energy =               -1163.3772158412530189
    Two-Electron Energy =                 458.6803276641437037
    Total Energy =                       -380.8875415999110032
  Basis Set: (AUG-CC-PVTZ AUX)
    Blend: AUG-CC-PVTZ-RI
    Molecular point group: c1

    Geometry (in Angstrom), charge = 0, multiplicity = 1:

       Center              X                  Y                   Z               Mass
    ------------   -----------------  -----------------  -----------------  -----------------
         O            0.009377989298    -0.585374002050     0.248846694151    15.994914619570
         O            2.165681989298    -0.718362002050     0.484125694151    15.994914619570
         O            1.326384989298     0.995317997950    -0.763211305849    15.994914619570
         C           -1.187185010702     0.075572997950    -0.266806305849    12.000000000000
         C           -2.250983010702    -1.001671002050    -0.289160305849    12.000000000000
         C           -1.530400010702     1.251344997950     0.627297694151    12.000000000000
         C            1.167076989298    -0.000765002050    -0.079199305849    12.000000000000
         H           -0.960697010702     0.423499997950    -1.278490305849     1.007825032230
         H           -3.185167010702    -0.593660002050    -0.685142305849     1.007825032230
         H           -1.938588010702    -1.837991002050    -0.918402305849     1.007825032230
         H           -2.432366010702    -1.373648002050     0.722532694151     1.007825032230
         H           -2.448383010702     1.733027997950     0.277493694151     1.007825032230
         H           -0.726546010702     1.989675997950     0.612525694151     1.007825032230
         H           -1.685776010702     0.905500997950     1.652924694151     1.007825032230
         H            3.070753089298    -0.215139902050     0.190157294151     1.007825032230

  Basis Set: AUG-CC-PVTZ
    Blend: AUG-CC-PVTZ
  Basis Set: (AUG-CC-PVTZ AUX)
    Blend: AUG-CC-PVTZ-JKFIT
	 Reference Energy          =    -380.8875415999110032 [Eh]
	 Singles Energy            =      -0.0000000000000000 [Eh]
	 Same-Spin Energy          =      -0.3692353291084095 [Eh]
	 Opposite-Spin Energy      =      -1.1657337014215072 [Eh]
	 Correlation Energy        =      -1.5349690305299166 [Eh]
	 Total Energy              =    -382.4225106304409110 [Eh]

	 ================> DF-SCS-MP2 Energies <==================
	-----------------------------------------------------------
	 SCS Same-Spin Scale       =       0.3333333333333333 [-]
	 SCS Opposite-Spin Scale   =       1.2000000000000000 [-]
	 SCS Same-Spin Energy      =      -0.1230784430361365 [Eh]
	 SCS Opposite-Spin Energy  =      -1.3988804417058087 [Eh]
	 SCS Correlation Energy    =      -1.5219588847419452 [Eh]
	 SCS Total Energy          =    -382.4095004846529378 [Eh]
	-----------------------------------------------------------

  Dipole Moment: [D]
     X:    -0.8516      Y:    -0.0431      Z:     0.0721     Total:     0.8557

*** Psi4 exiting successfully. Buy a developer a beer!
