                               Psi4 1.4a3.dev225

  ==> Input File <==

--------------------------------------------------------------------------
#psi4
#
memory 32 gb

molecule  {
0 1
  O        0.1020250    -0.5936610     0.2432790
  O        2.2583290    -0.7266490     0.4785580
  O        1.4190320     0.9870310    -0.7687790
  C       -1.1354882     0.0899057    -0.2900213
  C       -2.1583360    -1.0099580    -0.2947280
  C       -1.4377530     1.2430580     0.6217300
  C        1.2597240    -0.0090520    -0.0847670
  H       -0.8680500     0.4152130    -1.2840580
  H       -3.0925200    -0.6019470    -0.6907100
  H       -1.8459410    -1.8462780    -0.9239700
  H       -2.3397190    -1.3819350     0.7169650
  H       -2.3557360     1.7247410     0.2719260
  H       -0.6338990     1.9813890     0.6069580
  H       -1.5931290     0.8972140     1.6473570
  H        3.0793230    -0.2701740     0.2118980
units angstrom
no_reorient  #important for SAPT in psi4, default
symmetry c1  #important for SAPT in psi4, default
}

set PROPERTIES_ORIGIN ["COM"]
properties('MP2/aug-cc-pvtz', properties = ['dipole'])
--------------------------------------------------------------------------

    Molecular point group: c1
  Charge       = 0
  Multiplicity = 1
  Basis Set: AUG-CC-PVTZ
    Blend: AUG-CC-PVTZ
  Basis Set: (AUG-CC-PVTZ AUX)
    Blend: AUG-CC-PVTZ-JKFIT

    Orbital Energies [Eh]
    ---------------------

    Doubly Occupied:

       1A    -20.619314     2A    -20.604699     3A    -20.547956
       4A    -11.436265     5A    -11.303804     6A    -11.228659
       7A    -11.225610     8A     -1.497780     9A     -1.389461
      10A     -1.358920    11A     -1.081832    12A     -0.956224
      13A     -0.876437    14A     -0.791123    15A     -0.738556
      16A     -0.712067    17A     -0.680009    18A     -0.634312
      19A     -0.629851    20A     -0.600346    21A     -0.571065
      22A     -0.555741    23A     -0.535777    24A     -0.525134
      25A     -0.507789    26A     -0.493431    27A     -0.473917
      28A     -0.465154

  @DF-RHF Final Energy:  -380.89804607910503

   => Energetics <=

    Nuclear Repulsion Energy =            323.7858959887756214
    One-Electron Energy =               -1163.2854209663169058
    Two-Electron Energy =                 458.6014788984363122
    Total Energy =                       -380.8980460791050291
  Basis Set: (AUG-CC-PVTZ AUX)
    Blend: AUG-CC-PVTZ-RI
    Molecular point group: c1

    Geometry (in Angstrom), charge = 0, multiplicity = 1:

       Center              X                  Y                   Z               Mass
    ------------   -----------------  -----------------  -----------------  -----------------
         O            0.014915251310    -0.587529977336     0.250617479484    15.994914619570
         O            2.171219251310    -0.720517977336     0.485896479484    15.994914619570
         O            1.331922251310     0.993162022664    -0.761440520516    15.994914619570
         C           -1.222597948690     0.096036722664    -0.282682820516    12.000000000000
         C           -2.245445748690    -1.003826977336    -0.287389520516    12.000000000000
         C           -1.524862748690     1.249189022664     0.629068479484    12.000000000000
         C            1.172614251310    -0.002920977336    -0.077428520516    12.000000000000
         H           -0.955159748690     0.421344022664    -1.276719520516     1.007825032230
         H           -3.179629748690    -0.595815977336    -0.683371520516     1.007825032230
         H           -1.933050748690    -1.840146977336    -0.916631520516     1.007825032230
         H           -2.426828748690    -1.375803977336     0.724303479484     1.007825032230
         H           -2.442845748690     1.730872022664     0.279264479484     1.007825032230
         H           -0.721008748690     1.987520022664     0.614296479484     1.007825032230
         H           -1.680238748690     0.903345022664     1.654695479484     1.007825032230
         H            2.992213251310    -0.264042977336     0.219236479484     1.007825032230

  Basis Set: AUG-CC-PVTZ
    Blend: AUG-CC-PVTZ
  Basis Set: (AUG-CC-PVTZ AUX)
    Blend: AUG-CC-PVTZ-JKFIT
	 Reference Energy          =    -380.8980460791050291 [Eh]
	 Singles Energy            =      -0.0000000000000000 [Eh]
	 Same-Spin Energy          =      -0.3683016306050670 [Eh]
	 Opposite-Spin Energy      =      -1.1633095444940953 [Eh]
	 Correlation Energy        =      -1.5316111750991623 [Eh]
	 Total Energy              =    -382.4296572542041872 [Eh]

	 ================> DF-SCS-MP2 Energies <==================
	-----------------------------------------------------------
	 SCS Same-Spin Scale       =       0.3333333333333333 [-]
	 SCS Opposite-Spin Scale   =       1.2000000000000000 [-]
	 SCS Same-Spin Energy      =      -0.1227672102016890 [Eh]
	 SCS Opposite-Spin Energy  =      -1.3959714533929144 [Eh]
	 SCS Correlation Energy    =      -1.5187386635946034 [Eh]
	 SCS Total Energy          =    -382.4167847426996332 [Eh]
	-----------------------------------------------------------

  Dipole Moment: [D]
     X:    -1.2257      Y:    -0.0338      Z:     0.0728     Total:     1.2283

*** Psi4 exiting successfully. Buy a developer a beer!
