                               Psi4 1.4a3.dev225

  ==> Input File <==

--------------------------------------------------------------------------
#psi4
#
memory 32 gb

molecule  {
0 1
  O        0.1020250    -0.5936610     0.2432790
  O        2.2583290    -0.7266490     0.4785580
  O        1.4190320     0.9870310    -0.7687790
  C       -1.0945380     0.0672860    -0.2723740
  C       -2.1583360    -1.0099580    -0.2947280
  C       -1.4377530     1.2430580     0.6217300
  C        1.2597240    -0.0090520    -0.0847670
  H       -0.8680500     0.4152130    -1.2840580
  H       -3.0925200    -0.6019470    -0.6907100
  H       -1.8459410    -1.8462780    -0.9239700
  H       -2.3397190    -1.3819350     0.7169650
  H       -2.3725165     1.7335460     0.2655317
  H       -0.6338990     1.9813890     0.6069580
  H       -1.5931290     0.8972140     1.6473570
  H        3.0793230    -0.2701740     0.2118980
units angstrom
no_reorient  #important for SAPT in psi4, default
symmetry c1  #important for SAPT in psi4, default
}

set PROPERTIES_ORIGIN ["COM"]
properties('MP2/aug-cc-pvtz', properties = ['dipole'])
--------------------------------------------------------------------------

    Molecular point group: c1
  Charge       = 0
  Multiplicity = 1
  Basis Set: AUG-CC-PVTZ
    Blend: AUG-CC-PVTZ
  Basis Set: (AUG-CC-PVTZ AUX)
    Blend: AUG-CC-PVTZ-JKFIT

    Orbital Energies [Eh]
    ---------------------

    Doubly Occupied:

       1A    -20.622822     2A    -20.612646     3A    -20.551858
       4A    -11.441049     5A    -11.301335     6A    -11.226701
       7A    -11.226064     8A     -1.505217     9A     -1.400695
      10A     -1.363997    11A     -1.075879    12A     -0.950776
      13A     -0.885251    14A     -0.788336    15A     -0.746301
      16A     -0.715547    17A     -0.685972    18A     -0.636864
      19A     -0.626098    20A     -0.602288    21A     -0.570944
      22A     -0.552424    23A     -0.543610    24A     -0.525368
      25A     -0.503545    26A     -0.488223    27A     -0.477790
      28A     -0.463884

  @DF-RHF Final Energy:  -380.90009639489665

   => Energetics <=

    Nuclear Repulsion Energy =            324.2886929291777847
    One-Electron Energy =               -1164.1946140768022815
    Two-Electron Energy =                 459.0058247527277899
    Total Energy =                       -380.9000963948966501
  Basis Set: (AUG-CC-PVTZ AUX)
    Blend: AUG-CC-PVTZ-RI
    Molecular point group: c1

    Geometry (in Angstrom), charge = 0, multiplicity = 1:

       Center              X                  Y                   Z               Mass
    ------------   -----------------  -----------------  -----------------  -----------------
         O            0.010354917781    -0.585006486680     0.248644115665    15.994914619570
         O            2.166658917781    -0.717994486680     0.483923115665    15.994914619570
         O            1.327361917781     0.995685513320    -0.763413884335    15.994914619570
         C           -1.186208082219     0.075940513320    -0.267008884335    12.000000000000
         C           -2.250006082219    -1.001303486680    -0.289362884335    12.000000000000
         C           -1.529423082219     1.251712513320     0.627095115665    12.000000000000
         C            1.168053917781    -0.000397486680    -0.079401884335    12.000000000000
         H           -0.959720082219     0.423867513320    -1.278692884335     1.007825032230
         H           -3.184190082219    -0.593292486680    -0.685344884335     1.007825032230
         H           -1.937611082219    -1.837623486680    -0.918604884335     1.007825032230
         H           -2.431389082219    -1.373280486680     0.722330115665     1.007825032230
         H           -2.464186582219     1.742200513320     0.270896815665     1.007825032230
         H           -0.725569082219     1.990043513320     0.612323115665     1.007825032230
         H           -1.684799082219     0.905868513320     1.652722115665     1.007825032230
         H            2.987652917781    -0.261519486680     0.217263115665     1.007825032230

  Basis Set: AUG-CC-PVTZ
    Blend: AUG-CC-PVTZ
  Basis Set: (AUG-CC-PVTZ AUX)
    Blend: AUG-CC-PVTZ-JKFIT
	 Reference Energy          =    -380.9000963948966501 [Eh]
	 Singles Energy            =      -0.0000000000000000 [Eh]
	 Same-Spin Energy          =      -0.3680933003052817 [Eh]
	 Opposite-Spin Energy      =      -1.1628910034944049 [Eh]
	 Correlation Energy        =      -1.5309843037996866 [Eh]
	 Total Energy              =    -382.4310806986963485 [Eh]

	 ================> DF-SCS-MP2 Energies <==================
	-----------------------------------------------------------
	 SCS Same-Spin Scale       =       0.3333333333333333 [-]
	 SCS Opposite-Spin Scale   =       1.2000000000000000 [-]
	 SCS Same-Spin Energy      =      -0.1226977667684272 [Eh]
	 SCS Opposite-Spin Energy  =      -1.3954692041932859 [Eh]
	 SCS Correlation Energy    =      -1.5181669709617132 [Eh]
	 SCS Total Energy          =    -382.4182633658583654 [Eh]
	-----------------------------------------------------------

  Dipole Moment: [D]
     X:    -0.9818      Y:    -0.0829      Z:     0.0909     Total:     0.9895

*** Psi4 exiting successfully. Buy a developer a beer!
