                               Psi4 1.4a3.dev225

  ==> Input File <==

--------------------------------------------------------------------------
#psi4
#
memory 32 gb

molecule  {
0 1
  O        0.1020250    -0.5936610     0.2432790
  O        2.2583290    -0.7266490     0.4785580
  O        1.4190320     0.9870310    -0.7687790
  C       -1.1662368     0.1337389    -0.3125325
  C       -2.1583360    -1.0099580    -0.2947280
  C       -1.4377530     1.2430580     0.6217300
  C        1.2597240    -0.0090520    -0.0847670
  H       -0.8680500     0.4152130    -1.2840580
  H       -3.0925200    -0.6019470    -0.6907100
  H       -1.8459410    -1.8462780    -0.9239700
  H       -2.3397190    -1.3819350     0.7169650
  H       -2.3557360     1.7247410     0.2719260
  H       -0.6338990     1.9813890     0.6069580
  H       -1.5931290     0.8972140     1.6473570
  H        3.0793230    -0.2701740     0.2118980
units angstrom
no_reorient  #important for SAPT in psi4, default
symmetry c1  #important for SAPT in psi4, default
}

set PROPERTIES_ORIGIN ["COM"]
properties('MP2/aug-cc-pvtz', properties = ['dipole'])
--------------------------------------------------------------------------

    Molecular point group: c1
  Charge       = 0
  Multiplicity = 1
  Basis Set: AUG-CC-PVTZ
    Blend: AUG-CC-PVTZ
  Basis Set: (AUG-CC-PVTZ AUX)
    Blend: AUG-CC-PVTZ-JKFIT

    Orbital Energies [Eh]
    ---------------------

    Doubly Occupied:

       1A    -20.615649     2A    -20.596590     3A    -20.544203
       4A    -11.431185     5A    -11.306957     6A    -11.231346
       7A    -11.227703     8A     -1.491246     9A     -1.379404
      10A     -1.353155    11A     -1.086383    12A     -0.959633
      13A     -0.867838    14A     -0.796526    15A     -0.730510
      16A     -0.708788    17A     -0.674272    18A     -0.635271
      19A     -0.630053    20A     -0.598392    21A     -0.573076
      22A     -0.557112    23A     -0.532924    24A     -0.517094
      25A     -0.509222    26A     -0.500382    27A     -0.470040
      28A     -0.463972

  @DF-RHF Final Energy:  -380.89088942685112

   => Energetics <=

    Nuclear Repulsion Energy =            323.1871398109059896
    One-Electron Energy =               -1162.1782089054772769
    Two-Electron Energy =                 458.1001796677201128
    Total Energy =                       -380.8908894268511176
  Basis Set: (AUG-CC-PVTZ AUX)
    Blend: AUG-CC-PVTZ-RI
    Molecular point group: c1

    Geometry (in Angstrom), charge = 0, multiplicity = 1:

       Center              X                  Y                   Z               Mass
    ------------   -----------------  -----------------  -----------------  -----------------
         O            0.018461552306    -0.592585352891     0.253213743736    15.994914619570
         O            2.174765552306    -0.725573352891     0.488492743736    15.994914619570
         O            1.335468552306     0.988106647109    -0.758844256264    15.994914619570
         C           -1.249800247694     0.134814547109    -0.302597756264    12.000000000000
         C           -2.241899447694    -1.008882352891    -0.284793256264    12.000000000000
         C           -1.521316447694     1.244133647109     0.631664743736    12.000000000000
         C            1.176160552306    -0.007976352891    -0.074832256264    12.000000000000
         H           -0.951613447694     0.416288647109    -1.274123256264     1.007825032230
         H           -3.176083447694    -0.600871352891    -0.680775256264     1.007825032230
         H           -1.929504447694    -1.845202352891    -0.914035256264     1.007825032230
         H           -2.423282447694    -1.380859352891     0.726899743736     1.007825032230
         H           -2.439299447694     1.725816647109     0.281860743736     1.007825032230
         H           -0.717462447694     1.982464647109     0.616892743736     1.007825032230
         H           -1.676692447694     0.898289647109     1.657291743736     1.007825032230
         H            2.995759552306    -0.269098352891     0.221832743736     1.007825032230

  Basis Set: AUG-CC-PVTZ
    Blend: AUG-CC-PVTZ
  Basis Set: (AUG-CC-PVTZ AUX)
    Blend: AUG-CC-PVTZ-JKFIT
	 Reference Energy          =    -380.8908894268511176 [Eh]
	 Singles Energy            =      -0.0000000000000000 [Eh]
	 Same-Spin Energy          =      -0.3686072650095596 [Eh]
	 Opposite-Spin Energy      =      -1.1641167531069003 [Eh]
	 Correlation Energy        =      -1.5327240181164599 [Eh]
	 Total Energy              =    -382.4236134449676001 [Eh]

	 ================> DF-SCS-MP2 Energies <==================
	-----------------------------------------------------------
	 SCS Same-Spin Scale       =       0.3333333333333333 [-]
	 SCS Opposite-Spin Scale   =       1.2000000000000000 [-]
	 SCS Same-Spin Energy      =      -0.1228690883365199 [Eh]
	 SCS Opposite-Spin Energy  =      -1.3969401037282803 [Eh]
	 SCS Correlation Energy    =      -1.5198091920648000 [Eh]
	 SCS Total Energy          =    -382.4106986189159443 [Eh]
	-----------------------------------------------------------

  Dipole Moment: [D]
     X:    -1.4402      Y:     0.0506      Z:     0.0645     Total:     1.4425

*** Psi4 exiting successfully. Buy a developer a beer!
