                               Psi4 1.4a3.dev225

  ==> Input File <==

--------------------------------------------------------------------------
#psi4
#
memory 32 gb

molecule  {
0 1
  O        0.1020250    -0.5936610     0.2432790
  O        2.2583290    -0.7266490     0.4785580
  O        1.4190320     0.9870310    -0.7687790
  C       -1.1297608     0.1011894    -0.2924519
  C       -2.1583360    -1.0099580    -0.2947280
  C       -1.4377530     1.2430580     0.6217300
  C        1.2597240    -0.0090520    -0.0847670
  H       -0.8680500     0.4152130    -1.2840580
  H       -3.0925200    -0.6019470    -0.6907100
  H       -1.8459410    -1.8462780    -0.9239700
  H       -2.3397190    -1.3819350     0.7169650
  H       -2.3557360     1.7247410     0.2719260
  H       -0.6338990     1.9813890     0.6069580
  H       -1.5931290     0.8972140     1.6473570
  H        3.0793230    -0.2701740     0.2118980
units angstrom
no_reorient  #important for SAPT in psi4, default
symmetry c1  #important for SAPT in psi4, default
}

set PROPERTIES_ORIGIN ["COM"]
properties('MP2/aug-cc-pvtz', properties = ['dipole'])
--------------------------------------------------------------------------

    Molecular point group: c1
  Charge       = 0
  Multiplicity = 1
  Basis Set: AUG-CC-PVTZ
    Blend: AUG-CC-PVTZ
  Basis Set: (AUG-CC-PVTZ AUX)
    Blend: AUG-CC-PVTZ-JKFIT

    Orbital Energies [Eh]
    ---------------------

    Doubly Occupied:

       1A    -20.619285     2A    -20.604956     3A    -20.548034
       4A    -11.436154     5A    -11.303563     6A    -11.228828
       7A    -11.225529     8A     -1.497863     9A     -1.389452
      10A     -1.358973    11A     -1.081010    12A     -0.955662
      13A     -0.876085    14A     -0.792536    15A     -0.738323
      16A     -0.712246    17A     -0.680156    18A     -0.634419
      19A     -0.629079    20A     -0.600389    21A     -0.571084
      22A     -0.555415    23A     -0.535569    24A     -0.524752
      25A     -0.506198    26A     -0.495480    27A     -0.474087
      28A     -0.465446

  @DF-RHF Final Energy:  -380.89770569991606

   => Energetics <=

    Nuclear Repulsion Energy =            323.7820024792509912
    One-Electron Energy =               -1163.2782726937543885
    Two-Electron Energy =                 458.5985645145873377
    Total Energy =                       -380.8977056999160595
  Basis Set: (AUG-CC-PVTZ AUX)
    Blend: AUG-CC-PVTZ-RI
    Molecular point group: c1

    Geometry (in Angstrom), charge = 0, multiplicity = 1:

       Center              X                  Y                   Z               Mass
    ------------   -----------------  -----------------  -----------------  -----------------
         O            0.014254698169    -0.588831350294     0.250897805717    15.994914619570
         O            2.170558698169    -0.721819350294     0.486176805717    15.994914619570
         O            1.331261698169     0.991860649706    -0.761160194283    15.994914619570
         C           -1.217531101831     0.106019049706    -0.284833094283    12.000000000000
         C           -2.246106301831    -1.005128350294    -0.287109194283    12.000000000000
         C           -1.525523301831     1.247887649706     0.629348805717    12.000000000000
         C            1.171953698169    -0.004222350294    -0.077148194283    12.000000000000
         H           -0.955820301831     0.420042649706    -1.276439194283     1.007825032230
         H           -3.180290301831    -0.597117350294    -0.683091194283     1.007825032230
         H           -1.933711301831    -1.841448350294    -0.916351194283     1.007825032230
         H           -2.427489301831    -1.377105350294     0.724583805717     1.007825032230
         H           -2.443506301831     1.729570649706     0.279544805717     1.007825032230
         H           -0.721669301831     1.986218649706     0.614576805717     1.007825032230
         H           -1.680899301831     0.902043649706     1.654975805717     1.007825032230
         H            2.991552698169    -0.265344350294     0.219516805717     1.007825032230

  Basis Set: AUG-CC-PVTZ
    Blend: AUG-CC-PVTZ
  Basis Set: (AUG-CC-PVTZ AUX)
    Blend: AUG-CC-PVTZ-JKFIT
	 Reference Energy          =    -380.8977056999160595 [Eh]
	 Singles Energy            =      -0.0000000000000000 [Eh]
	 Same-Spin Energy          =      -0.3682875031887710 [Eh]
	 Opposite-Spin Energy      =      -1.1633558416559069 [Eh]
	 Correlation Energy        =      -1.5316433448446778 [Eh]
	 Total Energy              =    -382.4293490447607269 [Eh]

	 ================> DF-SCS-MP2 Energies <==================
	-----------------------------------------------------------
	 SCS Same-Spin Scale       =       0.3333333333333333 [-]
	 SCS Opposite-Spin Scale   =       1.2000000000000000 [-]
	 SCS Same-Spin Energy      =      -0.1227625010629236 [Eh]
	 SCS Opposite-Spin Energy  =      -1.3960270099870882 [Eh]
	 SCS Correlation Energy    =      -1.5187895110500118 [Eh]
	 SCS Total Energy          =    -382.4164952109660476 [Eh]
	-----------------------------------------------------------

  Dipole Moment: [D]
     X:    -1.2129      Y:    -0.0132      Z:     0.0760     Total:     1.2153

*** Psi4 exiting successfully. Buy a developer a beer!
