                               Psi4 1.4a3.dev225

  ==> Input File <==

--------------------------------------------------------------------------
#psi4
#
memory 32 gb

molecule  {
0 1
  O        0.1020250    -0.5936610     0.2432790
  O        2.2583290    -0.7266490     0.4785580
  O        1.4190320     0.9870310    -0.7687790
  C       -1.0945380     0.0672860    -0.2723740
  C       -2.1583360    -1.0099580    -0.2947280
  C       -1.4377530     1.2430580     0.6217300
  C        1.2770318    -0.0003120    -0.0896713
  H       -0.8680500     0.4152130    -1.2840580
  H       -3.0925200    -0.6019470    -0.6907100
  H       -1.8459410    -1.8462780    -0.9239700
  H       -2.3397190    -1.3819350     0.7169650
  H       -2.3557360     1.7247410     0.2719260
  H       -0.6338990     1.9813890     0.6069580
  H       -1.5931290     0.8972140     1.6473570
  H        3.0793230    -0.2701740     0.2118980
units angstrom
no_reorient  #important for SAPT in psi4, default
symmetry c1  #important for SAPT in psi4, default
}

set PROPERTIES_ORIGIN ["COM"]
properties('MP2/aug-cc-pvtz', properties = ['dipole'])
--------------------------------------------------------------------------

    Molecular point group: c1
  Charge       = 0
  Multiplicity = 1
  Basis Set: AUG-CC-PVTZ
    Blend: AUG-CC-PVTZ
  Basis Set: (AUG-CC-PVTZ AUX)
    Blend: AUG-CC-PVTZ-JKFIT

    Orbital Energies [Eh]
    ---------------------

    Doubly Occupied:

       1A    -20.625766     2A    -20.607334     3A    -20.555491
       4A    -11.440744     5A    -11.298475     6A    -11.225007
       7A    -11.222141     8A     -1.505235     9A     -1.397270
      10A     -1.371735    11A     -1.072516    12A     -0.950094
      13A     -0.882841    14A     -0.787421    15A     -0.743293
      16A     -0.719224    17A     -0.685042    18A     -0.638315
      19A     -0.624550    20A     -0.605307    21A     -0.569840
      22A     -0.551404    23A     -0.541597    24A     -0.525070
      25A     -0.505099    26A     -0.488387    27A     -0.479692
      28A     -0.462821

  @DF-RHF Final Energy:  -380.90016840142295

   => Energetics <=

    Nuclear Repulsion Energy =            324.2690260745340538
    One-Electron Energy =               -1164.1749653116837635
    Two-Electron Energy =                 459.0057708357267643
    Total Energy =                       -380.9001684014229454
  Basis Set: (AUG-CC-PVTZ AUX)
    Blend: AUG-CC-PVTZ-RI
    Molecular point group: c1

    Geometry (in Angstrom), charge = 0, multiplicity = 1:

       Center              X                  Y                   Z               Mass
    ------------   -----------------  -----------------  -----------------  -----------------
         O            0.008196233099    -0.585929202214     0.249147802374    15.994914619570
         O            2.164500233099    -0.718917202214     0.484426802374    15.994914619570
         O            1.325203233099     0.994762797786    -0.762910197626    15.994914619570
         C           -1.188366766901     0.075017797786    -0.266505197626    12.000000000000
         C           -2.252164766901    -1.002226202214    -0.288859197626    12.000000000000
         C           -1.531581766901     1.250789797786     0.627598802374    12.000000000000
         C            1.183203033099     0.007419797786    -0.083802497626    12.000000000000
         H           -0.961878766901     0.422944797786    -1.278189197626     1.007825032230
         H           -3.186348766901    -0.594215202214    -0.684841197626     1.007825032230
         H           -1.939769766901    -1.838546202214    -0.918101197626     1.007825032230
         H           -2.433547766901    -1.374203202214     0.722833802374     1.007825032230
         H           -2.449564766901     1.732472797786     0.277794802374     1.007825032230
         H           -0.727727766901     1.989120797786     0.612826802374     1.007825032230
         H           -1.686957766901     0.904945797786     1.653225802374     1.007825032230
         H            2.985494233099    -0.262442202214     0.217766802374     1.007825032230

  Basis Set: AUG-CC-PVTZ
    Blend: AUG-CC-PVTZ
  Basis Set: (AUG-CC-PVTZ AUX)
    Blend: AUG-CC-PVTZ-JKFIT
	 Reference Energy          =    -380.9001684014229454 [Eh]
	 Singles Energy            =      -0.0000000000000000 [Eh]
	 Same-Spin Energy          =      -0.3680804437129829 [Eh]
	 Opposite-Spin Energy      =      -1.1628075212109674 [Eh]
	 Correlation Energy        =      -1.5308879649239504 [Eh]
	 Total Energy              =    -382.4310563663469225 [Eh]

	 ================> DF-SCS-MP2 Energies <==================
	-----------------------------------------------------------
	 SCS Same-Spin Scale       =       0.3333333333333333 [-]
	 SCS Opposite-Spin Scale   =       1.2000000000000000 [-]
	 SCS Same-Spin Energy      =      -0.1226934812376610 [Eh]
	 SCS Opposite-Spin Energy  =      -1.3953690254531608 [Eh]
	 SCS Correlation Energy    =      -1.5180625066908218 [Eh]
	 SCS Total Energy          =    -382.4182309081137419 [Eh]
	-----------------------------------------------------------

  Dipole Moment: [D]
     X:    -0.7818      Y:    -0.0173      Z:     0.0495     Total:     0.7835

*** Psi4 exiting successfully. Buy a developer a beer!
