                               Psi4 1.4a3.dev225

  ==> Input File <==

--------------------------------------------------------------------------
#psi4
#
memory 32 gb

molecule  {
0 1
  O        0.1020250    -0.5936610     0.2432790
  O        2.2583290    -0.7266490     0.4785580
  O        1.4190320     0.9870310    -0.7687790
  C       -1.0945380     0.0672860    -0.2723740
  C       -2.1583360    -1.0099580    -0.2947280
  C       -1.4377530     1.2430580     0.6217300
  C        1.1731850    -0.0527520    -0.0602453
  H       -0.8680500     0.4152130    -1.2840580
  H       -3.0925200    -0.6019470    -0.6907100
  H       -1.8459410    -1.8462780    -0.9239700
  H       -2.3397190    -1.3819350     0.7169650
  H       -2.3557360     1.7247410     0.2719260
  H       -0.6338990     1.9813890     0.6069580
  H       -1.5931290     0.8972140     1.6473570
  H        3.0793230    -0.2701740     0.2118980
units angstrom
no_reorient  #important for SAPT in psi4, default
symmetry c1  #important for SAPT in psi4, default
}

set PROPERTIES_ORIGIN ["COM"]
properties('MP2/aug-cc-pvtz', properties = ['dipole'])
--------------------------------------------------------------------------

    Molecular point group: c1
  Charge       = 0
  Multiplicity = 1
  Basis Set: AUG-CC-PVTZ
    Blend: AUG-CC-PVTZ
  Basis Set: (AUG-CC-PVTZ AUX)
    Blend: AUG-CC-PVTZ-JKFIT

    Orbital Energies [Eh]
    ---------------------

    Doubly Occupied:

       1A    -20.637810     2A    -20.606736     3A    -20.532369
       4A    -11.441140     5A    -11.315191     6A    -11.235634
       7A    -11.231453     8A     -1.532403     9A     -1.403477
      10A     -1.316416    11A     -1.096108    12A     -0.961123
      13A     -0.902194    14A     -0.796689    15A     -0.761085
      16A     -0.709037    17A     -0.692985    18A     -0.640918
      19A     -0.627301    20A     -0.586841    21A     -0.573134
      22A     -0.560536    23A     -0.551874    24A     -0.536197
      25A     -0.507481    26A     -0.494415    27A     -0.455563
      28A     -0.452850

  @DF-RHF Final Energy:  -380.88479168311176

   => Energetics <=

    Nuclear Repulsion Energy =            325.0553440203488549
    One-Electron Energy =               -1165.5623548167002355
    Two-Electron Energy =                 459.6222191132395665
    Total Energy =                       -380.8847916831117573
  Basis Set: (AUG-CC-PVTZ AUX)
    Blend: AUG-CC-PVTZ-RI
    Molecular point group: c1

    Geometry (in Angstrom), charge = 0, multiplicity = 1:

       Center              X                  Y                   Z               Mass
    ------------   -----------------  -----------------  -----------------  -----------------
         O            0.020173103922    -0.579881186233     0.245754039631    15.994914619570
         O            2.176477103922    -0.712869186233     0.481033039631    15.994914619570
         O            1.337180103922     1.000810813767    -0.766303960369    15.994914619570
         C           -1.176389896078     0.081065813767    -0.269898960369    12.000000000000
         C           -2.240187896078    -0.996178186233    -0.292252960369    12.000000000000
         C           -1.519604896078     1.256837813767     0.624205039631    12.000000000000
         C            1.091333103922    -0.038972186233    -0.057770260369    12.000000000000
         H           -0.949901896078     0.428992813767    -1.281582960369     1.007825032230
         H           -3.174371896078    -0.588167186233    -0.688234960369     1.007825032230
         H           -1.927792896078    -1.832498186233    -0.921494960369     1.007825032230
         H           -2.421570896078    -1.368155186233     0.719440039631     1.007825032230
         H           -2.437587896078     1.738520813767     0.274401039631     1.007825032230
         H           -0.715750896078     1.995168813767     0.609433039631     1.007825032230
         H           -1.674980896078     0.910993813767     1.649832039631     1.007825032230
         H            2.997471103922    -0.256394186233     0.214373039631     1.007825032230

  Basis Set: AUG-CC-PVTZ
    Blend: AUG-CC-PVTZ
  Basis Set: (AUG-CC-PVTZ AUX)
    Blend: AUG-CC-PVTZ-JKFIT
	 Reference Energy          =    -380.8847916831117573 [Eh]
	 Singles Energy            =      -0.0000000000000000 [Eh]
	 Same-Spin Energy          =      -0.3683935411186980 [Eh]
	 Opposite-Spin Energy      =      -1.1630779411465166 [Eh]
	 Correlation Energy        =      -1.5314714822652147 [Eh]
	 Total Energy              =    -382.4162631653769608 [Eh]

	 ================> DF-SCS-MP2 Energies <==================
	-----------------------------------------------------------
	 SCS Same-Spin Scale       =       0.3333333333333333 [-]
	 SCS Opposite-Spin Scale   =       1.2000000000000000 [-]
	 SCS Same-Spin Energy      =      -0.1227978470395660 [Eh]
	 SCS Opposite-Spin Energy  =      -1.3956935293758199 [Eh]
	 SCS Correlation Energy    =      -1.5184913764153860 [Eh]
	 SCS Total Energy          =    -382.4032830595271548 [Eh]
	-----------------------------------------------------------

  Dipole Moment: [D]
     X:    -2.0687      Y:    -0.3781      Z:     0.2876     Total:     2.1226

*** Psi4 exiting successfully. Buy a developer a beer!
