                               Psi4 1.4a3.dev225

  ==> Input File <==

--------------------------------------------------------------------------
#psi4
#
memory 32 gb

molecule  {
0 1
  O        0.1020250    -0.5936610     0.2432790
  O        2.2583290    -0.7266490     0.4785580
  O        1.4190320     0.9870310    -0.7687790
  C       -1.0945380     0.0672860    -0.2723740
  C       -2.1583360    -1.0099580    -0.2947280
  C       -1.4377530     1.2430580     0.6217300
  C        1.3029935     0.0127980    -0.0970279
  H       -0.8680500     0.4152130    -1.2840580
  H       -3.0925200    -0.6019470    -0.6907100
  H       -1.8459410    -1.8462780    -0.9239700
  H       -2.3397190    -1.3819350     0.7169650
  H       -2.3557360     1.7247410     0.2719260
  H       -0.6338990     1.9813890     0.6069580
  H       -1.5931290     0.8972140     1.6473570
  H        3.0793230    -0.2701740     0.2118980
units angstrom
no_reorient  #important for SAPT in psi4, default
symmetry c1  #important for SAPT in psi4, default
}

set PROPERTIES_ORIGIN ["COM"]
properties('MP2/aug-cc-pvtz', properties = ['dipole'])
--------------------------------------------------------------------------

    Molecular point group: c1
  Charge       = 0
  Multiplicity = 1
  Basis Set: AUG-CC-PVTZ
    Blend: AUG-CC-PVTZ
  Basis Set: (AUG-CC-PVTZ AUX)
    Blend: AUG-CC-PVTZ-JKFIT

    Orbital Energies [Eh]
    ---------------------

    Doubly Occupied:

       1A    -20.630320     2A    -20.599607     3A    -20.561119
       4A    -11.440537     5A    -11.294517     6A    -11.222480
       7A    -11.219956     8A     -1.508047     9A     -1.397829
      10A     -1.376246    11A     -1.067159    12A     -0.947509
      13A     -0.879322    14A     -0.785815    15A     -0.739762
      16A     -0.725048    17A     -0.684394    18A     -0.641485
      19A     -0.621703    20A     -0.607472    21A     -0.568442
      22A     -0.549093    23A     -0.537702    24A     -0.522121
      25A     -0.509045    26A     -0.491006    27A     -0.478932
      28A     -0.460056

  @DF-RHF Final Energy:  -380.89748854144881

   => Energetics <=

    Nuclear Repulsion Energy =            324.1155278663194395
    One-Electron Energy =               -1163.8925802379162633
    Two-Electron Energy =                 458.8795638301480153
    Total Energy =                       -380.8974885414488085
  Basis Set: (AUG-CC-PVTZ AUX)
    Blend: AUG-CC-PVTZ-RI
    Molecular point group: c1

    Geometry (in Angstrom), charge = 0, multiplicity = 1:

       Center              X                  Y                   Z               Mass
    ------------   -----------------  -----------------  -----------------  -----------------
         O            0.005202015393    -0.587441206209     0.249996254593    15.994914619570
         O            2.161506015393    -0.720429206209     0.485275254593    15.994914619570
         O            1.322209015393     0.993250793791    -0.762061745407    15.994914619570
         C           -1.191360984607     0.073505793791    -0.265656745407    12.000000000000
         C           -2.255158984607    -1.003738206209    -0.288010745407    12.000000000000
         C           -1.534575984607     1.249277793791     0.628447254593    12.000000000000
         C            1.206170515393     0.019017793791    -0.090310645407    12.000000000000
         H           -0.964872984607     0.421432793791    -1.277340745407     1.007825032230
         H           -3.189342984607    -0.595727206209    -0.683992745407     1.007825032230
         H           -1.942763984607    -1.840058206209    -0.917252745407     1.007825032230
         H           -2.436541984607    -1.375715206209     0.723682254593     1.007825032230
         H           -2.452558984607     1.730960793791     0.278643254593     1.007825032230
         H           -0.730721984607     1.987608793791     0.613675254593     1.007825032230
         H           -1.689951984607     0.903433793791     1.654074254593     1.007825032230
         H            2.982500015393    -0.263954206209     0.218615254593     1.007825032230

  Basis Set: AUG-CC-PVTZ
    Blend: AUG-CC-PVTZ
  Basis Set: (AUG-CC-PVTZ AUX)
    Blend: AUG-CC-PVTZ-JKFIT
	 Reference Energy          =    -380.8974885414488085 [Eh]
	 Singles Energy            =      -0.0000000000000000 [Eh]
	 Same-Spin Energy          =      -0.3680935352807164 [Eh]
	 Opposite-Spin Energy      =      -1.1629609153309064 [Eh]
	 Correlation Energy        =      -1.5310544506116228 [Eh]
	 Total Energy              =    -382.4285429920604429 [Eh]

	 ================> DF-SCS-MP2 Energies <==================
	-----------------------------------------------------------
	 SCS Same-Spin Scale       =       0.3333333333333333 [-]
	 SCS Opposite-Spin Scale   =       1.2000000000000000 [-]
	 SCS Same-Spin Energy      =      -0.1226978450935721 [Eh]
	 SCS Opposite-Spin Energy  =      -1.3955530983970876 [Eh]
	 SCS Correlation Energy    =      -1.5182509434906597 [Eh]
	 SCS Total Energy          =    -382.4157394849394791 [Eh]
	-----------------------------------------------------------

  Dipole Moment: [D]
     X:    -0.4678      Y:     0.0746      Z:    -0.0103     Total:     0.4738

*** Psi4 exiting successfully. Buy a developer a beer!
