                               Psi4 1.4a3.dev225

  ==> Input File <==

--------------------------------------------------------------------------
#psi4
#
memory 32 gb

molecule  {
0 1
  O        0.1020250    -0.5936610     0.2432790
  O        2.2583290    -0.7266490     0.4785580
  O        1.4190320     0.9870310    -0.7687790
  C       -1.0945380     0.0672860    -0.2723740
  C       -2.1569128    -1.0115858    -0.2683902
  C       -1.4377530     1.2430580     0.6217300
  C        1.2597240    -0.0090520    -0.0847670
  H       -0.8680500     0.4152130    -1.2840580
  H       -3.0925200    -0.6019470    -0.6907100
  H       -1.8459410    -1.8462780    -0.9239700
  H       -2.3397190    -1.3819350     0.7169650
  H       -2.3557360     1.7247410     0.2719260
  H       -0.6338990     1.9813890     0.6069580
  H       -1.5931290     0.8972140     1.6473570
  H        3.0793230    -0.2701740     0.2118980
units angstrom
no_reorient  #important for SAPT in psi4, default
symmetry c1  #important for SAPT in psi4, default
}

set PROPERTIES_ORIGIN ["COM"]
properties('MP2/aug-cc-pvtz', properties = ['dipole'])
--------------------------------------------------------------------------

    Molecular point group: c1
  Charge       = 0
  Multiplicity = 1
  Basis Set: AUG-CC-PVTZ
    Blend: AUG-CC-PVTZ
  Basis Set: (AUG-CC-PVTZ AUX)
    Blend: AUG-CC-PVTZ-JKFIT

    Orbital Energies [Eh]
    ---------------------

    Doubly Occupied:

       1A    -20.622662     2A    -20.612219     3A    -20.551781
       4A    -11.440824     5A    -11.301280     6A    -11.226751
       7A    -11.223378     8A     -1.505042     9A     -1.400526
      10A     -1.363900    11A     -1.076429    12A     -0.951479
      13A     -0.885398    14A     -0.789127    15A     -0.746031
      16A     -0.715533    17A     -0.686264    18A     -0.637369
      19A     -0.624481    20A     -0.604111    21A     -0.569664
      22A     -0.557897    23A     -0.540750    24A     -0.525232
      25A     -0.502935    26A     -0.490368    27A     -0.477690
      28A     -0.463053

  @DF-RHF Final Energy:  -380.89979635910282

   => Energetics <=

    Nuclear Repulsion Energy =            324.4453897508464593
    One-Electron Energy =               -1164.5060226059406432
    Two-Electron Energy =                 459.1608364959913047
    Total Energy =                       -380.8997963591028224
  Basis Set: (AUG-CC-PVTZ AUX)
    Blend: AUG-CC-PVTZ-RI
    Molecular point group: c1

    Geometry (in Angstrom), charge = 0, multiplicity = 1:

       Center              X                  Y                   Z               Mass
    ------------   -----------------  -----------------  -----------------  -----------------
         O            0.010028237573    -0.584733461937     0.245544584981    15.994914619570
         O            2.166332237573    -0.717721461937     0.480823584981    15.994914619570
         O            1.327035237573     0.995958538063    -0.766513415019    15.994914619570
         C           -1.186534762427     0.076213538063    -0.270108415019    12.000000000000
         C           -2.248909562427    -1.002658261937    -0.266124615019    12.000000000000
         C           -1.529749762427     1.251985538063     0.623995584981    12.000000000000
         C            1.167727237573    -0.000124461937    -0.082501415019    12.000000000000
         H           -0.960046762427     0.424140538063    -1.281792415019     1.007825032230
         H           -3.184516762427    -0.593019461937    -0.688444415019     1.007825032230
         H           -1.937937762427    -1.837350461937    -0.921704415019     1.007825032230
         H           -2.431715762427    -1.373007461937     0.719230584981     1.007825032230
         H           -2.447732762427     1.733668538063     0.274191584981     1.007825032230
         H           -0.725895762427     1.990316538063     0.609223584981     1.007825032230
         H           -1.685125762427     0.906141538063     1.649622584981     1.007825032230
         H            2.987326237573    -0.261246461937     0.214163584981     1.007825032230

  Basis Set: AUG-CC-PVTZ
    Blend: AUG-CC-PVTZ
  Basis Set: (AUG-CC-PVTZ AUX)
    Blend: AUG-CC-PVTZ-JKFIT
	 Reference Energy          =    -380.8997963591028224 [Eh]
	 Singles Energy            =      -0.0000000000000000 [Eh]
	 Same-Spin Energy          =      -0.3681254820997487 [Eh]
	 Opposite-Spin Energy      =      -1.1628246324713856 [Eh]
	 Correlation Energy        =      -1.5309501145711342 [Eh]
	 Total Energy              =    -382.4307464736739348 [Eh]

	 ================> DF-SCS-MP2 Energies <==================
	-----------------------------------------------------------
	 SCS Same-Spin Scale       =       0.3333333333333333 [-]
	 SCS Opposite-Spin Scale   =       1.2000000000000000 [-]
	 SCS Same-Spin Energy      =      -0.1227084940332496 [Eh]
	 SCS Opposite-Spin Energy  =      -1.3953895589656626 [Eh]
	 SCS Correlation Energy    =      -1.5180980529989121 [Eh]
	 SCS Total Energy          =    -382.4178944121017594 [Eh]
	-----------------------------------------------------------

  Dipole Moment: [D]
     X:    -0.9928      Y:    -0.0805      Z:     0.0991     Total:     1.0010

*** Psi4 exiting successfully. Buy a developer a beer!
