                               Psi4 1.4a3.dev225

  ==> Input File <==

--------------------------------------------------------------------------
#psi4
#
memory 32 gb

molecule  {
0 1
  O        0.1020250    -0.5936610     0.2432790
  O        2.2583290    -0.7266490     0.4785580
  O        1.4190320     0.9870310    -0.7687790
  C       -1.0945380     0.0672860    -0.2723740
  C       -2.1583360    -1.0099580    -0.2947280
  C       -1.4377530     1.2430580     0.6217300
  C        1.2424162    -0.0177920    -0.0798627
  H       -0.8680500     0.4152130    -1.2840580
  H       -3.0925200    -0.6019470    -0.6907100
  H       -1.8459410    -1.8462780    -0.9239700
  H       -2.3397190    -1.3819350     0.7169650
  H       -2.3557360     1.7247410     0.2719260
  H       -0.6338990     1.9813890     0.6069580
  H       -1.5931290     0.8972140     1.6473570
  H        3.0793230    -0.2701740     0.2118980
units angstrom
no_reorient  #important for SAPT in psi4, default
symmetry c1  #important for SAPT in psi4, default
}

set PROPERTIES_ORIGIN ["COM"]
properties('MP2/aug-cc-pvtz', properties = ['dipole'])
--------------------------------------------------------------------------

    Molecular point group: c1
  Charge       = 0
  Multiplicity = 1
  Basis Set: AUG-CC-PVTZ
    Blend: AUG-CC-PVTZ
  Basis Set: (AUG-CC-PVTZ AUX)
    Blend: AUG-CC-PVTZ-JKFIT

    Orbital Energies [Eh]
    ---------------------

    Doubly Occupied:

       1A    -20.619625     2A    -20.617517     3A    -20.547946
       4A    -11.441075     5A    -11.303867     6A    -11.228436
       7A    -11.225130     8A     -1.506619     9A     -1.403616
      10A     -1.354896    11A     -1.079975    12A     -0.953629
      13A     -0.888330    14A     -0.789678    15A     -0.749286
      16A     -0.711912    17A     -0.688071    18A     -0.636595
      19A     -0.626688    20A     -0.600357    21A     -0.571585
      22A     -0.554458    23A     -0.546518    24A     -0.529167
      25A     -0.502823    26A     -0.488575    27A     -0.474245
      28A     -0.463644

  @DF-RHF Final Energy:  -380.89992493124419

   => Energetics <=

    Nuclear Repulsion Energy =            324.4971029486120528
    One-Electron Energy =               -1164.5855348269847127
    Two-Electron Energy =                 459.1885069471284169
    Total Energy =                       -380.8999249312441862
  Basis Set: (AUG-CC-PVTZ AUX)
    Blend: AUG-CC-PVTZ-RI
    Molecular point group: c1

    Geometry (in Angstrom), charge = 0, multiplicity = 1:

       Center              X                  Y                   Z               Mass
    ------------   -----------------  -----------------  -----------------  -----------------
         O            0.012188523373    -0.583913196887     0.248016555815    15.994914619570
         O            2.168492523373    -0.716901196887     0.483295555815    15.994914619570
         O            1.329195523373     0.996778803113    -0.764041444185    15.994914619570
         C           -1.184374476627     0.077033803113    -0.267636444185    12.000000000000
         C           -2.248172476627    -1.000210196887    -0.289990444185    12.000000000000
         C           -1.527589476627     1.252805803113     0.626467555815    12.000000000000
         C            1.152579723373    -0.008044196887    -0.075125144185    12.000000000000
         H           -0.957886476627     0.424960803113    -1.279320444185     1.007825032230
         H           -3.182356476627    -0.592199196887    -0.685972444185     1.007825032230
         H           -1.935777476627    -1.836530196887    -0.919232444185     1.007825032230
         H           -2.429555476627    -1.372187196887     0.721702555815     1.007825032230
         H           -2.445572476627     1.734488803113     0.276663555815     1.007825032230
         H           -0.723735476627     1.991136803113     0.611695555815     1.007825032230
         H           -1.682965476627     0.906961803113     1.652094555815     1.007825032230
         H            2.989486523373    -0.260426196887     0.216635555815     1.007825032230

  Basis Set: AUG-CC-PVTZ
    Blend: AUG-CC-PVTZ
  Basis Set: (AUG-CC-PVTZ AUX)
    Blend: AUG-CC-PVTZ-JKFIT
	 Reference Energy          =    -380.8999249312441862 [Eh]
	 Singles Energy            =      -0.0000000000000000 [Eh]
	 Same-Spin Energy          =      -0.3681362895023113 [Eh]
	 Opposite-Spin Energy      =      -1.1627664260560615 [Eh]
	 Correlation Energy        =      -1.5309027155583728 [Eh]
	 Total Energy              =    -382.4308276468025838 [Eh]

	 ================> DF-SCS-MP2 Energies <==================
	-----------------------------------------------------------
	 SCS Same-Spin Scale       =       0.3333333333333333 [-]
	 SCS Opposite-Spin Scale   =       1.2000000000000000 [-]
	 SCS Same-Spin Energy      =      -0.1227120965007704 [Eh]
	 SCS Opposite-Spin Energy  =      -1.3953197112672737 [Eh]
	 SCS Correlation Energy    =      -1.5180318077680441 [Eh]
	 SCS Total Energy          =    -382.4179567390122543 [Eh]
	-----------------------------------------------------------

  Dipole Moment: [D]
     X:    -1.2040      Y:    -0.1380      Z:     0.1286     Total:     1.2186

*** Psi4 exiting successfully. Buy a developer a beer!
