                               Psi4 1.4a3.dev225

  ==> Input File <==

--------------------------------------------------------------------------
#psi4
#
memory 32 gb

molecule  {
0 1
  O        0.1020250    -0.5936610     0.2432790
  O        2.2583290    -0.7266490     0.4785580
  O        1.4190320     0.9870310    -0.7687790
  C       -1.0774100     0.0498395    -0.2623438
  C       -2.1583360    -1.0099580    -0.2947280
  C       -1.4377530     1.2430580     0.6217300
  C        1.2597240    -0.0090520    -0.0847670
  H       -0.8680500     0.4152130    -1.2840580
  H       -3.0925200    -0.6019470    -0.6907100
  H       -1.8459410    -1.8462780    -0.9239700
  H       -2.3397190    -1.3819350     0.7169650
  H       -2.3557360     1.7247410     0.2719260
  H       -0.6338990     1.9813890     0.6069580
  H       -1.5931290     0.8972140     1.6473570
  H        3.0793230    -0.2701740     0.2118980
units angstrom
no_reorient  #important for SAPT in psi4, default
symmetry c1  #important for SAPT in psi4, default
}

set PROPERTIES_ORIGIN ["COM"]
properties('MP2/aug-cc-pvtz', properties = ['dipole'])
--------------------------------------------------------------------------

    Molecular point group: c1
  Charge       = 0
  Multiplicity = 1
  Basis Set: AUG-CC-PVTZ
    Blend: AUG-CC-PVTZ
  Basis Set: (AUG-CC-PVTZ AUX)
    Blend: AUG-CC-PVTZ-JKFIT

    Orbital Energies [Eh]
    ---------------------

    Doubly Occupied:

       1A    -20.624359     2A    -20.615872     3A    -20.553544
       4A    -11.443231     5A    -11.300325     6A    -11.225802
       7A    -11.222744     8A     -1.509006     9A     -1.406375
      10A     -1.366066    11A     -1.074056    12A     -0.949990
      13A     -0.890567    14A     -0.786603    15A     -0.750110
      16A     -0.716936    17A     -0.689453    18A     -0.638480
      19A     -0.624701    20A     -0.604799    21A     -0.571036
      22A     -0.551554    23A     -0.548630    24A     -0.527801
      25A     -0.502183    26A     -0.484697    27A     -0.479224
      28A     -0.460969

  @DF-RHF Final Energy:  -380.90034583998050

   => Energetics <=

    Nuclear Repulsion Energy =            324.6802882697805899
    One-Electron Energy =               -1164.9230426400224587
    Two-Electron Energy =                 459.3424085302613662
    Total Energy =                       -380.9003458399805027
  Basis Set: (AUG-CC-PVTZ AUX)
    Blend: AUG-CC-PVTZ-RI
    Molecular point group: c1

    Geometry (in Angstrom), charge = 0, multiplicity = 1:

       Center              X                  Y                   Z               Mass
    ------------   -----------------  -----------------  -----------------  -----------------
         O            0.008216969813    -0.582909057849     0.247425374940    15.994914619570
         O            2.164520969813    -0.715897057849     0.482704374940    15.994914619570
         O            1.325223969813     0.997782942151    -0.764632625060    15.994914619570
         C           -1.171218030187     0.060591442151    -0.258197425060    12.000000000000
         C           -2.252144030187    -0.999206057849    -0.290581625060    12.000000000000
         C           -1.531561030187     1.253809942151     0.625876374940    12.000000000000
         C            1.165915969813     0.001699942151    -0.080620625060    12.000000000000
         H           -0.961858030187     0.425964942151    -1.279911625060     1.007825032230
         H           -3.186328030187    -0.591195057849    -0.686563625060     1.007825032230
         H           -1.939749030187    -1.835526057849    -0.919823625060     1.007825032230
         H           -2.433527030187    -1.371183057849     0.721111374940     1.007825032230
         H           -2.449544030187     1.735492942151     0.276072374940     1.007825032230
         H           -0.727707030187     1.992140942151     0.611104374940     1.007825032230
         H           -1.686937030187     0.907965942151     1.651503374940     1.007825032230
         H            2.985514969813    -0.259422057849     0.216044374940     1.007825032230

  Basis Set: AUG-CC-PVTZ
    Blend: AUG-CC-PVTZ
  Basis Set: (AUG-CC-PVTZ AUX)
    Blend: AUG-CC-PVTZ-JKFIT
	 Reference Energy          =    -380.9003458399805027 [Eh]
	 Singles Energy            =      -0.0000000000000000 [Eh]
	 Same-Spin Energy          =      -0.3680649141464859 [Eh]
	 Opposite-Spin Energy      =      -1.1625601125112219 [Eh]
	 Correlation Energy        =      -1.5306250266577077 [Eh]
	 Total Energy              =    -382.4309708666382335 [Eh]

	 ================> DF-SCS-MP2 Energies <==================
	-----------------------------------------------------------
	 SCS Same-Spin Scale       =       0.3333333333333333 [-]
	 SCS Opposite-Spin Scale   =       1.2000000000000000 [-]
	 SCS Same-Spin Energy      =      -0.1226883047154953 [Eh]
	 SCS Opposite-Spin Energy  =      -1.3950721350134663 [Eh]
	 SCS Correlation Energy    =      -1.5177604397289615 [Eh]
	 SCS Total Energy          =    -382.4181062797094910 [Eh]
	-----------------------------------------------------------

  Dipole Moment: [D]
     X:    -0.8837      Y:    -0.1110      Z:     0.0966     Total:     0.8959

*** Psi4 exiting successfully. Buy a developer a beer!
