                               Psi4 1.4a3.dev225

  ==> Input File <==

--------------------------------------------------------------------------
#psi4
#
memory 32 gb

molecule  {
0 1
  O        2.3476870     0.7564740    -0.5170070
  N        0.1051940     2.2022940     0.2485340
  N        2.3184480    -1.3288730     0.3923020
  C        0.2041490    -0.2277810    -0.0328410
  C       -0.5292580     0.9782650     0.0721850
  C       -0.4780620    -1.4467680    -0.1744800
  C       -1.9322610     0.8976940     0.1244170
  C       -1.8678090    -1.5041600    -0.1507450
  C       -2.5929860    -0.3189550    -0.0016080
  C        1.6942170    -0.1960210    -0.0707790
  H        0.0963370    -2.3571300    -0.3293910
  H       -2.5048800     1.8176440     0.2323000
  H       -2.3796530    -2.4547020    -0.2729900
  H       -3.6801520    -0.3414970     0.0246030
  H        1.0340450     2.2328410    -0.1623240
  H       -0.4673770     3.0011870     0.0009920
  H        1.8738155    -1.9142956     1.0859360
  H        3.3240540    -1.2501130     0.4893940
units angstrom
no_reorient  #important for SAPT in psi4, default
symmetry c1  #important for SAPT in psi4, default
}

set PROPERTIES_ORIGIN ["COM"]
properties('MP2/aug-cc-pvtz', properties = ['dipole'])
--------------------------------------------------------------------------

    Molecular point group: c1
  Charge       = 0
  Multiplicity = 1
  Basis Set: AUG-CC-PVTZ
    Blend: AUG-CC-PVTZ
  Basis Set: (AUG-CC-PVTZ AUX)
    Blend: AUG-CC-PVTZ-JKFIT

    Orbital Energies [Eh]
    ---------------------

    Doubly Occupied:

       1A    -20.526907     2A    -15.587657     3A    -15.560041
       4A    -11.364386     5A    -11.297034     6A    -11.255660
       7A    -11.253125     8A    -11.244180     9A    -11.234408
      10A    -11.231872    11A     -1.380513    12A     -1.227095
      13A     -1.214016    14A     -1.136924    15A     -1.036522
      16A     -0.998399    17A     -0.877587    18A     -0.833754
      19A     -0.794076    20A     -0.735357    21A     -0.697844
      22A     -0.687820    23A     -0.673108    24A     -0.638148
      25A     -0.608690    26A     -0.603951    27A     -0.586387
      28A     -0.574998    29A     -0.539312    30A     -0.523462
      31A     -0.509791    32A     -0.454981    33A     -0.436309
      34A     -0.420705    35A     -0.352007    36A     -0.303099

  @DF-RHF Final Energy:  -453.68652295527937

   => Energetics <=

    Nuclear Repulsion Energy =            499.6818827512491907
    One-Electron Energy =               -1607.9365641788886023
    Two-Electron Energy =                 654.5681584723599826
    Total Energy =                       -453.6865229552793153
  Basis Set: (AUG-CC-PVTZ AUX)
    Blend: AUG-CC-PVTZ-RI
    Molecular point group: c1

    Geometry (in Angstrom), charge = 0, multiplicity = 1:

       Center              X                  Y                   Z               Mass
    ------------   -----------------  -----------------  -----------------  -----------------
         O            2.327546402266     0.747348629482    -0.509472735048    15.994914619570
         N            0.085053402266     2.193168629482     0.256068264952    14.003074004430
         N            2.298307402266    -1.337998370518     0.399836264952    14.003074004430
         C            0.184008402266    -0.236906370518    -0.025306735048    12.000000000000
         C           -0.549398597734     0.969139629482     0.079719264952    12.000000000000
         C           -0.498202597734    -1.455893370518    -0.166945735048    12.000000000000
         C           -1.952401597734     0.888568629482     0.131951264952    12.000000000000
         C           -1.887949597734    -1.513285370518    -0.143210735048    12.000000000000
         C           -2.613126597734    -0.328080370518     0.005926264952    12.000000000000
         C            1.674076402266    -0.205146370518    -0.063244735048    12.000000000000
         H            0.076196402266    -2.366255370518    -0.321856735048     1.007825032230
         H           -2.525020597734     1.808518629482     0.239834264952     1.007825032230
         H           -2.399793597734    -2.463827370518    -0.265455735048     1.007825032230
         H           -3.700292597734    -0.350622370518     0.032137264952     1.007825032230
         H            1.013904402266     2.223715629482    -0.154789735048     1.007825032230
         H           -0.487517597734     2.992061629482     0.008526264952     1.007825032230
         H            1.853674902266    -1.923420970518     1.093470264952     1.007825032230
         H            3.303913402266    -1.259238370518     0.496928264952     1.007825032230

  Basis Set: AUG-CC-PVTZ
    Blend: AUG-CC-PVTZ
  Basis Set: (AUG-CC-PVTZ AUX)
    Blend: AUG-CC-PVTZ-JKFIT
	 Reference Energy          =    -453.6865229552793721 [Eh]
	 Singles Energy            =      -0.0000000000000000 [Eh]
	 Same-Spin Energy          =      -0.4861447722527386 [Eh]
	 Opposite-Spin Energy      =      -1.4788658331318851 [Eh]
	 Correlation Energy        =      -1.9650106053846237 [Eh]
	 Total Energy              =    -455.6515335606640065 [Eh]

	 ================> DF-SCS-MP2 Energies <==================
	-----------------------------------------------------------
	 SCS Same-Spin Scale       =       0.3333333333333333 [-]
	 SCS Opposite-Spin Scale   =       1.2000000000000000 [-]
	 SCS Same-Spin Energy      =      -0.1620482574175795 [Eh]
	 SCS Opposite-Spin Energy  =      -1.7746389997582621 [Eh]
	 SCS Correlation Energy    =      -1.9366872571758416 [Eh]
	 SCS Total Energy          =    -455.6232102124552057 [Eh]
	-----------------------------------------------------------

  Dipole Moment: [D]
     X:    -1.1021      Y:    -1.3569      Z:     1.0801     Total:     2.0549

*** Psi4 exiting successfully. Buy a developer a beer!
