                               Psi4 1.4a3.dev225

  ==> Input File <==

--------------------------------------------------------------------------
#psi4
#
memory 32 gb

molecule  {
0 1
  O        2.3476870     0.7564740    -0.5170070
  N        0.1051940     2.2022940     0.2485340
  N        2.3184480    -1.3288730     0.3923020
  C        0.2041490    -0.2277810    -0.0328410
  C       -0.5292580     0.9782650     0.0721850
  C       -0.4780620    -1.4467680    -0.1744800
  C       -1.9322610     0.8976940     0.1244170
  C       -1.8678090    -1.5041600    -0.1507450
  C       -2.5929860    -0.3189550    -0.0016080
  C        1.6942170    -0.1960210    -0.0707790
  H        0.0963370    -2.3571300    -0.3293910
  H       -2.5048800     1.8176440     0.2323000
  H       -2.3796530    -2.4547020    -0.2729900
  H       -3.6801520    -0.3414970     0.0246030
  H        1.0523273     2.2334422    -0.1704108
  H       -0.4673770     3.0011870     0.0009920
  H        1.8426920    -1.9076120     1.0707290
  H        3.3240540    -1.2501130     0.4893940
units angstrom
no_reorient  #important for SAPT in psi4, default
symmetry c1  #important for SAPT in psi4, default
}

set PROPERTIES_ORIGIN ["COM"]
properties('MP2/aug-cc-pvtz', properties = ['dipole'])
--------------------------------------------------------------------------

    Molecular point group: c1
  Charge       = 0
  Multiplicity = 1
  Basis Set: AUG-CC-PVTZ
    Blend: AUG-CC-PVTZ
  Basis Set: (AUG-CC-PVTZ AUX)
    Blend: AUG-CC-PVTZ-JKFIT

    Orbital Energies [Eh]
    ---------------------

    Doubly Occupied:

       1A    -20.526788     2A    -15.587910     3A    -15.561280
       4A    -11.364014     5A    -11.297051     6A    -11.255874
       7A    -11.253195     8A    -11.244244     9A    -11.234438
      10A    -11.231975    11A     -1.380627    12A     -1.225261
      13A     -1.214400    14A     -1.136274    15A     -1.036546
      16A     -0.997714    17A     -0.877013    18A     -0.833568
      19A     -0.792425    20A     -0.736274    21A     -0.698645
      22A     -0.685525    23A     -0.673139    24A     -0.637629
      25A     -0.608874    26A     -0.603457    27A     -0.585199
      28A     -0.575377    29A     -0.539454    30A     -0.523315
      31A     -0.509911    32A     -0.454679    33A     -0.435645
      34A     -0.420761    35A     -0.352174    36A     -0.302866

  @DF-RHF Final Energy:  -453.68563454116224

   => Energetics <=

    Nuclear Repulsion Energy =            499.6715922386443935
    One-Electron Energy =               -1607.9274125683232342
    Two-Electron Energy =                 654.5701857885167101
    Total Energy =                       -453.6856345411622442
  Basis Set: (AUG-CC-PVTZ AUX)
    Blend: AUG-CC-PVTZ-RI
    Molecular point group: c1

    Geometry (in Angstrom), charge = 0, multiplicity = 1:

       Center              X                  Y                   Z               Mass
    ------------   -----------------  -----------------  -----------------  -----------------
         O            2.327641517174     0.747294670889    -0.509300197617    15.994914619570
         N            0.085148517174     2.193114670889     0.256240802383    14.003074004430
         N            2.298402517174    -1.338052329111     0.400008802383    14.003074004430
         C            0.184103517174    -0.236960329111    -0.025134197617    12.000000000000
         C           -0.549303482826     0.969085670889     0.079891802383    12.000000000000
         C           -0.498107482826    -1.455947329111    -0.166773197617    12.000000000000
         C           -1.952306482826     0.888514670889     0.132123802383    12.000000000000
         C           -1.887854482826    -1.513339329111    -0.143038197617    12.000000000000
         C           -2.613031482826    -0.328134329111     0.006098802383    12.000000000000
         C            1.674171517174    -0.205200329111    -0.063072197617    12.000000000000
         H            0.076291517174    -2.366309329111    -0.321684197617     1.007825032230
         H           -2.524925482826     1.808464670889     0.240006802383     1.007825032230
         H           -2.399698482826    -2.463881329111    -0.265283197617     1.007825032230
         H           -3.700197482826    -0.350676329111     0.032309802383     1.007825032230
         H            1.032281817174     2.224262870889    -0.162703997617     1.007825032230
         H           -0.487422482826     2.992007670889     0.008698802383     1.007825032230
         H            1.822646517174    -1.916791329111     1.078435802383     1.007825032230
         H            3.304008517174    -1.259292329111     0.497100802383     1.007825032230

  Basis Set: AUG-CC-PVTZ
    Blend: AUG-CC-PVTZ
  Basis Set: (AUG-CC-PVTZ AUX)
    Blend: AUG-CC-PVTZ-JKFIT
	 Reference Energy          =    -453.6856345411622442 [Eh]
	 Singles Energy            =      -0.0000000000000000 [Eh]
	 Same-Spin Energy          =      -0.4863724059813717 [Eh]
	 Opposite-Spin Energy      =      -1.4792605597805537 [Eh]
	 Correlation Energy        =      -1.9656329657619254 [Eh]
	 Total Energy              =    -455.6512675069241709 [Eh]

	 ================> DF-SCS-MP2 Energies <==================
	-----------------------------------------------------------
	 SCS Same-Spin Scale       =       0.3333333333333333 [-]
	 SCS Opposite-Spin Scale   =       1.2000000000000000 [-]
	 SCS Same-Spin Energy      =      -0.1621241353271239 [Eh]
	 SCS Opposite-Spin Energy  =      -1.7751126717366643 [Eh]
	 SCS Correlation Energy    =      -1.9372368070637882 [Eh]
	 SCS Total Energy          =    -455.6228713482260559 [Eh]
	-----------------------------------------------------------

  Dipole Moment: [D]
     X:    -1.0997      Y:    -1.3606      Z:     1.0550     Total:     2.0429

*** Psi4 exiting successfully. Buy a developer a beer!
