                               Psi4 1.4a3.dev225

  ==> Input File <==

--------------------------------------------------------------------------
#psi4
#
memory 32 gb

molecule  {
0 1
  O        2.3476870     0.7564740    -0.5170070
  N        0.1051940     2.2022940     0.2485340
  N        2.3184480    -1.3288730     0.3923020
  C        0.2041490    -0.2277810    -0.0328410
  C       -0.5292580     0.9782650     0.0721850
  C       -0.4780620    -1.4467680    -0.1744800
  C       -1.9322610     0.8976940     0.1244170
  C       -1.8678090    -1.5041600    -0.1507450
  C       -2.5929860    -0.3189550    -0.0016080
  C        1.6731345    -0.2073723    -0.0695081
  H        0.0963370    -2.3571300    -0.3293910
  H       -2.5048800     1.8176440     0.2323000
  H       -2.3796530    -2.4547020    -0.2729900
  H       -3.6801520    -0.3414970     0.0246030
  H        1.0340450     2.2328410    -0.1623240
  H       -0.4673770     3.0011870     0.0009920
  H        1.8426920    -1.9076120     1.0707290
  H        3.3240540    -1.2501130     0.4893940
units angstrom
no_reorient  #important for SAPT in psi4, default
symmetry c1  #important for SAPT in psi4, default
}

set PROPERTIES_ORIGIN ["COM"]
properties('MP2/aug-cc-pvtz', properties = ['dipole'])
--------------------------------------------------------------------------

    Molecular point group: c1
  Charge       = 0
  Multiplicity = 1
  Basis Set: AUG-CC-PVTZ
    Blend: AUG-CC-PVTZ
  Basis Set: (AUG-CC-PVTZ AUX)
    Blend: AUG-CC-PVTZ-JKFIT

    Orbital Energies [Eh]
    ---------------------

    Doubly Occupied:

       1A    -20.522603     2A    -15.588372     3A    -15.560615
       4A    -11.363951     5A    -11.299195     6A    -11.257596
       7A    -11.255061     8A    -11.244489     9A    -11.235734
      10A    -11.233190    11A     -1.367423    12A     -1.227849
      13A     -1.212212    14A     -1.138595    15A     -1.040138
      16A     -1.000155    17A     -0.881075    18A     -0.835593
      19A     -0.792758    20A     -0.735669    21A     -0.699838
      22A     -0.688513    23A     -0.675420    24A     -0.634606
      25A     -0.609882    26A     -0.604941    27A     -0.583463
      28A     -0.573346    29A     -0.538491    30A     -0.522776
      31A     -0.511184    32A     -0.455912    33A     -0.433831
      34A     -0.417580    35A     -0.353647    36A     -0.304376

  @DF-RHF Final Energy:  -453.68401499356804

   => Energetics <=

    Nuclear Repulsion Energy =            499.8169327069459769
    One-Electron Energy =               -1608.2017390445239471
    Two-Electron Energy =                 654.7007913440100992
    Total Energy =                       -453.6840149935679847
  Basis Set: (AUG-CC-PVTZ AUX)
    Blend: AUG-CC-PVTZ-RI
    Molecular point group: c1

    Geometry (in Angstrom), charge = 0, multiplicity = 1:

       Center              X                  Y                   Z               Mass
    ------------   -----------------  -----------------  -----------------  -----------------
         O            2.329636284578     0.748300240646    -0.509472182400    15.994914619570
         N            0.087143284578     2.194120240646     0.256068817600    14.003074004430
         N            2.300397284578    -1.337046759354     0.399836817600    14.003074004430
         C            0.186098284578    -0.235954759354    -0.025306182400    12.000000000000
         C           -0.547308715422     0.970091240646     0.079719817600    12.000000000000
         C           -0.496112715422    -1.454941759354    -0.166945182400    12.000000000000
         C           -1.950311715422     0.889520240646     0.131951817600    12.000000000000
         C           -1.885859715422    -1.512333759354    -0.143210182400    12.000000000000
         C           -2.611036715422    -0.327128759354     0.005926817600    12.000000000000
         C            1.655083784578    -0.215546059354    -0.061973282400    12.000000000000
         H            0.078286284578    -2.365303759354    -0.321856182400     1.007825032230
         H           -2.522930715422     1.809470240646     0.239834817600     1.007825032230
         H           -2.397703715422    -2.462875759354    -0.265455182400     1.007825032230
         H           -3.698202715422    -0.349670759354     0.032137817600     1.007825032230
         H            1.015994284578     2.224667240646    -0.154789182400     1.007825032230
         H           -0.485427715422     2.993013240646     0.008526817600     1.007825032230
         H            1.824641284578    -1.915785759354     1.078263817600     1.007825032230
         H            3.306003284578    -1.258286759354     0.496928817600     1.007825032230

  Basis Set: AUG-CC-PVTZ
    Blend: AUG-CC-PVTZ
  Basis Set: (AUG-CC-PVTZ AUX)
    Blend: AUG-CC-PVTZ-JKFIT
	 Reference Energy          =    -453.6840149935680415 [Eh]
	 Singles Energy            =      -0.0000000000000000 [Eh]
	 Same-Spin Energy          =      -0.4867212714298816 [Eh]
	 Opposite-Spin Energy      =      -1.4799332610408666 [Eh]
	 Correlation Energy        =      -1.9666545324707483 [Eh]
	 Total Energy              =    -455.6506695260387687 [Eh]

	 ================> DF-SCS-MP2 Energies <==================
	-----------------------------------------------------------
	 SCS Same-Spin Scale       =       0.3333333333333333 [-]
	 SCS Opposite-Spin Scale   =       1.2000000000000000 [-]
	 SCS Same-Spin Energy      =      -0.1622404238099605 [Eh]
	 SCS Opposite-Spin Energy  =      -1.7759199132490400 [Eh]
	 SCS Correlation Energy    =      -1.9381603370590006 [Eh]
	 SCS Total Energy          =    -455.6221753306270443 [Eh]
	-----------------------------------------------------------

  Dipole Moment: [D]
     X:    -1.2841      Y:    -1.4029      Z:     1.0926     Total:     2.1933

*** Psi4 exiting successfully. Buy a developer a beer!
