                               Psi4 1.4a3.dev225

  ==> Input File <==

--------------------------------------------------------------------------
#psi4
#
memory 32 gb

molecule  {
0 1
  O        2.3476870     0.7564740    -0.5170070
  N        0.1051940     2.2022940     0.2485340
  N        2.3184480    -1.3288730     0.3923020
  C        0.2041490    -0.2277810    -0.0328410
  C       -0.5551654     1.0208683     0.0758950
  C       -0.4780620    -1.4467680    -0.1744800
  C       -1.9322610     0.8976940     0.1244170
  C       -1.8678090    -1.5041600    -0.1507450
  C       -2.5929860    -0.3189550    -0.0016080
  C        1.6942170    -0.1960210    -0.0707790
  H        0.0963370    -2.3571300    -0.3293910
  H       -2.5048800     1.8176440     0.2323000
  H       -2.3796530    -2.4547020    -0.2729900
  H       -3.6801520    -0.3414970     0.0246030
  H        1.0340450     2.2328410    -0.1623240
  H       -0.4673770     3.0011870     0.0009920
  H        1.8426920    -1.9076120     1.0707290
  H        3.3240540    -1.2501130     0.4893940
units angstrom
no_reorient  #important for SAPT in psi4, default
symmetry c1  #important for SAPT in psi4, default
}

set PROPERTIES_ORIGIN ["COM"]
properties('MP2/aug-cc-pvtz', properties = ['dipole'])
--------------------------------------------------------------------------

    Molecular point group: c1
  Charge       = 0
  Multiplicity = 1
  Basis Set: AUG-CC-PVTZ
    Blend: AUG-CC-PVTZ
  Basis Set: (AUG-CC-PVTZ AUX)
    Blend: AUG-CC-PVTZ-JKFIT

    Orbital Energies [Eh]
    ---------------------

    Doubly Occupied:

       1A    -20.525858     2A    -15.586858     3A    -15.563285
       4A    -11.363001     5A    -11.298904     6A    -11.255786
       7A    -11.254050     8A    -11.247242     9A    -11.230394
      10A    -11.230225    11A     -1.379600    12A     -1.236093
      13A     -1.213482    14A     -1.136666    15A     -1.034056
      16A     -0.997986    17A     -0.878770    18A     -0.828029
      19A     -0.793892    20A     -0.735195    21A     -0.701031
      22A     -0.692829    23A     -0.674574    24A     -0.639124
      25A     -0.610748    26A     -0.599558    27A     -0.586287
      28A     -0.574109    29A     -0.541900    30A     -0.526820
      31A     -0.502519    32A     -0.458422    33A     -0.435460
      34A     -0.420018    35A     -0.351405    36A     -0.300097

  @DF-RHF Final Energy:  -453.68340704500451

   => Energetics <=

    Nuclear Repulsion Energy =            499.3614689732403349
    One-Electron Energy =               -1607.2812081518050036
    Two-Electron Energy =                 654.2363321335601540
    Total Energy =                       -453.6834070450045147
  Basis Set: (AUG-CC-PVTZ AUX)
    Blend: AUG-CC-PVTZ-RI
    Molecular point group: c1

    Geometry (in Angstrom), charge = 0, multiplicity = 1:

       Center              X                  Y                   Z               Mass
    ------------   -----------------  -----------------  -----------------  -----------------
         O            2.330061811855     0.743541768132    -0.509687296409    15.994914619570
         N            0.087568811855     2.189361768132     0.255853703591    14.003074004430
         N            2.300822811855    -1.341805231868     0.399621703591    14.003074004430
         C            0.186523811855    -0.240713231868    -0.025521296409    12.000000000000
         C           -0.572790588145     1.007936068132     0.083214703591    12.000000000000
         C           -0.495687188145    -1.459700231868    -0.167160296409    12.000000000000
         C           -1.949886188145     0.884761768132     0.131736703591    12.000000000000
         C           -1.885434188145    -1.517092231868    -0.143425296409    12.000000000000
         C           -2.610611188145    -0.331887231868     0.005711703591    12.000000000000
         C            1.676591811855    -0.208953231868    -0.063459296409    12.000000000000
         H            0.078711811855    -2.370062231868    -0.322071296409     1.007825032230
         H           -2.522505188145     1.804711768132     0.239619703591     1.007825032230
         H           -2.397278188145    -2.467634231868    -0.265670296409     1.007825032230
         H           -3.697777188145    -0.354429231868     0.031922703591     1.007825032230
         H            1.016419811855     2.219908768132    -0.155004296409     1.007825032230
         H           -0.485002188145     2.988254768132     0.008311703591     1.007825032230
         H            1.825066811855    -1.920544231868     1.078048703591     1.007825032230
         H            3.306428811855    -1.263045231868     0.496713703591     1.007825032230

  Basis Set: AUG-CC-PVTZ
    Blend: AUG-CC-PVTZ
  Basis Set: (AUG-CC-PVTZ AUX)
    Blend: AUG-CC-PVTZ-JKFIT
	 Reference Energy          =    -453.6834070450045147 [Eh]
	 Singles Energy            =      -0.0000000000000000 [Eh]
	 Same-Spin Energy          =      -0.4863767099618007 [Eh]
	 Opposite-Spin Energy      =      -1.4789926636176998 [Eh]
	 Correlation Energy        =      -1.9653693735795004 [Eh]
	 Total Energy              =    -455.6487764185840206 [Eh]

	 ================> DF-SCS-MP2 Energies <==================
	-----------------------------------------------------------
	 SCS Same-Spin Scale       =       0.3333333333333333 [-]
	 SCS Opposite-Spin Scale   =       1.2000000000000000 [-]
	 SCS Same-Spin Energy      =      -0.1621255699872669 [Eh]
	 SCS Opposite-Spin Energy  =      -1.7747911963412397 [Eh]
	 SCS Correlation Energy    =      -1.9369167663285065 [Eh]
	 SCS Total Energy          =    -455.6203238113330372 [Eh]
	-----------------------------------------------------------

  Dipole Moment: [D]
     X:    -1.0604      Y:    -1.2125      Z:     1.0811     Total:     1.9400

*** Psi4 exiting successfully. Buy a developer a beer!
