                               Psi4 1.4a3.dev225

  ==> Input File <==

--------------------------------------------------------------------------
#psi4
#
memory 32 gb

molecule  {
0 1
  O        2.3476870     0.7564740    -0.5170070
  N        0.1051940     2.2022940     0.2485340
  N        2.3184480    -1.3288730     0.3923020
  C        0.2041490    -0.2277810    -0.0328410
  C       -0.5292580     0.9782650     0.0721850
  C       -0.4780620    -1.4467680    -0.1744800
  C       -1.9322610     0.8976940     0.1244170
  C       -1.8470815    -1.4913349    -0.1498851
  C       -2.5929860    -0.3189550    -0.0016080
  C        1.6942170    -0.1960210    -0.0707790
  H        0.0963370    -2.3571300    -0.3293910
  H       -2.5048800     1.8176440     0.2323000
  H       -2.3796530    -2.4547020    -0.2729900
  H       -3.6801520    -0.3414970     0.0246030
  H        1.0340450     2.2328410    -0.1623240
  H       -0.4673770     3.0011870     0.0009920
  H        1.8426920    -1.9076120     1.0707290
  H        3.3240540    -1.2501130     0.4893940
units angstrom
no_reorient  #important for SAPT in psi4, default
symmetry c1  #important for SAPT in psi4, default
}

set PROPERTIES_ORIGIN ["COM"]
properties('MP2/aug-cc-pvtz', properties = ['dipole'])
--------------------------------------------------------------------------

    Molecular point group: c1
  Charge       = 0
  Multiplicity = 1
  Basis Set: AUG-CC-PVTZ
    Blend: AUG-CC-PVTZ
  Basis Set: (AUG-CC-PVTZ AUX)
    Blend: AUG-CC-PVTZ-JKFIT

    Orbital Energies [Eh]
    ---------------------

    Doubly Occupied:

       1A    -20.526065     2A    -15.587521     3A    -15.559865
       4A    -11.363267     5A    -11.296890     6A    -11.253493
       7A    -11.252941     8A    -11.243586     9A    -11.235224
      10A    -11.231723    11A     -1.379873    12A     -1.227240
      13A     -1.214035    14A     -1.139382    15A     -1.036886
      16A     -0.999631    17A     -0.878552    18A     -0.832826
      19A     -0.792024    20A     -0.735702    21A     -0.699542
      22A     -0.688479    23A     -0.672722    24A     -0.635667
      25A     -0.608904    26A     -0.606290    27A     -0.586140
      28A     -0.575719    29A     -0.538604    30A     -0.524724
      31A     -0.507098    32A     -0.456676    33A     -0.435404
      34A     -0.420342    35A     -0.352378    36A     -0.304021

  @DF-RHF Final Energy:  -453.68596542604189

   => Energetics <=

    Nuclear Repulsion Energy =            500.2093442481146894
    One-Electron Energy =               -1608.9917483794145028
    Two-Electron Energy =                 655.0964387052578104
    Total Energy =                       -453.6859654260418893
  Basis Set: (AUG-CC-PVTZ AUX)
    Blend: AUG-CC-PVTZ-RI
    Molecular point group: c1

    Geometry (in Angstrom), charge = 0, multiplicity = 1:

       Center              X                  Y                   Z               Mass
    ------------   -----------------  -----------------  -----------------  -----------------
         O            2.325948893034     0.746168026991    -0.509435934662    15.994914619570
         N            0.083455893034     2.191988026991     0.256105065338    14.003074004430
         N            2.296709893034    -1.339178973009     0.399873065338    14.003074004430
         C            0.182410893034    -0.238086973009    -0.025269934662    12.000000000000
         C           -0.550996106966     0.967959026991     0.079756065338    12.000000000000
         C           -0.499800106966    -1.457073973009    -0.166908934662    12.000000000000
         C           -1.953999106966     0.887388026991     0.131988065338    12.000000000000
         C           -1.868819606966    -1.501640873009    -0.142314034662    12.000000000000
         C           -2.614724106966    -0.329260973009     0.005963065338    12.000000000000
         C            1.672478893034    -0.206326973009    -0.063207934662    12.000000000000
         H            0.074598893034    -2.367435973009    -0.321819934662     1.007825032230
         H           -2.526618106966     1.807338026991     0.239871065338     1.007825032230
         H           -2.401391106966    -2.465007973009    -0.265418934662     1.007825032230
         H           -3.701890106966    -0.351802973009     0.032174065338     1.007825032230
         H            1.012306893034     2.222535026991    -0.154752934662     1.007825032230
         H           -0.489115106966     2.990881026991     0.008563065338     1.007825032230
         H            1.820953893034    -1.917917973009     1.078300065338     1.007825032230
         H            3.302315893034    -1.260418973009     0.496965065338     1.007825032230

  Basis Set: AUG-CC-PVTZ
    Blend: AUG-CC-PVTZ
  Basis Set: (AUG-CC-PVTZ AUX)
    Blend: AUG-CC-PVTZ-JKFIT
	 Reference Energy          =    -453.6859654260418893 [Eh]
	 Singles Energy            =      -0.0000000000000000 [Eh]
	 Same-Spin Energy          =      -0.4862444782260775 [Eh]
	 Opposite-Spin Energy      =      -1.4788631914180925 [Eh]
	 Correlation Energy        =      -1.9651076696441701 [Eh]
	 Total Energy              =    -455.6510730956860584 [Eh]

	 ================> DF-SCS-MP2 Energies <==================
	-----------------------------------------------------------
	 SCS Same-Spin Scale       =       0.3333333333333333 [-]
	 SCS Opposite-Spin Scale   =       1.2000000000000000 [-]
	 SCS Same-Spin Energy      =      -0.1620814927420258 [Eh]
	 SCS Opposite-Spin Energy  =      -1.7746358297017111 [Eh]
	 SCS Correlation Energy    =      -1.9367173224437368 [Eh]
	 SCS Total Energy          =    -455.6226827484856017 [Eh]
	-----------------------------------------------------------

  Dipole Moment: [D]
     X:    -1.1473      Y:    -1.3479      Z:     1.0638     Total:     2.0651

*** Psi4 exiting successfully. Buy a developer a beer!
