                               Psi4 1.4a3.dev225

  ==> Input File <==

--------------------------------------------------------------------------
#psi4
#
memory 32 gb

molecule  {
0 1
  O        2.3476870     0.7564740    -0.5170070
  N        0.1051940     2.2022940     0.2485340
  N        2.3184480    -1.3288730     0.3923020
  C        0.2041490    -0.2277810    -0.0328410
  C       -0.5292580     0.9782650     0.0721850
  C       -0.4780620    -1.4467680    -0.1744800
  C       -1.9322610     0.8976940     0.1244170
  C       -1.8678090    -1.5041600    -0.1507450
  C       -2.5929860    -0.3189550    -0.0016080
  C        1.6522485    -0.2190652    -0.0680966
  H        0.0963370    -2.3571300    -0.3293910
  H       -2.5048800     1.8176440     0.2323000
  H       -2.3796530    -2.4547020    -0.2729900
  H       -3.6801520    -0.3414970     0.0246030
  H        1.0340450     2.2328410    -0.1623240
  H       -0.4673770     3.0011870     0.0009920
  H        1.8426920    -1.9076120     1.0707290
  H        3.3240540    -1.2501130     0.4893940
units angstrom
no_reorient  #important for SAPT in psi4, default
symmetry c1  #important for SAPT in psi4, default
}

set PROPERTIES_ORIGIN ["COM"]
properties('MP2/aug-cc-pvtz', properties = ['dipole'])
--------------------------------------------------------------------------

    Molecular point group: c1
  Charge       = 0
  Multiplicity = 1
  Basis Set: AUG-CC-PVTZ
    Blend: AUG-CC-PVTZ
  Basis Set: (AUG-CC-PVTZ AUX)
    Blend: AUG-CC-PVTZ-JKFIT

    Orbital Energies [Eh]
    ---------------------

    Doubly Occupied:

       1A    -20.518634     2A    -15.589059     3A    -15.561168
       4A    -11.364058     5A    -11.301251     6A    -11.259266
       7A    -11.256879     8A    -11.244402     9A    -11.236868
      10A    -11.234251    11A     -1.355290    12A     -1.228513
      13A     -1.209802    14A     -1.140130    15A     -1.043794
      16A     -1.001718    17A     -0.884823    18A     -0.837399
      19A     -0.792715    20A     -0.734951    21A     -0.700806
      22A     -0.689140    23A     -0.677773    24A     -0.632166
      25A     -0.610680    26A     -0.605950    27A     -0.579704
      28A     -0.571844    29A     -0.537325    30A     -0.521912
      31A     -0.512403    32A     -0.456675    33A     -0.431358
      34A     -0.414244    35A     -0.354988    36A     -0.305500

  @DF-RHF Final Energy:  -453.67973644273968

   => Energetics <=

    Nuclear Repulsion Energy =            499.8857156935171133
    One-Electron Energy =               -1608.3360237249462443
    Two-Electron Energy =                 654.7705715886894495
    Total Energy =                       -453.6797364427396815
  Basis Set: (AUG-CC-PVTZ AUX)
    Blend: AUG-CC-PVTZ-RI
    Molecular point group: c1

    Geometry (in Angstrom), charge = 0, multiplicity = 1:

       Center              X                  Y                   Z               Mass
    ------------   -----------------  -----------------  -----------------  -----------------
         O            2.331478304664     0.749331484382    -0.509596668245    15.994914619570
         N            0.088985304664     2.195151484382     0.255944331755    14.003074004430
         N            2.302239304664    -1.336015515618     0.399712331755    14.003074004430
         C            0.187940304664    -0.234923515618    -0.025430668245    12.000000000000
         C           -0.545466695336     0.971122484382     0.079595331755    12.000000000000
         C           -0.494270695336    -1.453910515618    -0.167069668245    12.000000000000
         C           -1.948469695336     0.890551484382     0.131827331755    12.000000000000
         C           -1.884017695336    -1.511302515618    -0.143334668245    12.000000000000
         C           -2.609194695336    -0.326097515618     0.005802331755    12.000000000000
         C            1.636039804664    -0.226207715618    -0.060686268245    12.000000000000
         H            0.080128304664    -2.364272515618    -0.321980668245     1.007825032230
         H           -2.521088695336     1.810501484382     0.239710331755     1.007825032230
         H           -2.395861695336    -2.461844515618    -0.265579668245     1.007825032230
         H           -3.696360695336    -0.348639515618     0.032013331755     1.007825032230
         H            1.017836304664     2.225698484382    -0.154913668245     1.007825032230
         H           -0.483585695336     2.994044484382     0.008402331755     1.007825032230
         H            1.826483304664    -1.914754515618     1.078139331755     1.007825032230
         H            3.307845304664    -1.257255515618     0.496804331755     1.007825032230

  Basis Set: AUG-CC-PVTZ
    Blend: AUG-CC-PVTZ
  Basis Set: (AUG-CC-PVTZ AUX)
    Blend: AUG-CC-PVTZ-JKFIT
	 Reference Energy          =    -453.6797364427396815 [Eh]
	 Singles Energy            =      -0.0000000000000000 [Eh]
	 Same-Spin Energy          =      -0.4872973496479426 [Eh]
	 Opposite-Spin Energy      =      -1.4810468834585526 [Eh]
	 Correlation Energy        =      -1.9683442331064951 [Eh]
	 Total Energy              =    -455.6480806758461881 [Eh]

	 ================> DF-SCS-MP2 Energies <==================
	-----------------------------------------------------------
	 SCS Same-Spin Scale       =       0.3333333333333333 [-]
	 SCS Opposite-Spin Scale   =       1.2000000000000000 [-]
	 SCS Same-Spin Energy      =      -0.1624324498826475 [Eh]
	 SCS Opposite-Spin Energy  =      -1.7772562601502631 [Eh]
	 SCS Correlation Energy    =      -1.9396887100329105 [Eh]
	 SCS Total Energy          =    -455.6194251527725783 [Eh]
	-----------------------------------------------------------

  Dipole Moment: [D]
     X:    -1.4373      Y:    -1.4486      Z:     1.1238     Total:     2.3296

*** Psi4 exiting successfully. Buy a developer a beer!
