                               Psi4 1.4a3.dev225

  ==> Input File <==

--------------------------------------------------------------------------
#psi4
#
memory 32 gb

molecule  {
0 1
  O        2.3476870     0.7564740    -0.5170070
  N        0.1051940     2.2022940     0.2485340
  N        2.3184480    -1.3288730     0.3923020
  C        0.2041490    -0.2277810    -0.0328410
  C       -0.5292580     0.9782650     0.0721850
  C       -0.4780620    -1.4467680    -0.1744800
  C       -1.9322610     0.8976940     0.1244170
  C       -1.8678090    -1.5041600    -0.1507450
  C       -2.5929860    -0.3189550    -0.0016080
  C        1.6942170    -0.1960210    -0.0707790
  H        0.0963370    -2.3571300    -0.3293910
  H       -2.5048800     1.8176440     0.2323000
  H       -2.3796530    -2.4547020    -0.2729900
  H       -3.6801520    -0.3414970     0.0246030
  H        1.0340450     2.2328410    -0.1623240
  H       -0.5803569     3.1588249    -0.0478531
  H        1.8426920    -1.9076120     1.0707290
  H        3.3240540    -1.2501130     0.4893940
units angstrom
no_reorient  #important for SAPT in psi4, default
symmetry c1  #important for SAPT in psi4, default
}

set PROPERTIES_ORIGIN ["COM"]
properties('MP2/aug-cc-pvtz', properties = ['dipole'])
--------------------------------------------------------------------------

    Molecular point group: c1
  Charge       = 0
  Multiplicity = 1
  Basis Set: AUG-CC-PVTZ
    Blend: AUG-CC-PVTZ
  Basis Set: (AUG-CC-PVTZ AUX)
    Blend: AUG-CC-PVTZ-JKFIT

    Orbital Energies [Eh]
    ---------------------

    Doubly Occupied:

       1A    -20.526642     2A    -15.587764     3A    -15.577559
       4A    -11.363834     5A    -11.297394     6A    -11.255852
       7A    -11.252860     8A    -11.244714     9A    -11.234110
      10A    -11.231838    11A     -1.380359    12A     -1.216650
      13A     -1.212763    14A     -1.131348    15A     -1.036134
      16A     -0.993045    17A     -0.876954    18A     -0.827760
      19A     -0.792634    20A     -0.735112    21A     -0.692617
      22A     -0.685206    23A     -0.655232    24A     -0.637664
      25A     -0.605764    26A     -0.598608    27A     -0.575718
      28A     -0.570882    29A     -0.538755    30A     -0.522797
      31A     -0.508608    32A     -0.453238    33A     -0.435271
      34A     -0.420525    35A     -0.352069    36A     -0.302025

  @DF-RHF Final Energy:  -453.65725878327396

   => Energetics <=

    Nuclear Repulsion Energy =            498.7389094924383812
    One-Electron Energy =               -1606.1317294877528639
    Two-Electron Energy =                 653.7355612120405794
    Total Energy =                       -453.6572587832739600
  Basis Set: (AUG-CC-PVTZ AUX)
    Blend: AUG-CC-PVTZ-RI
    Molecular point group: c1

    Geometry (in Angstrom), charge = 0, multiplicity = 1:

       Center              X                  Y                   Z               Mass
    ------------   -----------------  -----------------  -----------------  -----------------
         O            2.328613777719     0.746131498343    -0.508998300446    15.994914619570
         N            0.086120777719     2.191951498343     0.256542699554    14.003074004430
         N            2.299374777719    -1.339215501657     0.400310699554    14.003074004430
         C            0.185075777719    -0.238123501657    -0.024832300446    12.000000000000
         C           -0.548331222281     0.967922498343     0.080193699554    12.000000000000
         C           -0.497135222281    -1.457110501657    -0.166471300446    12.000000000000
         C           -1.951334222281     0.887351498343     0.132425699554    12.000000000000
         C           -1.886882222281    -1.514502501657    -0.142736300446    12.000000000000
         C           -2.612059222281    -0.329297501657     0.006400699554    12.000000000000
         C            1.675143777719    -0.206363501657    -0.062770300446    12.000000000000
         H            0.077263777719    -2.367472501657    -0.321382300446     1.007825032230
         H           -2.523953222281     1.807301498343     0.240308699554     1.007825032230
         H           -2.398726222281    -2.465044501657    -0.264981300446     1.007825032230
         H           -3.699225222281    -0.351839501657     0.032611699554     1.007825032230
         H            1.014971777719     2.222498498343    -0.154315300446     1.007825032230
         H           -0.599430122281     3.148482398343    -0.039844400446     1.007825032230
         H            1.823618777719    -1.917954501657     1.078737699554     1.007825032230
         H            3.304980777719    -1.260455501657     0.497402699554     1.007825032230

  Basis Set: AUG-CC-PVTZ
    Blend: AUG-CC-PVTZ
  Basis Set: (AUG-CC-PVTZ AUX)
    Blend: AUG-CC-PVTZ-JKFIT
	 Reference Energy          =    -453.6572587832739600 [Eh]
	 Singles Energy            =      -0.0000000000000000 [Eh]
	 Same-Spin Energy          =      -0.4874324294687648 [Eh]
	 Opposite-Spin Energy      =      -1.4829411472389162 [Eh]
	 Correlation Energy        =      -1.9703735767076811 [Eh]
	 Total Energy              =    -455.6276323599816465 [Eh]

	 ================> DF-SCS-MP2 Energies <==================
	-----------------------------------------------------------
	 SCS Same-Spin Scale       =       0.3333333333333333 [-]
	 SCS Opposite-Spin Scale   =       1.2000000000000000 [-]
	 SCS Same-Spin Energy      =      -0.1624774764895883 [Eh]
	 SCS Opposite-Spin Energy  =      -1.7795293766866995 [Eh]
	 SCS Correlation Energy    =      -1.9420068531762877 [Eh]
	 SCS Total Energy          =    -455.5992656364502409 [Eh]
	-----------------------------------------------------------

  Dipole Moment: [D]
     X:    -1.1759      Y:    -1.2778      Z:     1.0407     Total:     2.0245

*** Psi4 exiting successfully. Buy a developer a beer!
