                               Psi4 1.4a3.dev225

  ==> Input File <==

--------------------------------------------------------------------------
#psi4
#
memory 32 gb

molecule  {
0 1
  O        2.3476870     0.7564740    -0.5170070
  N        0.1051940     2.2022940     0.2485340
  N        2.3184480    -1.3288730     0.3923020
  C        0.2041490    -0.2277810    -0.0328410
  C       -0.5292580     0.9782650     0.0721850
  C       -0.4780620    -1.4467680    -0.1744800
  C       -1.9322610     0.8976940     0.1244170
  C       -1.8678090    -1.5041600    -0.1507450
  C       -2.5929860    -0.3189550    -0.0016080
  C        1.7142060    -0.1955949    -0.0712879
  H        0.0963370    -2.3571300    -0.3293910
  H       -2.5048800     1.8176440     0.2323000
  H       -2.3796530    -2.4547020    -0.2729900
  H       -3.6801520    -0.3414970     0.0246030
  H        1.0340450     2.2328410    -0.1623240
  H       -0.4673770     3.0011870     0.0009920
  H        1.8426920    -1.9076120     1.0707290
  H        3.3240540    -1.2501130     0.4893940
units angstrom
no_reorient  #important for SAPT in psi4, default
symmetry c1  #important for SAPT in psi4, default
}

set PROPERTIES_ORIGIN ["COM"]
properties('MP2/aug-cc-pvtz', properties = ['dipole'])
--------------------------------------------------------------------------

    Molecular point group: c1
  Charge       = 0
  Multiplicity = 1
  Basis Set: AUG-CC-PVTZ
    Blend: AUG-CC-PVTZ
  Basis Set: (AUG-CC-PVTZ AUX)
    Blend: AUG-CC-PVTZ-JKFIT

    Orbital Energies [Eh]
    ---------------------

    Doubly Occupied:

       1A    -20.528133     2A    -15.588960     3A    -15.559221
       4A    -11.363509     5A    -11.295424     6A    -11.254311
       7A    -11.251635     8A    -11.244219     9A    -11.233555
      10A    -11.231083    11A     -1.387663    12A     -1.226166
      13A     -1.218925    14A     -1.135731    15A     -1.033598
      16A     -0.996972    17A     -0.873981    18A     -0.832386
      19A     -0.794297    20A     -0.738197    21A     -0.698383
      22A     -0.686926    23A     -0.673482    24A     -0.639896
      25A     -0.607862    26A     -0.603656    27A     -0.586981
      28A     -0.576690    29A     -0.539747    30A     -0.523713
      31A     -0.509011    32A     -0.454195    33A     -0.436100
      34A     -0.422644    35A     -0.350821    36A     -0.302027

  @DF-RHF Final Energy:  -453.68734903798730

   => Energetics <=

    Nuclear Repulsion Energy =            499.6611114242126064
    One-Electron Energy =               -1607.8967241697359896
    Two-Electron Energy =                 654.5482637075361936
    Total Energy =                       -453.6873490379872464
  Basis Set: (AUG-CC-PVTZ AUX)
    Blend: AUG-CC-PVTZ-RI
    Molecular point group: c1

    Geometry (in Angstrom), charge = 0, multiplicity = 1:

       Center              X                  Y                   Z               Mass
    ------------   -----------------  -----------------  -----------------  -----------------
         O            2.326014024310     0.747261544517    -0.509315214702    15.994914619570
         N            0.083521024310     2.193081544517     0.256225785298    14.003074004430
         N            2.296775024310    -1.338085455483     0.399993785298    14.003074004430
         C            0.182476024310    -0.236993455483    -0.025149214702    12.000000000000
         C           -0.550930975690     0.969052544517     0.079876785298    12.000000000000
         C           -0.499734975690    -1.455980455483    -0.166788214702    12.000000000000
         C           -1.953933975690     0.888481544517     0.132108785298    12.000000000000
         C           -1.889481975690    -1.513372455483    -0.143053214702    12.000000000000
         C           -2.614658975690    -0.328167455483     0.006083785298    12.000000000000
         C            1.692533024310    -0.204807355483    -0.063596114702    12.000000000000
         H            0.074664024310    -2.366342455483    -0.321699214702     1.007825032230
         H           -2.526552975690     1.808431544517     0.239991785298     1.007825032230
         H           -2.401325975690    -2.463914455483    -0.265298214702     1.007825032230
         H           -3.701824975690    -0.350709455483     0.032294785298     1.007825032230
         H            1.012372024310     2.223628544517    -0.154632214702     1.007825032230
         H           -0.489049975690     2.991974544517     0.008683785298     1.007825032230
         H            1.821019024310    -1.916824455483     1.078420785298     1.007825032230
         H            3.302381024310    -1.259325455483     0.497085785298     1.007825032230

  Basis Set: AUG-CC-PVTZ
    Blend: AUG-CC-PVTZ
  Basis Set: (AUG-CC-PVTZ AUX)
    Blend: AUG-CC-PVTZ-JKFIT
	 Reference Energy          =    -453.6873490379873033 [Eh]
	 Singles Energy            =      -0.0000000000000000 [Eh]
	 Same-Spin Energy          =      -0.4858744293458857 [Eh]
	 Opposite-Spin Energy      =      -1.4782294906672766 [Eh]
	 Correlation Energy        =      -1.9641039200131623 [Eh]
	 Total Energy              =    -455.6514529580004478 [Eh]

	 ================> DF-SCS-MP2 Energies <==================
	-----------------------------------------------------------
	 SCS Same-Spin Scale       =       0.3333333333333333 [-]
	 SCS Opposite-Spin Scale   =       1.2000000000000000 [-]
	 SCS Same-Spin Energy      =      -0.1619581431152952 [Eh]
	 SCS Opposite-Spin Energy  =      -1.7738753888007319 [Eh]
	 SCS Correlation Energy    =      -1.9358335319160271 [Eh]
	 SCS Total Energy          =    -455.6231825699033493 [Eh]
	-----------------------------------------------------------

  Dipole Moment: [D]
     X:    -0.9698      Y:    -1.3756      Z:     1.0626     Total:     1.9904

*** Psi4 exiting successfully. Buy a developer a beer!
