                               Psi4 1.4a3.dev225

  ==> Input File <==

--------------------------------------------------------------------------
#psi4
#
memory 32 gb

molecule  {
0 1
  O        2.3476870     0.7564740    -0.5170070
  N        0.0835437     2.2128727     0.2513306
  N        2.3184480    -1.3288730     0.3923020
  C        0.2041490    -0.2277810    -0.0328410
  C       -0.5292580     0.9782650     0.0721850
  C       -0.4780620    -1.4467680    -0.1744800
  C       -1.9322610     0.8976940     0.1244170
  C       -1.8678090    -1.5041600    -0.1507450
  C       -2.5929860    -0.3189550    -0.0016080
  C        1.6942170    -0.1960210    -0.0707790
  H        0.0963370    -2.3571300    -0.3293910
  H       -2.5048800     1.8176440     0.2323000
  H       -2.3796530    -2.4547020    -0.2729900
  H       -3.6801520    -0.3414970     0.0246030
  H        1.0340450     2.2328410    -0.1623240
  H       -0.4673770     3.0011870     0.0009920
  H        1.8426920    -1.9076120     1.0707290
  H        3.3240540    -1.2501130     0.4893940
units angstrom
no_reorient  #important for SAPT in psi4, default
symmetry c1  #important for SAPT in psi4, default
}

set PROPERTIES_ORIGIN ["COM"]
properties('MP2/aug-cc-pvtz', properties = ['dipole'])
--------------------------------------------------------------------------

    Molecular point group: c1
  Charge       = 0
  Multiplicity = 1
  Basis Set: AUG-CC-PVTZ
    Blend: AUG-CC-PVTZ
  Basis Set: (AUG-CC-PVTZ AUX)
    Blend: AUG-CC-PVTZ-JKFIT

    Orbital Energies [Eh]
    ---------------------

    Doubly Occupied:

       1A    -20.526915     2A    -15.587956     3A    -15.559704
       4A    -11.364059     5A    -11.297192     6A    -11.256053
       7A    -11.252960     8A    -11.244863     9A    -11.234055
      10A    -11.232100    11A     -1.380560    12A     -1.227259
      13A     -1.214468    14A     -1.137112    15A     -1.036697
      16A     -0.998482    17A     -0.877098    18A     -0.834630
      19A     -0.792323    20A     -0.736816    21A     -0.700969
      22A     -0.684603    23A     -0.675632    24A     -0.636993
      25A     -0.610909    26A     -0.603058    27A     -0.585486
      28A     -0.575408    29A     -0.539302    30A     -0.523072
      31A     -0.510659    32A     -0.455023    33A     -0.435733
      34A     -0.420832    35A     -0.352214    36A     -0.303108

  @DF-RHF Final Energy:  -453.68584315428274

   => Energetics <=

    Nuclear Repulsion Energy =            499.5891183077467872
    One-Electron Energy =               -1607.7413180141547855
    Two-Electron Energy =                 654.4663565521252622
    Total Energy =                       -453.6858431542827930
  Basis Set: (AUG-CC-PVTZ AUX)
    Blend: AUG-CC-PVTZ-RI
    Molecular point group: c1

    Geometry (in Angstrom), charge = 0, multiplicity = 1:

       Center              X                  Y                   Z               Mass
    ------------   -----------------  -----------------  -----------------  -----------------
         O            2.330005088064     0.746210410688    -0.509647910410    15.994914619570
         N            0.065861788064     2.202609110688     0.258689689590    14.003074004430
         N            2.300766088064    -1.339136589312     0.399661089590    14.003074004430
         C            0.186467088064    -0.238044589312    -0.025481910410    12.000000000000
         C           -0.546939911936     0.968001410688     0.079544089590    12.000000000000
         C           -0.495743911936    -1.457031589312    -0.167120910410    12.000000000000
         C           -1.949942911936     0.887430410688     0.131776089590    12.000000000000
         C           -1.885490911936    -1.514423589312    -0.143385910410    12.000000000000
         C           -2.610667911936    -0.329218589312     0.005751089590    12.000000000000
         C            1.676535088064    -0.206284589312    -0.063419910410    12.000000000000
         H            0.078655088064    -2.367393589312    -0.322031910410     1.007825032230
         H           -2.522561911936     1.807380410688     0.239659089590     1.007825032230
         H           -2.397334911936    -2.464965589312    -0.265630910410     1.007825032230
         H           -3.697833911936    -0.351760589312     0.031962089590     1.007825032230
         H            1.016363088064     2.222577410688    -0.154964910410     1.007825032230
         H           -0.485058911936     2.990923410688     0.008351089590     1.007825032230
         H            1.825010088064    -1.917875589312     1.078088089590     1.007825032230
         H            3.306372088064    -1.260376589312     0.496753089590     1.007825032230

  Basis Set: AUG-CC-PVTZ
    Blend: AUG-CC-PVTZ
  Basis Set: (AUG-CC-PVTZ AUX)
    Blend: AUG-CC-PVTZ-JKFIT
	 Reference Energy          =    -453.6858431542827361 [Eh]
	 Singles Energy            =      -0.0000000000000000 [Eh]
	 Same-Spin Energy          =      -0.4862034637044276 [Eh]
	 Opposite-Spin Energy      =      -1.4789149871427749 [Eh]
	 Correlation Energy        =      -1.9651184508472026 [Eh]
	 Total Energy              =    -455.6509616051299645 [Eh]

	 ================> DF-SCS-MP2 Energies <==================
	-----------------------------------------------------------
	 SCS Same-Spin Scale       =       0.3333333333333333 [-]
	 SCS Opposite-Spin Scale   =       1.2000000000000000 [-]
	 SCS Same-Spin Energy      =      -0.1620678212348092 [Eh]
	 SCS Opposite-Spin Energy  =      -1.7746979845713298 [Eh]
	 SCS Correlation Energy    =      -1.9367658058061390 [Eh]
	 SCS Total Energy          =    -455.6226089600888827 [Eh]
	-----------------------------------------------------------

  Dipole Moment: [D]
     X:    -1.1025      Y:    -1.3705      Z:     1.0563     Total:     2.0517

*** Psi4 exiting successfully. Buy a developer a beer!
