                               Psi4 1.4a3.dev225

  ==> Input File <==

--------------------------------------------------------------------------
#psi4
#
memory 32 gb

molecule  {
0 1
  O        2.3839924     0.7349367    -0.5077193
  N        0.1051940     2.2022940     0.2485340
  N        2.3184480    -1.3288730     0.3923020
  C        0.2041490    -0.2277810    -0.0328410
  C       -0.5292580     0.9782650     0.0721850
  C       -0.4780620    -1.4467680    -0.1744800
  C       -1.9322610     0.8976940     0.1244170
  C       -1.8678090    -1.5041600    -0.1507450
  C       -2.5929860    -0.3189550    -0.0016080
  C        1.6942170    -0.1960210    -0.0707790
  H        0.0963370    -2.3571300    -0.3293910
  H       -2.5048800     1.8176440     0.2323000
  H       -2.3796530    -2.4547020    -0.2729900
  H       -3.6801520    -0.3414970     0.0246030
  H        1.0340450     2.2328410    -0.1623240
  H       -0.4673770     3.0011870     0.0009920
  H        1.8426920    -1.9076120     1.0707290
  H        3.3240540    -1.2501130     0.4893940
units angstrom
no_reorient  #important for SAPT in psi4, default
symmetry c1  #important for SAPT in psi4, default
}

set PROPERTIES_ORIGIN ["COM"]
properties('MP2/aug-cc-pvtz', properties = ['dipole'])
--------------------------------------------------------------------------

    Molecular point group: c1
  Charge       = 0
  Multiplicity = 1
  Basis Set: AUG-CC-PVTZ
    Blend: AUG-CC-PVTZ
  Basis Set: (AUG-CC-PVTZ AUX)
    Blend: AUG-CC-PVTZ-JKFIT

    Orbital Energies [Eh]
    ---------------------

    Doubly Occupied:

       1A    -20.525453     2A    -15.584895     3A    -15.561917
       4A    -11.362972     5A    -11.298412     6A    -11.257077
       7A    -11.254318     8A    -11.245975     9A    -11.235528
      10A    -11.233038    11A     -1.379840    12A     -1.228800
      13A     -1.210973    14A     -1.138088    15A     -1.037726
      16A     -0.999635    17A     -0.878195    18A     -0.834620
      19A     -0.792045    20A     -0.735680    21A     -0.699206
      22A     -0.689081    23A     -0.672514    24A     -0.636999
      25A     -0.609877    26A     -0.604723    27A     -0.587480
      28A     -0.575155    29A     -0.539768    30A     -0.524431
      31A     -0.510936    32A     -0.456282    33A     -0.435573
      34A     -0.418170    35A     -0.353349    36A     -0.304451

  @DF-RHF Final Energy:  -453.68643015576589

   => Energetics <=

    Nuclear Repulsion Energy =            499.3842326680671704
    One-Electron Energy =               -1607.3149623318513477
    Two-Electron Energy =                 654.2442995080183437
    Total Energy =                       -453.6864301557658337
  Basis Set: (AUG-CC-PVTZ AUX)
    Blend: AUG-CC-PVTZ-RI
    Molecular point group: c1

    Geometry (in Angstrom), charge = 0, multiplicity = 1:

       Center              X                  Y                   Z               Mass
    ------------   -----------------  -----------------  -----------------  -----------------
         O            2.359814466219     0.728293633487    -0.501164208843    15.994914619570
         N            0.081016066219     2.195650933487     0.255089091157    14.003074004430
         N            2.294270066219    -1.335516066513     0.398857091157    14.003074004430
         C            0.179971066219    -0.234424066513    -0.026285908843    12.000000000000
         C           -0.553435933781     0.971621933487     0.078740091157    12.000000000000
         C           -0.502239933781    -1.453411066513    -0.167924908843    12.000000000000
         C           -1.956438933781     0.891050933487     0.130972091157    12.000000000000
         C           -1.891986933781    -1.510803066513    -0.144189908843    12.000000000000
         C           -2.617163933781    -0.325598066513     0.004947091157    12.000000000000
         C            1.670039066219    -0.202664066513    -0.064223908843    12.000000000000
         H            0.072159066219    -2.363773066513    -0.322835908843     1.007825032230
         H           -2.529057933781     1.811000933487     0.238855091157     1.007825032230
         H           -2.403830933781    -2.461345066513    -0.266434908843     1.007825032230
         H           -3.704329933781    -0.348140066513     0.031158091157     1.007825032230
         H            1.009867066219     2.226197933487    -0.155768908843     1.007825032230
         H           -0.491554933781     2.994543933487     0.007547091157     1.007825032230
         H            1.818514066219    -1.914255066513     1.077284091157     1.007825032230
         H            3.299876066219    -1.256756066513     0.495949091157     1.007825032230

  Basis Set: AUG-CC-PVTZ
    Blend: AUG-CC-PVTZ
  Basis Set: (AUG-CC-PVTZ AUX)
    Blend: AUG-CC-PVTZ-JKFIT
	 Reference Energy          =    -453.6864301557658905 [Eh]
	 Singles Energy            =      -0.0000000000000000 [Eh]
	 Same-Spin Energy          =      -0.4860561297744423 [Eh]
	 Opposite-Spin Energy      =      -1.4787786035616040 [Eh]
	 Correlation Energy        =      -1.9648347333360463 [Eh]
	 Total Energy              =    -455.6512648891019239 [Eh]

	 ================> DF-SCS-MP2 Energies <==================
	-----------------------------------------------------------
	 SCS Same-Spin Scale       =       0.3333333333333333 [-]
	 SCS Opposite-Spin Scale   =       1.2000000000000000 [-]
	 SCS Same-Spin Energy      =      -0.1620187099248141 [Eh]
	 SCS Opposite-Spin Energy  =      -1.7745343242739247 [Eh]
	 SCS Correlation Energy    =      -1.9365530341987387 [Eh]
	 SCS Total Energy          =    -455.6229831899646570 [Eh]
	-----------------------------------------------------------

  Dipole Moment: [D]
     X:    -1.2811      Y:    -1.2959      Z:     1.0424     Total:     2.0993

*** Psi4 exiting successfully. Buy a developer a beer!
