                               Psi4 1.4a3.dev225

  ==> Input File <==

--------------------------------------------------------------------------
#psi4
#
memory 32 gb

molecule  {
0 1
  O        2.3476870     0.7564740    -0.5170070
  N        0.1051940     2.2022940     0.2485340
  N        2.3184480    -1.3288730     0.3923020
  C        0.2041490    -0.2277810    -0.0328410
  C       -0.5292580     0.9782650     0.0721850
  C       -0.4537679    -1.4033588    -0.1694361
  C       -1.9322610     0.8976940     0.1244170
  C       -1.8678090    -1.5041600    -0.1507450
  C       -2.5929860    -0.3189550    -0.0016080
  C        1.6942170    -0.1960210    -0.0707790
  H        0.0963370    -2.3571300    -0.3293910
  H       -2.5048800     1.8176440     0.2323000
  H       -2.3796530    -2.4547020    -0.2729900
  H       -3.6801520    -0.3414970     0.0246030
  H        1.0340450     2.2328410    -0.1623240
  H       -0.4673770     3.0011870     0.0009920
  H        1.8426920    -1.9076120     1.0707290
  H        3.3240540    -1.2501130     0.4893940
units angstrom
no_reorient  #important for SAPT in psi4, default
symmetry c1  #important for SAPT in psi4, default
}

set PROPERTIES_ORIGIN ["COM"]
properties('MP2/aug-cc-pvtz', properties = ['dipole'])
--------------------------------------------------------------------------

    Molecular point group: c1
  Charge       = 0
  Multiplicity = 1
  Basis Set: AUG-CC-PVTZ
    Blend: AUG-CC-PVTZ
  Basis Set: (AUG-CC-PVTZ AUX)
    Blend: AUG-CC-PVTZ-JKFIT

    Orbital Energies [Eh]
    ---------------------

    Doubly Occupied:

       1A    -20.528092     2A    -15.588641     3A    -15.560261
       4A    -11.365129     5A    -11.297049     6A    -11.255777
       7A    -11.251637     8A    -11.242086     9A    -11.233004
      10A    -11.231934    11A     -1.381797    12A     -1.228041
      13A     -1.215582    14A     -1.138767    15A     -1.042687
      16A     -0.993644    17A     -0.875501    18A     -0.834865
      19A     -0.794694    20A     -0.738614    21A     -0.697019
      22A     -0.687998    23A     -0.674161    24A     -0.639373
      25A     -0.608029    26A     -0.600019    27A     -0.589477
      28A     -0.575327    29A     -0.540833    30A     -0.524253
      31A     -0.507008    32A     -0.454660    33A     -0.436911
      34A     -0.420830    35A     -0.358198    36A     -0.299553

  @DF-RHF Final Energy:  -453.68360971647274

   => Energetics <=

    Nuclear Repulsion Energy =            500.5044651433688045
    One-Electron Energy =               -1609.5532450556245294
    Two-Electron Energy =                 655.3651701957828664
    Total Energy =                       -453.6836097164728017
  Basis Set: (AUG-CC-PVTZ AUX)
    Blend: AUG-CC-PVTZ-RI
    Molecular point group: c1

    Geometry (in Angstrom), charge = 0, multiplicity = 1:

       Center              X                  Y                   Z               Mass
    ------------   -----------------  -----------------  -----------------  -----------------
         O            2.325634340279     0.743470692580    -0.509804938398    15.994914619570
         N            0.083141340279     2.189290692580     0.255736061602    14.003074004430
         N            2.296395340279    -1.341876307420     0.399504061602    14.003074004430
         C            0.182096340279    -0.240784307420    -0.025638938398    12.000000000000
         C           -0.551310659721     0.965261692580     0.079387061602    12.000000000000
         C           -0.475820559721    -1.416362107420    -0.162234038398    12.000000000000
         C           -1.954313659721     0.884690692580     0.131619061602    12.000000000000
         C           -1.889861659721    -1.517163307420    -0.143542938398    12.000000000000
         C           -2.615038659721    -0.331958307420     0.005594061602    12.000000000000
         C            1.672164340279    -0.209024307420    -0.063576938398    12.000000000000
         H            0.074284340279    -2.370133307420    -0.322188938398     1.007825032230
         H           -2.526932659721     1.804640692580     0.239502061602     1.007825032230
         H           -2.401705659721    -2.467705307420    -0.265787938398     1.007825032230
         H           -3.702204659721    -0.354500307420     0.031805061602     1.007825032230
         H            1.011992340279     2.219837692580    -0.155121938398     1.007825032230
         H           -0.489429659721     2.988183692580     0.008194061602     1.007825032230
         H            1.820639340279    -1.920615307420     1.077931061602     1.007825032230
         H            3.302001340279    -1.263116307420     0.496596061602     1.007825032230

  Basis Set: AUG-CC-PVTZ
    Blend: AUG-CC-PVTZ
  Basis Set: (AUG-CC-PVTZ AUX)
    Blend: AUG-CC-PVTZ-JKFIT
	 Reference Energy          =    -453.6836097164727448 [Eh]
	 Singles Energy            =      -0.0000000000000000 [Eh]
	 Same-Spin Energy          =      -0.4862273194032057 [Eh]
	 Opposite-Spin Energy      =      -1.4790024489910842 [Eh]
	 Correlation Energy        =      -1.9652297683942899 [Eh]
	 Total Energy              =    -455.6488394848670396 [Eh]

	 ================> DF-SCS-MP2 Energies <==================
	-----------------------------------------------------------
	 SCS Same-Spin Scale       =       0.3333333333333333 [-]
	 SCS Opposite-Spin Scale   =       1.2000000000000000 [-]
	 SCS Same-Spin Energy      =      -0.1620757731344019 [Eh]
	 SCS Opposite-Spin Energy  =      -1.7748029387893010 [Eh]
	 SCS Correlation Energy    =      -1.9368787119237028 [Eh]
	 SCS Total Energy          =    -455.6204884283964702 [Eh]
	-----------------------------------------------------------

  Dipole Moment: [D]
     X:    -1.0570      Y:    -1.3630      Z:     1.0609     Total:     2.0250

*** Psi4 exiting successfully. Buy a developer a beer!
