                               Psi4 1.4a3.dev225

  ==> Input File <==

--------------------------------------------------------------------------
#psi4
#
memory 32 gb

molecule  {
0 1
  O        2.3476870     0.7564740    -0.5170070
  N        0.1051940     2.2022940     0.2485340
  N        2.3184480    -1.3288730     0.3923020
  C        0.2041490    -0.2277810    -0.0328410
  C       -0.4379646     1.1543945     0.0975604
  C       -0.4780620    -1.4467680    -0.1744800
  C       -1.9322610     0.8976940     0.1244170
  C       -1.8678090    -1.5041600    -0.1507450
  C       -2.5929860    -0.3189550    -0.0016080
  C        1.6942170    -0.1960210    -0.0707790
  H        0.0963370    -2.3571300    -0.3293910
  H       -2.5048800     1.8176440     0.2323000
  H       -2.3796530    -2.4547020    -0.2729900
  H       -3.6801520    -0.3414970     0.0246030
  H        1.0340450     2.2328410    -0.1623240
  H       -0.4673770     3.0011870     0.0009920
  H        1.8426920    -1.9076120     1.0707290
  H        3.3240540    -1.2501130     0.4893940
units angstrom
no_reorient  #important for SAPT in psi4, default
symmetry c1  #important for SAPT in psi4, default
}

set PROPERTIES_ORIGIN ["COM"]
properties('MP2/aug-cc-pvtz', properties = ['dipole'])
--------------------------------------------------------------------------

    Molecular point group: c1
  Charge       = 0
  Multiplicity = 1
  Basis Set: AUG-CC-PVTZ
    Blend: AUG-CC-PVTZ
  Basis Set: (AUG-CC-PVTZ AUX)
    Blend: AUG-CC-PVTZ-JKFIT

    Orbital Energies [Eh]
    ---------------------

    Doubly Occupied:

       1A    -20.521978     2A    -15.593530     3A    -15.580382
       4A    -11.354362     5A    -11.315538     6A    -11.250587
       7A    -11.248162     8A    -11.239570     9A    -11.232945
      10A    -11.214788    11A     -1.377717    12A     -1.328986
      13A     -1.207481    14A     -1.123756    15A     -1.020301
      16A     -0.978195    17A     -0.867521    18A     -0.838578
      19A     -0.796990    20A     -0.742334    21A     -0.726629
      22A     -0.714717    23A     -0.673148    24A     -0.640409
      25A     -0.608221    26A     -0.596072    27A     -0.582348
      28A     -0.571026    29A     -0.554603    30A     -0.528660
      31A     -0.480243    32A     -0.466453    33A     -0.426539
      34A     -0.414236    35A     -0.345159    36A     -0.275447

  @DF-RHF Final Energy:  -453.62293153909042

   => Energetics <=

    Nuclear Repulsion Energy =            499.1971728048172281
    One-Electron Energy =               -1606.7649864184900252
    Two-Electron Energy =                 653.9448820745823241
    Total Energy =                       -453.6229315390904731
  Basis Set: (AUG-CC-PVTZ AUX)
    Blend: AUG-CC-PVTZ-RI
    Molecular point group: c1

    Geometry (in Angstrom), charge = 0, multiplicity = 1:

       Center              X                  Y                   Z               Mass
    ------------   -----------------  -----------------  -----------------  -----------------
         O            2.319725403367     0.731765557159    -0.511598054906    15.994914619570
         N            0.077232403367     2.177585557159     0.253942945094    14.003074004430
         N            2.290486403367    -1.353581442841     0.397710945094    14.003074004430
         C            0.176187403367    -0.252489442841    -0.027432054906    12.000000000000
         C           -0.465926196633     1.129686057159     0.102969345094    12.000000000000
         C           -0.506023596633    -1.471476442841    -0.169071054906    12.000000000000
         C           -1.960222596633     0.872985557159     0.129825945094    12.000000000000
         C           -1.895770596633    -1.528868442841    -0.145336054906    12.000000000000
         C           -2.620947596633    -0.343663442841     0.003800945094    12.000000000000
         C            1.666255403367    -0.220729442841    -0.065370054906    12.000000000000
         H            0.068375403367    -2.381838442841    -0.323982054906     1.007825032230
         H           -2.532841596633     1.792935557159     0.237708945094     1.007825032230
         H           -2.407614596633    -2.479410442841    -0.267581054906     1.007825032230
         H           -3.708113596633    -0.366205442841     0.030011945094     1.007825032230
         H            1.006083403367     2.208132557159    -0.156915054906     1.007825032230
         H           -0.495338596633     2.976478557159     0.006400945094     1.007825032230
         H            1.814730403367    -1.932320442841     1.076137945094     1.007825032230
         H            3.296092403367    -1.274821442841     0.494802945094     1.007825032230

  Basis Set: AUG-CC-PVTZ
    Blend: AUG-CC-PVTZ
  Basis Set: (AUG-CC-PVTZ AUX)
    Blend: AUG-CC-PVTZ-JKFIT
	 Reference Energy          =    -453.6229315390904162 [Eh]
	 Singles Energy            =      -0.0000000000000000 [Eh]
	 Same-Spin Energy          =      -0.4873883597172116 [Eh]
	 Opposite-Spin Energy      =      -1.4798998277271926 [Eh]
	 Correlation Energy        =      -1.9672881874444044 [Eh]
	 Total Energy              =    -455.5902197265348263 [Eh]

	 ================> DF-SCS-MP2 Energies <==================
	-----------------------------------------------------------
	 SCS Same-Spin Scale       =       0.3333333333333333 [-]
	 SCS Opposite-Spin Scale   =       1.2000000000000000 [-]
	 SCS Same-Spin Energy      =      -0.1624627865724039 [Eh]
	 SCS Opposite-Spin Energy  =      -1.7758797932726311 [Eh]
	 SCS Correlation Energy    =      -1.9383425798450349 [Eh]
	 SCS Total Energy          =    -455.5612741189354438 [Eh]
	-----------------------------------------------------------

  Dipole Moment: [D]
     X:    -0.5992      Y:     0.1078      Z:     1.2530     Total:     1.3931

*** Psi4 exiting successfully. Buy a developer a beer!
