                               Psi4 1.4a3.dev225

  ==> Input File <==

--------------------------------------------------------------------------
#psi4
#
memory 32 gb

molecule  {
0 1
  O        2.3476870     0.7564740    -0.5170070
  N        0.1051940     2.2022940     0.2485340
  N        2.3184480    -1.3288730     0.3923020
  C        0.2041490    -0.2277810    -0.0328410
  C       -0.5292580     0.9782650     0.0721850
  C       -0.4780620    -1.4467680    -0.1744800
  C       -1.9322610     0.8976940     0.1244170
  C       -1.8678090    -1.5041600    -0.1507450
  C       -2.5929860    -0.3189550    -0.0016080
  C        1.6942170    -0.1960210    -0.0707790
  H        0.0963370    -2.3571300    -0.3293910
  H       -2.5048800     1.8176440     0.2323000
  H       -2.3796530    -2.4547020    -0.2729900
  H       -3.7001419    -0.3419115     0.0250849
  H        1.0340450     2.2328410    -0.1623240
  H       -0.4673770     3.0011870     0.0009920
  H        1.8426920    -1.9076120     1.0707290
  H        3.3240540    -1.2501130     0.4893940
units angstrom
no_reorient  #important for SAPT in psi4, default
symmetry c1  #important for SAPT in psi4, default
}

set PROPERTIES_ORIGIN ["COM"]
properties('MP2/aug-cc-pvtz', properties = ['dipole'])
--------------------------------------------------------------------------

    Molecular point group: c1
  Charge       = 0
  Multiplicity = 1
  Basis Set: AUG-CC-PVTZ
    Blend: AUG-CC-PVTZ
  Basis Set: (AUG-CC-PVTZ AUX)
    Blend: AUG-CC-PVTZ-JKFIT

    Orbital Energies [Eh]
    ---------------------

    Doubly Occupied:

       1A    -20.526520     2A    -15.587776     3A    -15.560173
       4A    -11.363791     5A    -11.297306     6A    -11.256064
       7A    -11.255583     8A    -11.244455     9A    -11.234778
      10A    -11.232310    11A     -1.380301    12A     -1.227272
      13A     -1.214303    14A     -1.137044    15A     -1.036205
      16A     -0.998682    17A     -0.876332    18A     -0.833886
      19A     -0.792608    20A     -0.736426    21A     -0.698221
      22A     -0.686399    23A     -0.673636    24A     -0.637929
      25A     -0.608489    26A     -0.603980    27A     -0.586353
      28A     -0.575292    29A     -0.538760    30A     -0.522897
      31A     -0.509847    32A     -0.455236    33A     -0.435771
      34A     -0.420546    35A     -0.352320    36A     -0.303346

  @DF-RHF Final Energy:  -453.68601829016205

   => Energetics <=

    Nuclear Repulsion Energy =            499.6532639963207316
    One-Electron Energy =               -1607.8768926836221453
    Two-Electron Energy =                 654.5376103971394741
    Total Energy =                       -453.6860182901619964
  Basis Set: (AUG-CC-PVTZ AUX)
    Blend: AUG-CC-PVTZ-RI
    Molecular point group: c1

    Geometry (in Angstrom), charge = 0, multiplicity = 1:

       Center              X                  Y                   Z               Mass
    ------------   -----------------  -----------------  -----------------  -----------------
         O            2.327924999776     0.747302194190    -0.509363666072    15.994914619570
         N            0.085431999776     2.193122194190     0.256177333928    14.003074004430
         N            2.298685999776    -1.338044805810     0.399945333928    14.003074004430
         C            0.184386999776    -0.236952805810    -0.025197666072    12.000000000000
         C           -0.549020000224     0.969093194190     0.079828333928    12.000000000000
         C           -0.497824000224    -1.455939805810    -0.166836666072    12.000000000000
         C           -1.952023000224     0.888522194190     0.132060333928    12.000000000000
         C           -1.887571000224    -1.513331805810    -0.143101666072    12.000000000000
         C           -2.612748000224    -0.328126805810     0.006035333928    12.000000000000
         C            1.674454999776    -0.205192805810    -0.063135666072    12.000000000000
         H            0.076574999776    -2.366301805810    -0.321747666072     1.007825032230
         H           -2.524642000224     1.808472194190     0.239943333928     1.007825032230
         H           -2.399415000224    -2.463873805810    -0.265346666072     1.007825032230
         H           -3.719903900224    -0.351083305810     0.032728233928     1.007825032230
         H            1.014282999776     2.223669194190    -0.154680666072     1.007825032230
         H           -0.487139000224     2.992015194190     0.008635333928     1.007825032230
         H            1.822929999776    -1.916783805810     1.078372333928     1.007825032230
         H            3.304291999776    -1.259284805810     0.497037333928     1.007825032230

  Basis Set: AUG-CC-PVTZ
    Blend: AUG-CC-PVTZ
  Basis Set: (AUG-CC-PVTZ AUX)
    Blend: AUG-CC-PVTZ-JKFIT
	 Reference Energy          =    -453.6860182901620533 [Eh]
	 Singles Energy            =      -0.0000000000000000 [Eh]
	 Same-Spin Energy          =      -0.4862231653717628 [Eh]
	 Opposite-Spin Energy      =      -1.4790476862983502 [Eh]
	 Correlation Energy        =      -1.9652708516701130 [Eh]
	 Total Energy              =    -455.6512891418321942 [Eh]

	 ================> DF-SCS-MP2 Energies <==================
	-----------------------------------------------------------
	 SCS Same-Spin Scale       =       0.3333333333333333 [-]
	 SCS Opposite-Spin Scale   =       1.2000000000000000 [-]
	 SCS Same-Spin Energy      =      -0.1620743884572542 [Eh]
	 SCS Opposite-Spin Energy  =      -1.7748572235580202 [Eh]
	 SCS Correlation Energy    =      -1.9369316120152744 [Eh]
	 SCS Total Energy          =    -455.6229499021773108 [Eh]
	-----------------------------------------------------------

  Dipole Moment: [D]
     X:    -1.1198      Y:    -1.3545      Z:     1.0614     Total:     2.0531

*** Psi4 exiting successfully. Buy a developer a beer!
