                               Psi4 1.4a3.dev225

  ==> Input File <==

--------------------------------------------------------------------------
#psi4
#
memory 32 gb

molecule  {
0 1
  O        2.3476870     0.7564740    -0.5170070
  N        0.1051940     2.2022940     0.2485340
  N        2.3184480    -1.3288730     0.3923020
  C        0.2041490    -0.2277810    -0.0328410
  C       -0.6051884     1.0145079     0.1204855
  C       -0.4780620    -1.4467680    -0.1744800
  C       -1.9322610     0.8976940     0.1244170
  C       -1.8678090    -1.5041600    -0.1507450
  C       -2.5929860    -0.3189550    -0.0016080
  C        1.6942170    -0.1960210    -0.0707790
  H        0.0963370    -2.3571300    -0.3293910
  H       -2.5048800     1.8176440     0.2323000
  H       -2.3796530    -2.4547020    -0.2729900
  H       -3.6801520    -0.3414970     0.0246030
  H        1.0340450     2.2328410    -0.1623240
  H       -0.4673770     3.0011870     0.0009920
  H        1.8426920    -1.9076120     1.0707290
  H        3.3240540    -1.2501130     0.4893940
units angstrom
no_reorient  #important for SAPT in psi4, default
symmetry c1  #important for SAPT in psi4, default
}

set PROPERTIES_ORIGIN ["COM"]
properties('MP2/aug-cc-pvtz', properties = ['dipole'])
--------------------------------------------------------------------------

    Molecular point group: c1
  Charge       = 0
  Multiplicity = 1
  Basis Set: AUG-CC-PVTZ
    Blend: AUG-CC-PVTZ
  Basis Set: (AUG-CC-PVTZ AUX)
    Blend: AUG-CC-PVTZ-JKFIT

    Orbital Energies [Eh]
    ---------------------

    Doubly Occupied:

       1A    -20.526475     2A    -15.587738     3A    -15.558497
       4A    -11.364618     5A    -11.295371     6A    -11.256810
       7A    -11.255874     8A    -11.251013     9A    -11.232322
      10A    -11.225107    11A     -1.379893    12A     -1.226183
      13A     -1.214124    14A     -1.137370    15A     -1.037483
      16A     -1.001320    17A     -0.883147    18A     -0.823426
      19A     -0.795781    20A     -0.736146    21A     -0.699771
      22A     -0.690086    23A     -0.672622    24A     -0.639194
      25A     -0.614724    26A     -0.597351    27A     -0.586475
      28A     -0.574144    29A     -0.543166    30A     -0.528671
      31A     -0.498171    32A     -0.454172    33A     -0.436640
      34A     -0.420410    35A     -0.353384    36A     -0.303302

  @DF-RHF Final Energy:  -453.67706861574942

   => Energetics <=

    Nuclear Repulsion Energy =            499.2271513405324868
    One-Electron Energy =               -1607.0064801108394477
    Two-Electron Energy =                 654.1022601545577118
    Total Energy =                       -453.6770686157493628
  Basis Set: (AUG-CC-PVTZ AUX)
    Blend: AUG-CC-PVTZ-RI
    Molecular point group: c1

    Geometry (in Angstrom), charge = 0, multiplicity = 1:

       Center              X                  Y                   Z               Mass
    ------------   -----------------  -----------------  -----------------  -----------------
         O            2.334473540801     0.744102717311    -0.513619911397    15.994914619570
         N            0.091980540801     2.189922717311     0.251921088603    14.003074004430
         N            2.305234540801    -1.341244282689     0.395689088603    14.003074004430
         C            0.190935540801    -0.240152282689    -0.029453911397    12.000000000000
         C           -0.618401859199     1.002136617311     0.123872588603    12.000000000000
         C           -0.491275459199    -1.459139282689    -0.171092911397    12.000000000000
         C           -1.945474459199     0.885322717311     0.127804088603    12.000000000000
         C           -1.881022459199    -1.516531282689    -0.147357911397    12.000000000000
         C           -2.606199459199    -0.331326282689     0.001779088603    12.000000000000
         C            1.681003540801    -0.208392282689    -0.067391911397    12.000000000000
         H            0.083123540801    -2.369501282689    -0.326003911397     1.007825032230
         H           -2.518093459199     1.805272717311     0.235687088603     1.007825032230
         H           -2.392866459199    -2.467073282689    -0.269602911397     1.007825032230
         H           -3.693365459199    -0.353868282689     0.027990088603     1.007825032230
         H            1.020831540801     2.220469717311    -0.158936911397     1.007825032230
         H           -0.480590459199     2.988815717311     0.004379088603     1.007825032230
         H            1.829478540801    -1.919983282689     1.074116088603     1.007825032230
         H            3.310840540801    -1.262484282689     0.492781088603     1.007825032230

  Basis Set: AUG-CC-PVTZ
    Blend: AUG-CC-PVTZ
  Basis Set: (AUG-CC-PVTZ AUX)
    Blend: AUG-CC-PVTZ-JKFIT
	 Reference Energy          =    -453.6770686157494197 [Eh]
	 Singles Energy            =      -0.0000000000000000 [Eh]
	 Same-Spin Energy          =      -0.4861808808735064 [Eh]
	 Opposite-Spin Energy      =      -1.4792349313802742 [Eh]
	 Correlation Energy        =      -1.9654158122537806 [Eh]
	 Total Energy              =    -455.6424844280031721 [Eh]

	 ================> DF-SCS-MP2 Energies <==================
	-----------------------------------------------------------
	 SCS Same-Spin Scale       =       0.3333333333333333 [-]
	 SCS Opposite-Spin Scale   =       1.2000000000000000 [-]
	 SCS Same-Spin Energy      =      -0.1620602936245021 [Eh]
	 SCS Opposite-Spin Energy  =      -1.7750819176563291 [Eh]
	 SCS Correlation Energy    =      -1.9371422112808312 [Eh]
	 SCS Total Energy          =    -455.6142108270302629 [Eh]
	-----------------------------------------------------------

  Dipole Moment: [D]
     X:    -1.1096      Y:    -1.4134      Z:     1.0633     Total:     2.0880

*** Psi4 exiting successfully. Buy a developer a beer!
