                               Psi4 1.4a3.dev225

  ==> Input File <==

--------------------------------------------------------------------------
#psi4
#
memory 32 gb

molecule  {
0 1
  O        2.3476870     0.7564740    -0.5170070
  N        0.0835489     2.2132448     0.2487295
  N        2.3184480    -1.3288730     0.3923020
  C        0.2041490    -0.2277810    -0.0328410
  C       -0.5292580     0.9782650     0.0721850
  C       -0.4780620    -1.4467680    -0.1744800
  C       -1.9322610     0.8976940     0.1244170
  C       -1.8678090    -1.5041600    -0.1507450
  C       -2.5929860    -0.3189550    -0.0016080
  C        1.6942170    -0.1960210    -0.0707790
  H        0.0963370    -2.3571300    -0.3293910
  H       -2.5048800     1.8176440     0.2323000
  H       -2.3796530    -2.4547020    -0.2729900
  H       -3.6801520    -0.3414970     0.0246030
  H        1.0340450     2.2328410    -0.1623240
  H       -0.4673770     3.0011870     0.0009920
  H        1.8426920    -1.9076120     1.0707290
  H        3.3240540    -1.2501130     0.4893940
units angstrom
no_reorient  #important for SAPT in psi4, default
symmetry c1  #important for SAPT in psi4, default
}

set PROPERTIES_ORIGIN ["COM"]
properties('MP2/aug-cc-pvtz', properties = ['dipole'])
--------------------------------------------------------------------------

    Molecular point group: c1
  Charge       = 0
  Multiplicity = 1
  Basis Set: AUG-CC-PVTZ
    Blend: AUG-CC-PVTZ
  Basis Set: (AUG-CC-PVTZ AUX)
    Blend: AUG-CC-PVTZ-JKFIT

    Orbital Energies [Eh]
    ---------------------

    Doubly Occupied:

       1A    -20.526898     2A    -15.587941     3A    -15.559535
       4A    -11.364041     5A    -11.297244     6A    -11.256042
       7A    -11.252952     8A    -11.244830     9A    -11.234031
      10A    -11.232053    11A     -1.380547    12A     -1.227346
      13A     -1.214458    14A     -1.137144    15A     -1.036681
      16A     -0.998535    17A     -0.877097    18A     -0.834674
      19A     -0.792350    20A     -0.736828    21A     -0.701117
      22A     -0.684775    23A     -0.675764    24A     -0.637019
      25A     -0.610969    26A     -0.603103    27A     -0.585629
      28A     -0.575409    29A     -0.539212    30A     -0.523127
      31A     -0.510666    32A     -0.454932    33A     -0.435748
      34A     -0.420817    35A     -0.352206    36A     -0.303008

  @DF-RHF Final Energy:  -453.68593331484090

   => Energetics <=

    Nuclear Repulsion Energy =            499.5964700748426139
    One-Electron Energy =               -1607.7553521463287325
    Two-Electron Energy =                 654.4729487566451098
    Total Energy =                       -453.6859333148408950
  Basis Set: (AUG-CC-PVTZ AUX)
    Blend: AUG-CC-PVTZ-RI
    Molecular point group: c1

    Geometry (in Angstrom), charge = 0, multiplicity = 1:

       Center              X                  Y                   Z               Mass
    ------------   -----------------  -----------------  -----------------  -----------------
         O            2.330004552902     0.746172115792    -0.509380216634    15.994914619570
         N            0.065866452902     2.202942915792     0.256356283366    14.003074004430
         N            2.300765552902    -1.339174884208     0.399928783366    14.003074004430
         C            0.186466552902    -0.238082884208    -0.025214216634    12.000000000000
         C           -0.546940447098     0.967963115792     0.079811783366    12.000000000000
         C           -0.495744447098    -1.457069884208    -0.166853216634    12.000000000000
         C           -1.949943447098     0.887392115792     0.132043783366    12.000000000000
         C           -1.885491447098    -1.514461884208    -0.143118216634    12.000000000000
         C           -2.610668447098    -0.329256884208     0.006018783366    12.000000000000
         C            1.676534552902    -0.206322884208    -0.063152216634    12.000000000000
         H            0.078654552902    -2.367431884208    -0.321764216634     1.007825032230
         H           -2.522562447098     1.807342115792     0.239926783366     1.007825032230
         H           -2.397335447098    -2.465003884208    -0.265363216634     1.007825032230
         H           -3.697834447098    -0.351798884208     0.032229783366     1.007825032230
         H            1.016362552902     2.222539115792    -0.154697216634     1.007825032230
         H           -0.485059447098     2.990885115792     0.008618783366     1.007825032230
         H            1.825009552902    -1.917913884208     1.078355783366     1.007825032230
         H            3.306371552902    -1.260414884208     0.497020783366     1.007825032230

  Basis Set: AUG-CC-PVTZ
    Blend: AUG-CC-PVTZ
  Basis Set: (AUG-CC-PVTZ AUX)
    Blend: AUG-CC-PVTZ-JKFIT
	 Reference Energy          =    -453.6859333148408950 [Eh]
	 Singles Energy            =      -0.0000000000000000 [Eh]
	 Same-Spin Energy          =      -0.4861886402282733 [Eh]
	 Opposite-Spin Energy      =      -1.4788734683244895 [Eh]
	 Correlation Energy        =      -1.9650621085527629 [Eh]
	 Total Energy              =    -455.6509954233936810 [Eh]

	 ================> DF-SCS-MP2 Energies <==================
	-----------------------------------------------------------
	 SCS Same-Spin Scale       =       0.3333333333333333 [-]
	 SCS Opposite-Spin Scale   =       1.2000000000000000 [-]
	 SCS Same-Spin Energy      =      -0.1620628800760911 [Eh]
	 SCS Opposite-Spin Energy  =      -1.7746481619893875 [Eh]
	 SCS Correlation Energy    =      -1.9367110420654785 [Eh]
	 SCS Total Energy          =    -455.6226443569063917 [Eh]
	-----------------------------------------------------------

  Dipole Moment: [D]
     X:    -1.1015      Y:    -1.3666      Z:     1.0616     Total:     2.0513

*** Psi4 exiting successfully. Buy a developer a beer!
