                               Psi4 1.4a3.dev225

  ==> Input File <==

--------------------------------------------------------------------------
#psi4
#
memory 32 gb

molecule  {
0 1
  O        2.3476870     0.7564740    -0.5170070
  N        0.1051940     2.2022940     0.2485340
  N        2.3184480    -1.3288730     0.3923020
  C        0.2041490    -0.2277810    -0.0328410
  C       -0.5292580     0.9782650     0.0721850
  C       -0.4780620    -1.4467680    -0.1744800
  C       -1.9322610     0.8976940     0.1244170
  C       -1.8678090    -1.5041600    -0.1507450
  C       -2.5508552    -0.2945838     0.0015962
  C        1.6942170    -0.1960210    -0.0707790
  H        0.0963370    -2.3571300    -0.3293910
  H       -2.5048800     1.8176440     0.2323000
  H       -2.3796530    -2.4547020    -0.2729900
  H       -3.6801520    -0.3414970     0.0246030
  H        1.0340450     2.2328410    -0.1623240
  H       -0.4673770     3.0011870     0.0009920
  H        1.8426920    -1.9076120     1.0707290
  H        3.3240540    -1.2501130     0.4893940
units angstrom
no_reorient  #important for SAPT in psi4, default
symmetry c1  #important for SAPT in psi4, default
}

set PROPERTIES_ORIGIN ["COM"]
properties('MP2/aug-cc-pvtz', properties = ['dipole'])
--------------------------------------------------------------------------

    Molecular point group: c1
  Charge       = 0
  Multiplicity = 1
  Basis Set: AUG-CC-PVTZ
    Blend: AUG-CC-PVTZ
  Basis Set: (AUG-CC-PVTZ AUX)
    Blend: AUG-CC-PVTZ-JKFIT

    Orbital Energies [Eh]
    ---------------------

    Doubly Occupied:

       1A    -20.525821     2A    -15.587257     3A    -15.561411
       4A    -11.363172     5A    -11.298296     6A    -11.255154
       7A    -11.251715     8A    -11.242625     9A    -11.231038
      10A    -11.230975    11A     -1.379705    12A     -1.228831
      13A     -1.213806    14A     -1.140700    15A     -1.039902
      16A     -0.999928    17A     -0.874084    18A     -0.835745
      19A     -0.792929    20A     -0.736763    21A     -0.698948
      22A     -0.684517    23A     -0.673873    24A     -0.639009
      25A     -0.607731    26A     -0.603225    27A     -0.588977
      28A     -0.575179    29A     -0.540504    30A     -0.523839
      31A     -0.505458    32A     -0.456475    33A     -0.435071
      34A     -0.419973    35A     -0.356969    36A     -0.302822

  @DF-RHF Final Energy:  -453.68427788907638

   => Energetics <=

    Nuclear Repulsion Energy =            500.6478837216782267
    One-Electron Energy =               -1609.8594674540004235
    Two-Electron Energy =                 655.5273058432458129
    Total Energy =                       -453.6842778890763839
  Basis Set: (AUG-CC-PVTZ AUX)
    Blend: AUG-CC-PVTZ-RI
    Molecular point group: c1

    Geometry (in Angstrom), charge = 0, multiplicity = 1:

       Center              X                  Y                   Z               Mass
    ------------   -----------------  -----------------  -----------------  -----------------
         O            2.324061250187     0.745149730136    -0.509642687879    15.994914619570
         N            0.081568250187     2.190969730136     0.255898312121    14.003074004430
         N            2.294822250187    -1.340197269864     0.399666312121    14.003074004430
         C            0.180523250187    -0.239105269864    -0.025476687879    12.000000000000
         C           -0.552883749813     0.966940730136     0.079549312121    12.000000000000
         C           -0.501687749813    -1.458092269864    -0.167115687879    12.000000000000
         C           -1.955886749813     0.886369730136     0.131781312121    12.000000000000
         C           -1.891434749813    -1.515484269864    -0.143380687879    12.000000000000
         C           -2.574480949813    -0.305908069864     0.008960512121    12.000000000000
         C            1.670591250187    -0.207345269864    -0.063414687879    12.000000000000
         H            0.072711250187    -2.368454269864    -0.322026687879     1.007825032230
         H           -2.528505749813     1.806319730136     0.239664312121     1.007825032230
         H           -2.403278749813    -2.466026269864    -0.265625687879     1.007825032230
         H           -3.703777749813    -0.352821269864     0.031967312121     1.007825032230
         H            1.010419250187     2.221516730136    -0.154959687879     1.007825032230
         H           -0.491002749813     2.989862730136     0.008356312121     1.007825032230
         H            1.819066250187    -1.918936269864     1.078093312121     1.007825032230
         H            3.300428250187    -1.261437269864     0.496758312121     1.007825032230

  Basis Set: AUG-CC-PVTZ
    Blend: AUG-CC-PVTZ
  Basis Set: (AUG-CC-PVTZ AUX)
    Blend: AUG-CC-PVTZ-JKFIT
	 Reference Energy          =    -453.6842778890763839 [Eh]
	 Singles Energy            =      -0.0000000000000000 [Eh]
	 Same-Spin Energy          =      -0.4860620061287197 [Eh]
	 Opposite-Spin Energy      =      -1.4785717569438110 [Eh]
	 Correlation Energy        =      -1.9646337630725308 [Eh]
	 Total Energy              =    -455.6489116521489109 [Eh]

	 ================> DF-SCS-MP2 Energies <==================
	-----------------------------------------------------------
	 SCS Same-Spin Scale       =       0.3333333333333333 [-]
	 SCS Opposite-Spin Scale   =       1.2000000000000000 [-]
	 SCS Same-Spin Energy      =      -0.1620206687095732 [Eh]
	 SCS Opposite-Spin Energy  =      -1.7742861083325732 [Eh]
	 SCS Correlation Energy    =      -1.9363067770421465 [Eh]
	 SCS Total Energy          =    -455.6205846661185319 [Eh]
	-----------------------------------------------------------

  Dipole Moment: [D]
     X:    -1.1248      Y:    -1.3248      Z:     1.0641     Total:     2.0378

*** Psi4 exiting successfully. Buy a developer a beer!
