                               Psi4 1.4a3.dev225

  ==> Input File <==

--------------------------------------------------------------------------
#psi4
#
memory 32 gb

molecule  {
0 1
  O        2.3476870     0.7564740    -0.5170070
  N        0.1051940     2.2022940     0.2485340
  N        2.3184480    -1.3288730     0.3923020
  C        0.2041490    -0.2277810    -0.0328410
  C       -0.5292580     0.9782650     0.0721850
  C       -0.4780620    -1.4467680    -0.1744800
  C       -1.9322610     0.8976940     0.1244170
  C       -1.8678090    -1.5041600    -0.1507450
  C       -2.5929860    -0.3189550    -0.0016080
  C        1.6942170    -0.1960210    -0.0707790
  H        0.0963370    -2.3571300    -0.3293910
  H       -2.5048800     1.8176440     0.2323000
  H       -2.3796530    -2.4547020    -0.2729900
  H       -3.6801520    -0.3414970     0.0246030
  H        1.0255778     2.2636892    -0.1776419
  H       -0.4673770     3.0011870     0.0009920
  H        1.8426920    -1.9076120     1.0707290
  H        3.3240540    -1.2501130     0.4893940
units angstrom
no_reorient  #important for SAPT in psi4, default
symmetry c1  #important for SAPT in psi4, default
}

set PROPERTIES_ORIGIN ["COM"]
properties('MP2/aug-cc-pvtz', properties = ['dipole'])
--------------------------------------------------------------------------

    Molecular point group: c1
  Charge       = 0
  Multiplicity = 1
  Basis Set: AUG-CC-PVTZ
    Blend: AUG-CC-PVTZ
  Basis Set: (AUG-CC-PVTZ AUX)
    Blend: AUG-CC-PVTZ-JKFIT

    Orbital Energies [Eh]
    ---------------------

    Doubly Occupied:

       1A    -20.525757     2A    -15.587335     3A    -15.560460
       4A    -11.363168     5A    -11.297476     6A    -11.255867
       7A    -11.253324     8A    -11.244484     9A    -11.234922
      10A    -11.232347    11A     -1.379383    12A     -1.227163
      13A     -1.213784    14A     -1.137258    15A     -1.036618
      16A     -0.998972    17A     -0.877212    18A     -0.834013
      19A     -0.792674    20A     -0.736369    21A     -0.698627
      22A     -0.687543    23A     -0.672561    24A     -0.637916
      25A     -0.609304    26A     -0.603925    27A     -0.585669
      28A     -0.574892    29A     -0.539523    30A     -0.523420
      31A     -0.510026    32A     -0.455415    33A     -0.435217
      34A     -0.419942    35A     -0.352178    36A     -0.303738

  @DF-RHF Final Energy:  -453.68656060767859

   => Energetics <=

    Nuclear Repulsion Energy =            499.6695526674096186
    One-Electron Energy =               -1607.9152610641986030
    Two-Electron Energy =                 654.5591477891105114
    Total Energy =                       -453.6865606076785298
  Basis Set: (AUG-CC-PVTZ AUX)
    Blend: AUG-CC-PVTZ-RI
    Molecular point group: c1

    Geometry (in Angstrom), charge = 0, multiplicity = 1:

       Center              X                  Y                   Z               Mass
    ------------   -----------------  -----------------  -----------------  -----------------
         O            2.327839651012     0.747070631031    -0.509246636781    15.994914619570
         N            0.085346651012     2.192890631031     0.256294363219    14.003074004430
         N            2.298600651012    -1.338276368969     0.400062363219    14.003074004430
         C            0.184301651012    -0.237184368969    -0.025080636781    12.000000000000
         C           -0.549105348988     0.968861631031     0.079945363219    12.000000000000
         C           -0.497909348988    -1.456171368969    -0.166719636781    12.000000000000
         C           -1.952108348988     0.888290631031     0.132177363219    12.000000000000
         C           -1.887656348988    -1.513563368969    -0.142984636781    12.000000000000
         C           -2.612833348988    -0.328358368969     0.006152363219    12.000000000000
         C            1.674369651012    -0.205424368969    -0.063018636781    12.000000000000
         H            0.076489651012    -2.366533368969    -0.321630636781     1.007825032230
         H           -2.524727348988     1.808240631031     0.240060363219     1.007825032230
         H           -2.399500348988    -2.464105368969    -0.265229636781     1.007825032230
         H           -3.699999348988    -0.350900368969     0.032363363219     1.007825032230
         H            1.005730451012     2.254285831031    -0.169881536781     1.007825032230
         H           -0.487224348988     2.991783631031     0.008752363219     1.007825032230
         H            1.822844651012    -1.917015368969     1.078489363219     1.007825032230
         H            3.304206651012    -1.259516368969     0.497154363219     1.007825032230

  Basis Set: AUG-CC-PVTZ
    Blend: AUG-CC-PVTZ
  Basis Set: (AUG-CC-PVTZ AUX)
    Blend: AUG-CC-PVTZ-JKFIT
	 Reference Energy          =    -453.6865606076785866 [Eh]
	 Singles Energy            =      -0.0000000000000000 [Eh]
	 Same-Spin Energy          =      -0.4861195139148798 [Eh]
	 Opposite-Spin Energy      =      -1.4788533601268743 [Eh]
	 Correlation Energy        =      -1.9649728740417540 [Eh]
	 Total Energy              =    -455.6515334817203211 [Eh]

	 ================> DF-SCS-MP2 Energies <==================
	-----------------------------------------------------------
	 SCS Same-Spin Scale       =       0.3333333333333333 [-]
	 SCS Opposite-Spin Scale   =       1.2000000000000000 [-]
	 SCS Same-Spin Energy      =      -0.1620398379716266 [Eh]
	 SCS Opposite-Spin Energy  =      -1.7746240321522491 [Eh]
	 SCS Correlation Energy    =      -1.9366638701238756 [Eh]
	 SCS Total Energy          =    -455.6232244778024665 [Eh]
	-----------------------------------------------------------

  Dipole Moment: [D]
     X:    -1.1517      Y:    -1.3351      Z:     1.0425     Total:     2.0483

*** Psi4 exiting successfully. Buy a developer a beer!
