                               Psi4 1.4a3.dev225

  ==> Input File <==

--------------------------------------------------------------------------
#psi4
#
memory 32 gb

molecule  {
0 1
  O        2.3476870     0.7564740    -0.5170070
  N        0.1051940     2.2022940     0.2485340
  N        2.3184480    -1.3288730     0.3923020
  C        0.2041490    -0.2277810    -0.0328410
  C       -0.5292580     0.9782650     0.0721850
  C       -0.4780620    -1.4467680    -0.1744800
  C       -1.9322610     0.8976940     0.1244170
  C       -1.8678090    -1.5041600    -0.1507450
  C       -2.5929860    -0.3189550    -0.0016080
  C        1.6942170    -0.1960210    -0.0707790
  H        0.0963370    -2.3571300    -0.3293910
  H       -2.5048800     1.8176440     0.2323000
  H       -2.3796530    -2.4547020    -0.2729900
  H       -3.6801520    -0.3414970     0.0246030
  H        1.0340450     2.2328410    -0.1623240
  H       -0.4673770     3.0011870     0.0009920
  H        1.8426920    -1.9076120     1.0707290
  H        3.5225261    -1.2345685     0.5085566
units angstrom
no_reorient  #important for SAPT in psi4, default
symmetry c1  #important for SAPT in psi4, default
}

set PROPERTIES_ORIGIN ["COM"]
properties('MP2/aug-cc-pvtz', properties = ['dipole'])
--------------------------------------------------------------------------

    Molecular point group: c1
  Charge       = 0
  Multiplicity = 1
  Basis Set: AUG-CC-PVTZ
    Blend: AUG-CC-PVTZ
  Basis Set: (AUG-CC-PVTZ AUX)
    Blend: AUG-CC-PVTZ-JKFIT

    Orbital Energies [Eh]
    ---------------------

    Doubly Occupied:

       1A    -20.524586     2A    -15.601889     3A    -15.559578
       4A    -11.362677     5A    -11.296847     6A    -11.255437
       7A    -11.252852     8A    -11.244566     9A    -11.234243
      10A    -11.231670    11A     -1.377143    12A     -1.226705
      13A     -1.196959    14A     -1.135512    15A     -1.033859
      16A     -0.997972    17A     -0.871919    18A     -0.830686
      19A     -0.787720    20A     -0.729160    21A     -0.691375
      22A     -0.687383    23A     -0.647387    24A     -0.636423
      25A     -0.606035    26A     -0.599410    27A     -0.583990
      28A     -0.567529    29A     -0.538403    30A     -0.522587
      31A     -0.509226    32A     -0.454644    33A     -0.433932
      34A     -0.417008    35A     -0.351701    36A     -0.302802

  @DF-RHF Final Energy:  -453.65690096769271

   => Energetics <=

    Nuclear Repulsion Energy =            498.7411634971149965
    One-Electron Energy =               -1606.1924995365523046
    Two-Electron Energy =                 653.7944350717446014
    Total Energy =                       -453.6569009676927635
  Basis Set: (AUG-CC-PVTZ AUX)
    Blend: AUG-CC-PVTZ-RI
    Molecular point group: c1

    Geometry (in Angstrom), charge = 0, multiplicity = 1:

       Center              X                  Y                   Z               Mass
    ------------   -----------------  -----------------  -----------------  -----------------
         O            2.326306849364     0.747183985704    -0.509502034220    15.994914619570
         N            0.083813849364     2.193003985704     0.256038965780    14.003074004430
         N            2.297067849364    -1.338163014296     0.399806965780    14.003074004430
         C            0.182768849364    -0.237071014296    -0.025336034220    12.000000000000
         C           -0.550638150636     0.968974985704     0.079689965780    12.000000000000
         C           -0.499442150636    -1.456058014296    -0.166975034220    12.000000000000
         C           -1.953641150636     0.888403985704     0.131921965780    12.000000000000
         C           -1.889189150636    -1.513450014296    -0.143240034220    12.000000000000
         C           -2.614366150636    -0.328245014296     0.005896965780    12.000000000000
         C            1.672836849364    -0.205311014296    -0.063274034220    12.000000000000
         H            0.074956849364    -2.366420014296    -0.321886034220     1.007825032230
         H           -2.526260150636     1.808353985704     0.239804965780     1.007825032230
         H           -2.401033150636    -2.463992014296    -0.265485034220     1.007825032230
         H           -3.701532150636    -0.350787014296     0.032107965780     1.007825032230
         H            1.012664849364     2.223550985704    -0.154819034220     1.007825032230
         H           -0.488757150636     2.991896985704     0.008496965780     1.007825032230
         H            1.821311849364    -1.916902014296     1.078233965780     1.007825032230
         H            3.501145949364    -1.243858514296     0.516061565780     1.007825032230

  Basis Set: AUG-CC-PVTZ
    Blend: AUG-CC-PVTZ
  Basis Set: (AUG-CC-PVTZ AUX)
    Blend: AUG-CC-PVTZ-JKFIT
	 Reference Energy          =    -453.6569009676927067 [Eh]
	 Singles Energy            =      -0.0000000000000000 [Eh]
	 Same-Spin Energy          =      -0.4875653540441308 [Eh]
	 Opposite-Spin Energy      =      -1.4828067434700274 [Eh]
	 Correlation Energy        =      -1.9703720975141583 [Eh]
	 Total Energy              =    -455.6272730652068503 [Eh]

	 ================> DF-SCS-MP2 Energies <==================
	-----------------------------------------------------------
	 SCS Same-Spin Scale       =       0.3333333333333333 [-]
	 SCS Opposite-Spin Scale   =       1.2000000000000000 [-]
	 SCS Same-Spin Energy      =      -0.1625217846813769 [Eh]
	 SCS Opposite-Spin Energy  =      -1.7793680921640329 [Eh]
	 SCS Correlation Energy    =      -1.9418898768454098 [Eh]
	 SCS Total Energy          =    -455.5987908445381436 [Eh]
	-----------------------------------------------------------

  Dipole Moment: [D]
     X:    -0.9325      Y:    -1.3536      Z:     1.0755     Total:     1.9643

*** Psi4 exiting successfully. Buy a developer a beer!
