                               Psi4 1.4a3.dev225

  ==> Input File <==

--------------------------------------------------------------------------
#psi4
#
memory 32 gb

molecule  {
0 1
  O        2.3476870     0.7564740    -0.5170070
  N        0.1051940     2.2022940     0.2485340
  N        2.3184480    -1.3288730     0.3923020
  C        0.2041490    -0.2277810    -0.0328410
  C       -0.5292580     0.9782650     0.0721850
  C       -0.4780620    -1.4467680    -0.1744800
  C       -1.9322610     0.8976940     0.1244170
  C       -1.8678090    -1.5041600    -0.1507450
  C       -2.5929860    -0.3189550    -0.0016080
  C        1.6942170    -0.1960210    -0.0707790
  H        0.0963370    -2.3571300    -0.3293910
  H       -2.5048800     1.8176440     0.2323000
  H       -2.3796530    -2.4547020    -0.2729900
  H       -3.6801520    -0.3414970     0.0246030
  H        1.0340450     2.2328410    -0.1623240
  H       -0.4673770     3.0011870     0.0009920
  H        1.7529474    -1.8833673     1.0202279
  H        3.3240540    -1.2501130     0.4893940
units angstrom
no_reorient  #important for SAPT in psi4, default
symmetry c1  #important for SAPT in psi4, default
}

set PROPERTIES_ORIGIN ["COM"]
properties('MP2/aug-cc-pvtz', properties = ['dipole'])
--------------------------------------------------------------------------

    Molecular point group: c1
  Charge       = 0
  Multiplicity = 1
  Basis Set: AUG-CC-PVTZ
    Blend: AUG-CC-PVTZ
  Basis Set: (AUG-CC-PVTZ AUX)
    Blend: AUG-CC-PVTZ-JKFIT

    Orbital Energies [Eh]
    ---------------------

    Doubly Occupied:

       1A    -20.525123     2A    -15.587745     3A    -15.560283
       4A    -11.361857     5A    -11.297661     6A    -11.256820
       7A    -11.253789     8A    -11.245089     9A    -11.235258
      10A    -11.232962    11A     -1.379474    12A     -1.227514
      13A     -1.215186    14A     -1.137636    15A     -1.037047
      16A     -0.999167    17A     -0.876742    18A     -0.834209
      19A     -0.789295    20A     -0.739479    21A     -0.701850
      22A     -0.688336    23A     -0.674561    24A     -0.636934
      25A     -0.610013    26A     -0.604733    27A     -0.586188
      28A     -0.576091    29A     -0.540007    30A     -0.523665
      31A     -0.510785    32A     -0.455671    33A     -0.434024
      34A     -0.419832    35A     -0.352949    36A     -0.303722

  @DF-RHF Final Energy:  -453.68534974348484

   => Energetics <=

    Nuclear Repulsion Energy =            499.9919745522182097
    One-Electron Energy =               -1608.5312490970688941
    Two-Electron Energy =                 654.8539248013659062
    Total Energy =                       -453.6853497434848350
  Basis Set: (AUG-CC-PVTZ AUX)
    Blend: AUG-CC-PVTZ-RI
    Molecular point group: c1

    Geometry (in Angstrom), charge = 0, multiplicity = 1:

       Center              X                  Y                   Z               Mass
    ------------   -----------------  -----------------  -----------------  -----------------
         O            2.328441673598     0.747119543228    -0.508986034436    15.994914619570
         N            0.085948673598     2.192939543228     0.256554965564    14.003074004430
         N            2.299202673598    -1.338227456772     0.400322965564    14.003074004430
         C            0.184903673598    -0.237135456772    -0.024820034436    12.000000000000
         C           -0.548503326402     0.968910543228     0.080205965564    12.000000000000
         C           -0.497307326402    -1.456122456772    -0.166459034436    12.000000000000
         C           -1.951506326402     0.888339543228     0.132437965564    12.000000000000
         C           -1.887054326402    -1.513514456772    -0.142724034436    12.000000000000
         C           -2.612231326402    -0.328309456772     0.006412965564    12.000000000000
         C            1.674971673598    -0.205375456772    -0.062758034436    12.000000000000
         H            0.077091673598    -2.366484456772    -0.321370034436     1.007825032230
         H           -2.524125326402     1.808289543228     0.240320965564     1.007825032230
         H           -2.398898326402    -2.464056456772    -0.264969034436     1.007825032230
         H           -3.699397326402    -0.350851456772     0.032623965564     1.007825032230
         H            1.014799673598     2.223486543228    -0.154303034436     1.007825032230
         H           -0.486622326402     2.991832543228     0.009012965564     1.007825032230
         H            1.733702073598    -1.892721756772     1.028248865564     1.007825032230
         H            3.304808673598    -1.259467456772     0.497414965564     1.007825032230

  Basis Set: AUG-CC-PVTZ
    Blend: AUG-CC-PVTZ
  Basis Set: (AUG-CC-PVTZ AUX)
    Blend: AUG-CC-PVTZ-JKFIT
	 Reference Energy          =    -453.6853497434848350 [Eh]
	 Singles Energy            =      -0.0000000000000000 [Eh]
	 Same-Spin Energy          =      -0.4864069880438016 [Eh]
	 Opposite-Spin Energy      =      -1.4791211233347363 [Eh]
	 Correlation Energy        =      -1.9655281113785379 [Eh]
	 Total Energy              =    -455.6508778548633813 [Eh]

	 ================> DF-SCS-MP2 Energies <==================
	-----------------------------------------------------------
	 SCS Same-Spin Scale       =       0.3333333333333333 [-]
	 SCS Opposite-Spin Scale   =       1.2000000000000000 [-]
	 SCS Same-Spin Energy      =      -0.1621356626812672 [Eh]
	 SCS Opposite-Spin Energy  =      -1.7749453480016835 [Eh]
	 SCS Correlation Energy    =      -1.9370810106829506 [Eh]
	 SCS Total Energy          =    -455.6224307541677945 [Eh]
	-----------------------------------------------------------

  Dipole Moment: [D]
     X:    -1.2077      Y:    -1.3424      Z:     0.9997     Total:     2.0640

*** Psi4 exiting successfully. Buy a developer a beer!
