                               Psi4 1.4a3.dev225

  ==> Input File <==

--------------------------------------------------------------------------
#psi4
#
memory 32 gb

molecule  {
0 1
  O        2.3476870     0.7564740    -0.5170070
  N        0.1051940     2.2022940     0.2485340
  N        2.3184480    -1.3288730     0.3923020
  C        0.2041490    -0.2277810    -0.0328410
  C       -0.5292580     0.9782650     0.0721850
  C       -0.4780620    -1.4467680    -0.1744800
  C       -1.9322610     0.8976940     0.1244170
  C       -1.8678090    -1.5041600    -0.1507450
  C       -2.5929860    -0.3189550    -0.0016080
  C        1.6942170    -0.1960210    -0.0707790
  H        0.0963370    -2.3571300    -0.3293910
  H       -2.5048800     1.8176440     0.2323000
  H       -2.3796530    -2.4547020    -0.2729900
  H       -3.6801520    -0.3414970     0.0246030
  H        1.0340450     2.2328410    -0.1623240
  H       -0.4673770     3.0011870     0.0009920
  H        1.8426920    -1.9076120     1.0707290
  H        3.2248180    -1.2578853     0.4798127
units angstrom
no_reorient  #important for SAPT in psi4, default
symmetry c1  #important for SAPT in psi4, default
}

set PROPERTIES_ORIGIN ["COM"]
properties('MP2/aug-cc-pvtz', properties = ['dipole'])
--------------------------------------------------------------------------

    Molecular point group: c1
  Charge       = 0
  Multiplicity = 1
  Basis Set: AUG-CC-PVTZ
    Blend: AUG-CC-PVTZ
  Basis Set: (AUG-CC-PVTZ AUX)
    Blend: AUG-CC-PVTZ-JKFIT

    Orbital Energies [Eh]
    ---------------------

    Doubly Occupied:

       1A    -20.527546     2A    -15.578285     3A    -15.560407
       4A    -11.364398     5A    -11.297429     6A    -11.256252
       7A    -11.253558     8A    -11.244427     9A    -11.234850
      10A    -11.232413    11A     -1.382396    12A     -1.228471
      13A     -1.227438    14A     -1.138007    15A     -1.038592
      16A     -0.998982    17A     -0.882279    18A     -0.836362
      19A     -0.796861    20A     -0.743827    21A     -0.706513
      22A     -0.688271    23A     -0.681165    24A     -0.638592
      25A     -0.610784    26A     -0.605064    27A     -0.587249
      28A     -0.577351    29A     -0.539988    30A     -0.524032
      31A     -0.510427    32A     -0.455443    33A     -0.436724
      34A     -0.422507    35A     -0.352561    36A     -0.303530

  @DF-RHF Final Energy:  -453.67991350811587

   => Energetics <=

    Nuclear Repulsion Energy =            500.3720650784068766
    One-Electron Energy =               -1609.1779954090411593
    Two-Electron Energy =                 655.1260168225184088
    Total Energy =                       -453.6799135081158738
  Basis Set: (AUG-CC-PVTZ AUX)
    Blend: AUG-CC-PVTZ-RI
    Molecular point group: c1

    Geometry (in Angstrom), charge = 0, multiplicity = 1:

       Center              X                  Y                   Z               Mass
    ------------   -----------------  -----------------  -----------------  -----------------
         O            2.328511976502     0.747356693495    -0.509289127840    15.994914619570
         N            0.086018976502     2.193176693495     0.256251872160    14.003074004430
         N            2.299272976502    -1.337990306505     0.400019872160    14.003074004430
         C            0.184973976502    -0.236898306505    -0.025123127840    12.000000000000
         C           -0.548433023498     0.969147693495     0.079902872160    12.000000000000
         C           -0.497237023498    -1.455885306505    -0.166762127840    12.000000000000
         C           -1.951436023498     0.888576693495     0.132134872160    12.000000000000
         C           -1.886984023498    -1.513277306505    -0.143027127840    12.000000000000
         C           -2.612161023498    -0.328072306505     0.006109872160    12.000000000000
         C            1.675041976502    -0.205138306505    -0.063061127840    12.000000000000
         H            0.077161976502    -2.366247306505    -0.321673127840     1.007825032230
         H           -2.524055023498     1.808526693495     0.240017872160     1.007825032230
         H           -2.398828023498    -2.463819306505    -0.265272127840     1.007825032230
         H           -3.699327023498    -0.350614306505     0.032320872160     1.007825032230
         H            1.014869976502     2.223723693495    -0.154606127840     1.007825032230
         H           -0.486552023498     2.992069693495     0.008709872160     1.007825032230
         H            1.823516976502    -1.916729306505     1.078446872160     1.007825032230
         H            3.205642976502    -1.267002606505     0.487530572160     1.007825032230

  Basis Set: AUG-CC-PVTZ
    Blend: AUG-CC-PVTZ
  Basis Set: (AUG-CC-PVTZ AUX)
    Blend: AUG-CC-PVTZ-JKFIT
	 Reference Energy          =    -453.6799135081158738 [Eh]
	 Singles Energy            =      -0.0000000000000000 [Eh]
	 Same-Spin Energy          =      -0.4855707510763820 [Eh]
	 Opposite-Spin Energy      =      -1.4774216825208653 [Eh]
	 Correlation Energy        =      -1.9629924335972473 [Eh]
	 Total Energy              =    -455.6429059417131384 [Eh]

	 ================> DF-SCS-MP2 Energies <==================
	-----------------------------------------------------------
	 SCS Same-Spin Scale       =       0.3333333333333333 [-]
	 SCS Opposite-Spin Scale   =       1.2000000000000000 [-]
	 SCS Same-Spin Energy      =      -0.1618569170254607 [Eh]
	 SCS Opposite-Spin Energy  =      -1.7729060190250383 [Eh]
	 SCS Correlation Energy    =      -1.9347629360504990 [Eh]
	 SCS Total Energy          =    -455.6146764441663777 [Eh]
	-----------------------------------------------------------

  Dipole Moment: [D]
     X:    -1.2315      Y:    -1.3476      Z:     1.0532     Total:     2.1076

*** Psi4 exiting successfully. Buy a developer a beer!
