                               Psi4 1.4a3.dev225

  ==> Input File <==

--------------------------------------------------------------------------
#psi4
#
memory 32 gb

molecule  {
0 1
  O        2.3476870     0.7564740    -0.5170070
  N        0.1051940     2.2022940     0.2485340
  N        2.3184480    -1.3288730     0.3923020
  C        0.2041490    -0.2277810    -0.0328410
  C       -0.5292580     0.9782650     0.0721850
  C       -0.3808855    -1.2731314    -0.1543045
  C       -1.9322610     0.8976940     0.1244170
  C       -1.8678090    -1.5041600    -0.1507450
  C       -2.5929860    -0.3189550    -0.0016080
  C        1.6942170    -0.1960210    -0.0707790
  H        0.0963370    -2.3571300    -0.3293910
  H       -2.5048800     1.8176440     0.2323000
  H       -2.3796530    -2.4547020    -0.2729900
  H       -3.6801520    -0.3414970     0.0246030
  H        1.0340450     2.2328410    -0.1623240
  H       -0.4673770     3.0011870     0.0009920
  H        1.8426920    -1.9076120     1.0707290
  H        3.3240540    -1.2501130     0.4893940
units angstrom
no_reorient  #important for SAPT in psi4, default
symmetry c1  #important for SAPT in psi4, default
}

set PROPERTIES_ORIGIN ["COM"]
properties('MP2/aug-cc-pvtz', properties = ['dipole'])
--------------------------------------------------------------------------

    Molecular point group: c1
  Charge       = 0
  Multiplicity = 1
  Basis Set: AUG-CC-PVTZ
    Blend: AUG-CC-PVTZ
  Basis Set: (AUG-CC-PVTZ AUX)
    Blend: AUG-CC-PVTZ-JKFIT

    Orbital Energies [Eh]
    ---------------------

    Doubly Occupied:

       1A    -20.533038     2A    -15.591305     3A    -15.561387
       4A    -11.369306     5A    -11.297095     6A    -11.251754
       7A    -11.246799     8A    -11.235719     9A    -11.230956
      10A    -11.224518    11A     -1.386548    12A     -1.233270
      13A     -1.219480    14A     -1.151658    15A     -1.060194
      16A     -0.978541    17A     -0.871883    18A     -0.841249
      19A     -0.797191    20A     -0.744704    21A     -0.692872
      22A     -0.689003    23A     -0.674980    24A     -0.642685
      25A     -0.609032    26A     -0.599706    27A     -0.592776
      28A     -0.569747    29A     -0.543878    30A     -0.529442
      31A     -0.487586    32A     -0.456883    33A     -0.437231
      34A     -0.418431    35A     -0.379469    36A     -0.288995

  @DF-RHF Final Energy:  -453.62574658228914

   => Energetics <=

    Nuclear Repulsion Energy =            503.0384204604437173
    One-Electron Energy =               -1614.4497147145352756
    Two-Electron Energy =                 657.7855476718023056
    Total Energy =                       -453.6257465822891390
  Basis Set: (AUG-CC-PVTZ AUX)
    Blend: AUG-CC-PVTZ-RI
    Molecular point group: c1

    Geometry (in Angstrom), charge = 0, multiplicity = 1:

       Center              X                  Y                   Z               Mass
    ------------   -----------------  -----------------  -----------------  -----------------
         O            2.319206549189     0.731985416005    -0.511139454875    15.994914619570
         N            0.076713549189     2.177805416005     0.254401545125    14.003074004430
         N            2.289967549189    -1.353361583995     0.398169545125    14.003074004430
         C            0.175668549189    -0.252269583995    -0.026973454875    12.000000000000
         C           -0.557738450811     0.953776416005     0.078052545125    12.000000000000
         C           -0.409365950811    -1.297619983995    -0.148436954875    12.000000000000
         C           -1.960741450811     0.873205416005     0.130284545125    12.000000000000
         C           -1.896289450811    -1.528648583995    -0.144877454875    12.000000000000
         C           -2.621466450811    -0.343443583995     0.004259545125    12.000000000000
         C            1.665736549189    -0.220509583995    -0.064911454875    12.000000000000
         H            0.067856549189    -2.381618583995    -0.323523454875     1.007825032230
         H           -2.533360450811     1.793155416005     0.238167545125     1.007825032230
         H           -2.408133450811    -2.479190583995    -0.267122454875     1.007825032230
         H           -3.708632450811    -0.365985583995     0.030470545125     1.007825032230
         H            1.005564549189     2.208352416005    -0.156456454875     1.007825032230
         H           -0.495857450811     2.976698416005     0.006859545125     1.007825032230
         H            1.814211549189    -1.932100583995     1.076596545125     1.007825032230
         H            3.295573549189    -1.274601583995     0.495261545125     1.007825032230

  Basis Set: AUG-CC-PVTZ
    Blend: AUG-CC-PVTZ
  Basis Set: (AUG-CC-PVTZ AUX)
    Blend: AUG-CC-PVTZ-JKFIT
	 Reference Energy          =    -453.6257465822891390 [Eh]
	 Singles Energy            =      -0.0000000000000000 [Eh]
	 Same-Spin Energy          =      -0.4860238899958162 [Eh]
	 Opposite-Spin Energy      =      -1.4808133578448095 [Eh]
	 Correlation Energy        =      -1.9668372478406257 [Eh]
	 Total Energy              =    -455.5925838301297404 [Eh]

	 ================> DF-SCS-MP2 Energies <==================
	-----------------------------------------------------------
	 SCS Same-Spin Scale       =       0.3333333333333333 [-]
	 SCS Opposite-Spin Scale   =       1.2000000000000000 [-]
	 SCS Same-Spin Energy      =      -0.1620079633319387 [Eh]
	 SCS Opposite-Spin Energy  =      -1.7769760294137713 [Eh]
	 SCS Correlation Energy    =      -1.9389839927457100 [Eh]
	 SCS Total Energy          =    -455.5647305750348437 [Eh]
	-----------------------------------------------------------

  Dipole Moment: [D]
     X:    -0.8044      Y:    -1.3781      Z:     1.0614     Total:     1.9164

*** Psi4 exiting successfully. Buy a developer a beer!
