                               Psi4 1.4a3.dev225

  ==> Input File <==

--------------------------------------------------------------------------
#psi4
#
memory 32 gb

molecule  {
0 1
  O        2.3476870     0.7564740    -0.5170070
  N        0.1051940     2.2022940     0.2485340
  N        2.3184480    -1.3288730     0.3923020
  C        0.2041490    -0.2277810    -0.0328410
  C       -0.4096866     0.9351292     0.0014177
  C       -0.4780620    -1.4467680    -0.1744800
  C       -1.9322610     0.8976940     0.1244170
  C       -1.8678090    -1.5041600    -0.1507450
  C       -2.5929860    -0.3189550    -0.0016080
  C        1.6942170    -0.1960210    -0.0707790
  H        0.0963370    -2.3571300    -0.3293910
  H       -2.5048800     1.8176440     0.2323000
  H       -2.3796530    -2.4547020    -0.2729900
  H       -3.6801520    -0.3414970     0.0246030
  H        1.0340450     2.2328410    -0.1623240
  H       -0.4673770     3.0011870     0.0009920
  H        1.8426920    -1.9076120     1.0707290
  H        3.3240540    -1.2501130     0.4893940
units angstrom
no_reorient  #important for SAPT in psi4, default
symmetry c1  #important for SAPT in psi4, default
}

set PROPERTIES_ORIGIN ["COM"]
properties('MP2/aug-cc-pvtz', properties = ['dipole'])
--------------------------------------------------------------------------

    Molecular point group: c1
  Charge       = 0
  Multiplicity = 1
  Basis Set: AUG-CC-PVTZ
    Blend: AUG-CC-PVTZ
  Basis Set: (AUG-CC-PVTZ AUX)
    Blend: AUG-CC-PVTZ-JKFIT

    Orbital Energies [Eh]
    ---------------------

    Doubly Occupied:

       1A    -20.526708     2A    -15.587701     3A    -15.562015
       4A    -11.362237     5A    -11.297012     6A    -11.254073
       7A    -11.248846     8A    -11.246652     9A    -11.234122
      10A    -11.233888    11A     -1.381232    12A     -1.228842
      13A     -1.214469    14A     -1.138102    15A     -1.044306
      16A     -0.991762    17A     -0.868375    18A     -0.846819
      19A     -0.786274    20A     -0.737144    21A     -0.699779
      22A     -0.683451    23A     -0.676620    24A     -0.640760
      25A     -0.620218    26A     -0.595043    27A     -0.584640
      28A     -0.573076    29A     -0.535361    30A     -0.521550
      31A     -0.507729    32A     -0.456219    33A     -0.432279
      34A     -0.420169    35A     -0.356059    36A     -0.302263

  @DF-RHF Final Energy:  -453.66355943250619

   => Energetics <=

    Nuclear Repulsion Energy =            500.5498277890152394
    One-Electron Energy =               -1609.6351828464207756
    Two-Electron Energy =                 655.4217956248994597
    Total Energy =                       -453.6635594325061902
  Basis Set: (AUG-CC-PVTZ AUX)
    Blend: AUG-CC-PVTZ-RI
    Molecular point group: c1

    Geometry (in Angstrom), charge = 0, multiplicity = 1:

       Center              X                  Y                   Z               Mass
    ------------   -----------------  -----------------  -----------------  -----------------
         O            2.317231453162     0.751103443147    -0.503118844693    15.994914619570
         N            0.074738453162     2.196923443147     0.262422155307    14.003074004430
         N            2.287992453162    -1.334243556853     0.406190155307    14.003074004430
         C            0.173693453162    -0.233151556853    -0.018952844693    12.000000000000
         C           -0.440142146838     0.929758643147     0.015305855307    12.000000000000
         C           -0.508517546838    -1.452138556853    -0.160591844693    12.000000000000
         C           -1.962716546838     0.892323443147     0.138305155307    12.000000000000
         C           -1.898264546838    -1.509530556853    -0.136856844693    12.000000000000
         C           -2.623441546838    -0.324325556853     0.012280155307    12.000000000000
         C            1.663761453162    -0.201391556853    -0.056890844693    12.000000000000
         H            0.065881453162    -2.362500556853    -0.315502844693     1.007825032230
         H           -2.535335546838     1.812273443147     0.246188155307     1.007825032230
         H           -2.410108546838    -2.460072556853    -0.259101844693     1.007825032230
         H           -3.710607546838    -0.346867556853     0.038491155307     1.007825032230
         H            1.003589453162     2.227470443147    -0.148435844693     1.007825032230
         H           -0.497832546838     2.995816443147     0.014880155307     1.007825032230
         H            1.812236453162    -1.912982556853     1.084617155307     1.007825032230
         H            3.293598453162    -1.255483556853     0.503282155307     1.007825032230

  Basis Set: AUG-CC-PVTZ
    Blend: AUG-CC-PVTZ
  Basis Set: (AUG-CC-PVTZ AUX)
    Blend: AUG-CC-PVTZ-JKFIT
	 Reference Energy          =    -453.6635594325061902 [Eh]
	 Singles Energy            =      -0.0000000000000000 [Eh]
	 Same-Spin Energy          =      -0.4858908107674069 [Eh]
	 Opposite-Spin Energy      =      -1.4804879855104054 [Eh]
	 Correlation Energy        =      -1.9663787962778123 [Eh]
	 Total Energy              =    -455.6299382287839990 [Eh]

	 ================> DF-SCS-MP2 Energies <==================
	-----------------------------------------------------------
	 SCS Same-Spin Scale       =       0.3333333333333333 [-]
	 SCS Opposite-Spin Scale   =       1.2000000000000000 [-]
	 SCS Same-Spin Energy      =      -0.1619636035891356 [Eh]
	 SCS Opposite-Spin Energy  =      -1.7765855826124863 [Eh]
	 SCS Correlation Energy    =      -1.9385491862016220 [Eh]
	 SCS Total Energy          =    -455.6021086187078026 [Eh]
	-----------------------------------------------------------

  Dipole Moment: [D]
     X:    -1.1447      Y:    -1.3111      Z:     1.0520     Total:     2.0337

*** Psi4 exiting successfully. Buy a developer a beer!
