                               Psi4 1.4a3.dev225

  ==> Input File <==

--------------------------------------------------------------------------
#psi4
#
memory 32 gb

molecule  {
0 1
  O        2.3292329     0.7668091    -0.5214476
  N        0.1051940     2.2022940     0.2485340
  N        2.3184480    -1.3288730     0.3923020
  C        0.2041490    -0.2277810    -0.0328410
  C       -0.5292580     0.9782650     0.0721850
  C       -0.4780620    -1.4467680    -0.1744800
  C       -1.9322610     0.8976940     0.1244170
  C       -1.8678090    -1.5041600    -0.1507450
  C       -2.5929860    -0.3189550    -0.0016080
  C        1.6942170    -0.1960210    -0.0707790
  H        0.0963370    -2.3571300    -0.3293910
  H       -2.5048800     1.8176440     0.2323000
  H       -2.3796530    -2.4547020    -0.2729900
  H       -3.6801520    -0.3414970     0.0246030
  H        1.0340450     2.2328410    -0.1623240
  H       -0.4673770     3.0011870     0.0009920
  H        1.8426920    -1.9076120     1.0707290
  H        3.3240540    -1.2501130     0.4893940
units angstrom
no_reorient  #important for SAPT in psi4, default
symmetry c1  #important for SAPT in psi4, default
}

set PROPERTIES_ORIGIN ["COM"]
properties('MP2/aug-cc-pvtz', properties = ['dipole'])
--------------------------------------------------------------------------

    Molecular point group: c1
  Charge       = 0
  Multiplicity = 1
  Basis Set: AUG-CC-PVTZ
    Blend: AUG-CC-PVTZ
  Basis Set: (AUG-CC-PVTZ AUX)
    Blend: AUG-CC-PVTZ-JKFIT

    Orbital Energies [Eh]
    ---------------------

    Doubly Occupied:

       1A    -20.526954     2A    -15.589130     3A    -15.559165
       4A    -11.364137     5A    -11.296544     6A    -11.255339
       7A    -11.252746     8A    -11.243588     9A    -11.234135
      10A    -11.231661    11A     -1.380521    12A     -1.226368
      13A     -1.215860    14A     -1.136571    15A     -1.036061
      16A     -0.998039    17A     -0.876862    18A     -0.833373
      19A     -0.793313    20A     -0.736728    21A     -0.698689
      22A     -0.687360    23A     -0.674138    24A     -0.638373
      25A     -0.608622    26A     -0.603846    27A     -0.585776
      28A     -0.575360    29A     -0.539327    30A     -0.523026
      31A     -0.509553    32A     -0.454563    33A     -0.435784
      34A     -0.421592    35A     -0.351649    36A     -0.302627

  @DF-RHF Final Energy:  -453.68648726914461

   => Energetics <=

    Nuclear Repulsion Energy =            499.9524200882381706
    One-Electron Energy =               -1608.4830541140959212
    Two-Electron Energy =                 654.8441467567131440
    Total Energy =                       -453.6864872691446635
  Basis Set: (AUG-CC-PVTZ AUX)
    Blend: AUG-CC-PVTZ-RI
    Molecular point group: c1

    Geometry (in Angstrom), charge = 0, multiplicity = 1:

       Center              X                  Y                   Z               Mass
    ------------   -----------------  -----------------  -----------------  -----------------
         O            2.311492199412     0.756419285046    -0.513278683508    15.994914619570
         N            0.087453299412     2.191904185046     0.256702916492    14.003074004430
         N            2.300707299412    -1.339262814954     0.400470916492    14.003074004430
         C            0.186408299412    -0.238170814954    -0.024672083508    12.000000000000
         C           -0.546998700588     0.967875185046     0.080353916492    12.000000000000
         C           -0.495802700588    -1.457157814954    -0.166311083508    12.000000000000
         C           -1.950001700588     0.887304185046     0.132585916492    12.000000000000
         C           -1.885549700588    -1.514549814954    -0.142576083508    12.000000000000
         C           -2.610726700588    -0.329344814954     0.006560916492    12.000000000000
         C            1.676476299412    -0.206410814954    -0.062610083508    12.000000000000
         H            0.078596299412    -2.367519814954    -0.321222083508     1.007825032230
         H           -2.522620700588     1.807254185046     0.240468916492     1.007825032230
         H           -2.397393700588    -2.465091814954    -0.264821083508     1.007825032230
         H           -3.697892700588    -0.351886814954     0.032771916492     1.007825032230
         H            1.016304299412     2.222451185046    -0.154155083508     1.007825032230
         H           -0.485117700588     2.990797185046     0.009160916492     1.007825032230
         H            1.824951299412    -1.918001814954     1.078897916492     1.007825032230
         H            3.306313299412    -1.260502814954     0.497562916492     1.007825032230

  Basis Set: AUG-CC-PVTZ
    Blend: AUG-CC-PVTZ
  Basis Set: (AUG-CC-PVTZ AUX)
    Blend: AUG-CC-PVTZ-JKFIT
	 Reference Energy          =    -453.6864872691446067 [Eh]
	 Singles Energy            =      -0.0000000000000000 [Eh]
	 Same-Spin Energy          =      -0.4862622369796288 [Eh]
	 Opposite-Spin Energy      =      -1.4789699180667983 [Eh]
	 Correlation Energy        =      -1.9652321550464271 [Eh]
	 Total Energy              =    -455.6517194241910147 [Eh]

	 ================> DF-SCS-MP2 Energies <==================
	-----------------------------------------------------------
	 SCS Same-Spin Scale       =       0.3333333333333333 [-]
	 SCS Opposite-Spin Scale   =       1.2000000000000000 [-]
	 SCS Same-Spin Energy      =      -0.1620874123265429 [Eh]
	 SCS Opposite-Spin Energy  =      -1.7747639016801580 [Eh]
	 SCS Correlation Energy    =      -1.9368513140067010 [Eh]
	 SCS Total Energy          =    -455.6233385831512805 [Eh]
	-----------------------------------------------------------

  Dipole Moment: [D]
     X:    -1.0510      Y:    -1.3835      Z:     1.0702     Total:     2.0406

*** Psi4 exiting successfully. Buy a developer a beer!
