                               Psi4 1.4a3.dev225

  ==> Input File <==

--------------------------------------------------------------------------
#psi4
#
memory 32 gb

molecule  {
0 1
  O        2.3476870     0.7564740    -0.5170070
  N        0.1051940     2.2022940     0.2485340
  N        2.3184480    -1.3288730     0.3923020
  C        0.2041490    -0.2277810    -0.0328410
  C       -0.5292580     0.9782650     0.0721850
  C       -0.4780620    -1.4467680    -0.1744800
  C       -1.9322610     0.8976940     0.1244170
  C       -1.8678090    -1.5041600    -0.1507450
  C       -2.5929860    -0.3189550    -0.0016080
  C        1.6942170    -0.1960210    -0.0707790
  H        0.0963370    -2.3571300    -0.3293910
  H       -2.5048800     1.8176440     0.2323000
  H       -2.3796530    -2.4547020    -0.2729900
  H       -3.6801520    -0.3414970     0.0246030
  H        1.0340450     2.2328410    -0.1623240
  H       -0.4786750     3.0169508    -0.0038925
  H        1.8426920    -1.9076120     1.0707290
  H        3.3240540    -1.2501130     0.4893940
units angstrom
no_reorient  #important for SAPT in psi4, default
symmetry c1  #important for SAPT in psi4, default
}

set PROPERTIES_ORIGIN ["COM"]
properties('MP2/aug-cc-pvtz', properties = ['dipole'])
--------------------------------------------------------------------------

    Molecular point group: c1
  Charge       = 0
  Multiplicity = 1
  Basis Set: AUG-CC-PVTZ
    Blend: AUG-CC-PVTZ
  Basis Set: (AUG-CC-PVTZ AUX)
    Blend: AUG-CC-PVTZ-JKFIT

    Orbital Energies [Eh]
    ---------------------

    Doubly Occupied:

       1A    -20.526464     2A    -15.587713     3A    -15.562095
       4A    -11.363724     5A    -11.297177     6A    -11.255903
       7A    -11.253223     8A    -11.244378     9A    -11.234531
      10A    -11.232070    11A     -1.380239    12A     -1.225495
      13A     -1.214192    14A     -1.136365    15A     -1.036547
      16A     -0.997857    17A     -0.877243    18A     -0.832976
      19A     -0.792834    20A     -0.736143    21A     -0.697412
      22A     -0.687546    23A     -0.671969    24A     -0.637869
      25A     -0.608315    26A     -0.603804    27A     -0.585590
      28A     -0.575264    29A     -0.539404    30A     -0.523419
      31A     -0.509908    32A     -0.454922    33A     -0.435687
      34A     -0.420488    35A     -0.352195    36A     -0.303085

  @DF-RHF Final Energy:  -453.68563714445713

   => Energetics <=

    Nuclear Repulsion Energy =            499.6422271357548652
    One-Electron Energy =               -1607.8676311778997388
    Two-Electron Energy =                 654.5397668976877412
    Total Energy =                       -453.6856371444571323
  Basis Set: (AUG-CC-PVTZ AUX)
    Blend: AUG-CC-PVTZ-RI
    Molecular point group: c1

    Geometry (in Angstrom), charge = 0, multiplicity = 1:

       Center              X                  Y                   Z               Mass
    ------------   -----------------  -----------------  -----------------  -----------------
         O            2.327860618778     0.747182361346    -0.509323917088    15.994914619570
         N            0.085367618778     2.193002361346     0.256217082912    14.003074004430
         N            2.298621618778    -1.338164638654     0.399985082912    14.003074004430
         C            0.184322618778    -0.237072638654    -0.025157917088    12.000000000000
         C           -0.549084381222     0.968973361346     0.079868082912    12.000000000000
         C           -0.497888381222    -1.456059638654    -0.166796917088    12.000000000000
         C           -1.952087381222     0.888402361346     0.132100082912    12.000000000000
         C           -1.887635381222    -1.513451638654    -0.143061917088    12.000000000000
         C           -2.612812381222    -0.328246638654     0.006075082912    12.000000000000
         C            1.674390618778    -0.205312638654    -0.063095917088    12.000000000000
         H            0.076510618778    -2.366421638654    -0.321707917088     1.007825032230
         H           -2.524706381222     1.808352361346     0.239983082912     1.007825032230
         H           -2.399479381222    -2.463993638654    -0.265306917088     1.007825032230
         H           -3.699978381222    -0.350788638654     0.032286082912     1.007825032230
         H            1.014218618778     2.223549361346    -0.154640917088     1.007825032230
         H           -0.498501381222     3.007659161346     0.003790582912     1.007825032230
         H            1.822865618778    -1.916903638654     1.078412082912     1.007825032230
         H            3.304227618778    -1.259404638654     0.497077082912     1.007825032230

  Basis Set: AUG-CC-PVTZ
    Blend: AUG-CC-PVTZ
  Basis Set: (AUG-CC-PVTZ AUX)
    Blend: AUG-CC-PVTZ-JKFIT
	 Reference Energy          =    -453.6856371444571323 [Eh]
	 Singles Energy            =      -0.0000000000000000 [Eh]
	 Same-Spin Energy          =      -0.4863085119807756 [Eh]
	 Opposite-Spin Energy      =      -1.4792502672741739 [Eh]
	 Correlation Energy        =      -1.9655587792549494 [Eh]
	 Total Energy              =    -455.6511959237120664 [Eh]

	 ================> DF-SCS-MP2 Energies <==================
	-----------------------------------------------------------
	 SCS Same-Spin Scale       =       0.3333333333333333 [-]
	 SCS Opposite-Spin Scale   =       1.2000000000000000 [-]
	 SCS Same-Spin Energy      =      -0.1621028373269252 [Eh]
	 SCS Opposite-Spin Energy  =      -1.7751003207290086 [Eh]
	 SCS Correlation Energy    =      -1.9372031580559337 [Eh]
	 SCS Total Energy          =    -455.6228403025130547 [Eh]
	-----------------------------------------------------------

  Dipole Moment: [D]
     X:    -1.1332      Y:    -1.3445      Z:     1.0596     Total:     2.0529

*** Psi4 exiting successfully. Buy a developer a beer!
