                               Psi4 1.4a3.dev225

  ==> Input File <==

--------------------------------------------------------------------------
#psi4
#
memory 32 gb

molecule  {
0 1
  O        2.3476870     0.7564740    -0.5170070
  N        0.1051940     2.2022940     0.2485340
  N        2.3184480    -1.3288730     0.3923020
  C        0.2041490    -0.2277810    -0.0328410
  C       -0.5292580     0.9782650     0.0721850
  C       -0.4780620    -1.4467680    -0.1744800
  C       -1.9322610     0.8976940     0.1244170
  C       -1.8887574    -1.5166240    -0.1515595
  C       -2.5929860    -0.3189550    -0.0016080
  C        1.6942170    -0.1960210    -0.0707790
  H        0.0963370    -2.3571300    -0.3293910
  H       -2.5048800     1.8176440     0.2323000
  H       -2.3796530    -2.4547020    -0.2729900
  H       -3.6801520    -0.3414970     0.0246030
  H        1.0340450     2.2328410    -0.1623240
  H       -0.4673770     3.0011870     0.0009920
  H        1.8426920    -1.9076120     1.0707290
  H        3.3240540    -1.2501130     0.4893940
units angstrom
no_reorient  #important for SAPT in psi4, default
symmetry c1  #important for SAPT in psi4, default
}

set PROPERTIES_ORIGIN ["COM"]
properties('MP2/aug-cc-pvtz', properties = ['dipole'])
--------------------------------------------------------------------------

    Molecular point group: c1
  Charge       = 0
  Multiplicity = 1
  Basis Set: AUG-CC-PVTZ
    Blend: AUG-CC-PVTZ
  Basis Set: (AUG-CC-PVTZ AUX)
    Blend: AUG-CC-PVTZ-JKFIT

    Orbital Energies [Eh]
    ---------------------

    Doubly Occupied:

       1A    -20.526885     2A    -15.587947     3A    -15.560348
       4A    -11.364216     5A    -11.297489     6A    -11.258857
       7A    -11.253145     8A    -11.245202     9A    -11.234014
      10A    -11.232564    11A     -1.380641    12A     -1.227185
      13A     -1.214485    14A     -1.134932    15A     -1.036510
      16A     -0.997540    17A     -0.876101    18A     -0.834847
      19A     -0.793789    20A     -0.737105    21A     -0.698226
      22A     -0.687518    23A     -0.674515    24A     -0.640203
      25A     -0.609262    26A     -0.602164    27A     -0.586578
      28A     -0.574910    29A     -0.540844    30A     -0.522866
      31A     -0.511173    32A     -0.453680    33A     -0.436041
      34A     -0.420664    35A     -0.352201    36A     -0.302441

  @DF-RHF Final Energy:  -453.68575871999093

   => Energetics <=

    Nuclear Repulsion Energy =            499.3111698670745682
    One-Electron Energy =               -1607.1796837539043281
    Two-Electron Energy =                 654.1827551668387741
    Total Energy =                       -453.6857587199909858
  Basis Set: (AUG-CC-PVTZ AUX)
    Blend: AUG-CC-PVTZ-RI
    Molecular point group: c1

    Geometry (in Angstrom), charge = 0, multiplicity = 1:

       Center              X                  Y                   Z               Mass
    ------------   -----------------  -----------------  -----------------  -----------------
         O            2.329624457761     0.748398374121    -0.509288262612    15.994914619570
         N            0.087131457761     2.194218374121     0.256252737388    14.003074004430
         N            2.300385457761    -1.336948625879     0.400020737388    14.003074004430
         C            0.186086457761    -0.235856625879    -0.025122262612    12.000000000000
         C           -0.547320542239     0.970189374121     0.079903737388    12.000000000000
         C           -0.496124542239    -1.454843625879    -0.166761262612    12.000000000000
         C           -1.950323542239     0.889618374121     0.132135737388    12.000000000000
         C           -1.906819942239    -1.524699625879    -0.143840762612    12.000000000000
         C           -2.611048542239    -0.327030625879     0.006110737388    12.000000000000
         C            1.676154457761    -0.204096625879    -0.063060262612    12.000000000000
         H            0.078274457761    -2.365205625879    -0.321672262612     1.007825032230
         H           -2.522942542239     1.809568374121     0.240018737388     1.007825032230
         H           -2.397715542239    -2.462777625879    -0.265271262612     1.007825032230
         H           -3.698214542239    -0.349572625879     0.032321737388     1.007825032230
         H            1.015982457761     2.224765374121    -0.154605262612     1.007825032230
         H           -0.485439542239     2.993111374121     0.008710737388     1.007825032230
         H            1.824629457761    -1.915687625879     1.078447737388     1.007825032230
         H            3.305991457761    -1.258188625879     0.497112737388     1.007825032230

  Basis Set: AUG-CC-PVTZ
    Blend: AUG-CC-PVTZ
  Basis Set: (AUG-CC-PVTZ AUX)
    Blend: AUG-CC-PVTZ-JKFIT
	 Reference Energy          =    -453.6857587199909290 [Eh]
	 Singles Energy            =      -0.0000000000000000 [Eh]
	 Same-Spin Energy          =      -0.4861377933775116 [Eh]
	 Opposite-Spin Energy      =      -1.4789993654854818 [Eh]
	 Correlation Energy        =      -1.9651371588629933 [Eh]
	 Total Energy              =    -455.6508958788539303 [Eh]

	 ================> DF-SCS-MP2 Energies <==================
	-----------------------------------------------------------
	 SCS Same-Spin Scale       =       0.3333333333333333 [-]
	 SCS Opposite-Spin Scale   =       1.2000000000000000 [-]
	 SCS Same-Spin Energy      =      -0.1620459311258372 [Eh]
	 SCS Opposite-Spin Energy  =      -1.7747992385825782 [Eh]
	 SCS Correlation Energy    =      -1.9368451697084152 [Eh]
	 SCS Total Energy          =    -455.6226038896993487 [Eh]
	-----------------------------------------------------------

  Dipole Moment: [D]
     X:    -1.1077      Y:    -1.3596      Z:     1.0595     Total:     2.0489

*** Psi4 exiting successfully. Buy a developer a beer!
