                               Psi4 1.4a3.dev225

  ==> Input File <==

--------------------------------------------------------------------------
#psi4
#
memory 32 gb

molecule  {
0 1
  O        2.3476870     0.7564740    -0.5170070
  N        0.1051940     2.2022940     0.2485340
  N        2.3184480    -1.3288730     0.3923020
  C        0.2041490    -0.2277810    -0.0328410
  C       -0.5292580     0.9782650     0.0721850
  C       -0.4780620    -1.4467680    -0.1744800
  C       -1.9322610     0.8976940     0.1244170
  C       -1.8678090    -1.5041600    -0.1507450
  C       -2.5929860    -0.3189550    -0.0016080
  C        1.6942170    -0.1960210    -0.0707790
  H        0.0963370    -2.3571300    -0.3293910
  H       -2.5048800     1.8176440     0.2323000
  H       -2.3796530    -2.4547020    -0.2729900
  H       -3.6801520    -0.3414970     0.0246030
  H        1.0157627     2.2322398    -0.1542372
  H       -0.4673770     3.0011870     0.0009920
  H        1.8426920    -1.9076120     1.0707290
  H        3.3240540    -1.2501130     0.4893940
units angstrom
no_reorient  #important for SAPT in psi4, default
symmetry c1  #important for SAPT in psi4, default
}

set PROPERTIES_ORIGIN ["COM"]
properties('MP2/aug-cc-pvtz', properties = ['dipole'])
--------------------------------------------------------------------------

    Molecular point group: c1
  Charge       = 0
  Multiplicity = 1
  Basis Set: AUG-CC-PVTZ
    Blend: AUG-CC-PVTZ
  Basis Set: (AUG-CC-PVTZ AUX)
    Blend: AUG-CC-PVTZ-JKFIT

    Orbital Energies [Eh]
    ---------------------

    Doubly Occupied:

       1A    -20.526170     2A    -15.587554     3A    -15.558810
       4A    -11.363472     5A    -11.297294     6A    -11.255981
       7A    -11.253357     8A    -11.244521     9A    -11.234767
      10A    -11.232275    11A     -1.379891    12A     -1.229264
      13A     -1.214100    14A     -1.137912    15A     -1.036702
      16A     -0.999469    17A     -0.877621    18A     -0.834015
      19A     -0.793388    20A     -0.736508    21A     -0.699104
      22A     -0.690548    23A     -0.673923    24A     -0.638219
      25A     -0.609210    26A     -0.604851    27A     -0.587351
      28A     -0.575217    29A     -0.539500    30A     -0.523697
      31A     -0.510132    32A     -0.455595    33A     -0.435824
      34A     -0.420257    35A     -0.352277    36A     -0.303612

  @DF-RHF Final Energy:  -453.68705493260705

   => Energetics <=

    Nuclear Repulsion Energy =            499.8424911903283032
    One-Electron Energy =               -1608.2343187401454543
    Two-Electron Energy =                 654.7047726172102102
    Total Energy =                       -453.6870549326069977
  Basis Set: (AUG-CC-PVTZ AUX)
    Blend: AUG-CC-PVTZ-RI
    Molecular point group: c1

    Geometry (in Angstrom), charge = 0, multiplicity = 1:

       Center              X                  Y                   Z               Mass
    ------------   -----------------  -----------------  -----------------  -----------------
         O            2.327912351564     0.747303577079    -0.509419995649    15.994914619570
         N            0.085419351564     2.193123577079     0.256121004351    14.003074004430
         N            2.298673351564    -1.338043422921     0.399889004351    14.003074004430
         C            0.184374351564    -0.236951422921    -0.025253995649    12.000000000000
         C           -0.549032648436     0.969094577079     0.079772004351    12.000000000000
         C           -0.497836648436    -1.455938422921    -0.166892995649    12.000000000000
         C           -1.952035648436     0.888523577079     0.132004004351    12.000000000000
         C           -1.887583648436    -1.513330422921    -0.143157995649    12.000000000000
         C           -2.612760648436    -0.328125422921     0.005979004351    12.000000000000
         C            1.674442351564    -0.205191422921    -0.063191995649    12.000000000000
         H            0.076562351564    -2.366300422921    -0.321803995649     1.007825032230
         H           -2.524654648436     1.808473577079     0.239887004351     1.007825032230
         H           -2.399427648436    -2.463872422921    -0.265402995649     1.007825032230
         H           -3.699926648436    -0.350667422921     0.032190004351     1.007825032230
         H            0.995988051564     2.223069377079    -0.146650195649     1.007825032230
         H           -0.487151648436     2.992016577079     0.008579004351     1.007825032230
         H            1.822917351564    -1.916782422921     1.078316004351     1.007825032230
         H            3.304279351564    -1.259283422921     0.496981004351     1.007825032230

  Basis Set: AUG-CC-PVTZ
    Blend: AUG-CC-PVTZ
  Basis Set: (AUG-CC-PVTZ AUX)
    Blend: AUG-CC-PVTZ-JKFIT
	 Reference Energy          =    -453.6870549326070545 [Eh]
	 Singles Energy            =      -0.0000000000000000 [Eh]
	 Same-Spin Energy          =      -0.4860021676855106 [Eh]
	 Opposite-Spin Energy      =      -1.4785338481381824 [Eh]
	 Correlation Energy        =      -1.9645360158236931 [Eh]
	 Total Energy              =    -455.6515909484307372 [Eh]

	 ================> DF-SCS-MP2 Energies <==================
	-----------------------------------------------------------
	 SCS Same-Spin Scale       =       0.3333333333333333 [-]
	 SCS Opposite-Spin Scale   =       1.2000000000000000 [-]
	 SCS Same-Spin Energy      =      -0.1620007225618369 [Eh]
	 SCS Opposite-Spin Energy  =      -1.7742406177658190 [Eh]
	 SCS Correlation Energy    =      -1.9362413403276559 [Eh]
	 SCS Total Energy          =    -455.6232962729347378 [Eh]
	-----------------------------------------------------------

  Dipole Moment: [D]
     X:    -1.1564      Y:    -1.3501      Z:     1.0678     Total:     2.0737

*** Psi4 exiting successfully. Buy a developer a beer!
