                               Psi4 1.4a3.dev225

  ==> Input File <==

--------------------------------------------------------------------------
#psi4
#
memory 32 gb

molecule  {
0 1
  O        2.3105854     0.7768508    -0.5257510
  N        0.1051940     2.2022940     0.2485340
  N        2.3184480    -1.3288730     0.3923020
  C        0.2041490    -0.2277810    -0.0328410
  C       -0.5292580     0.9782650     0.0721850
  C       -0.4780620    -1.4467680    -0.1744800
  C       -1.9322610     0.8976940     0.1244170
  C       -1.8678090    -1.5041600    -0.1507450
  C       -2.5929860    -0.3189550    -0.0016080
  C        1.6942170    -0.1960210    -0.0707790
  H        0.0963370    -2.3571300    -0.3293910
  H       -2.5048800     1.8176440     0.2323000
  H       -2.3796530    -2.4547020    -0.2729900
  H       -3.6801520    -0.3414970     0.0246030
  H        1.0340450     2.2328410    -0.1623240
  H       -0.4673770     3.0011870     0.0009920
  H        1.8426920    -1.9076120     1.0707290
  H        3.3240540    -1.2501130     0.4893940
units angstrom
no_reorient  #important for SAPT in psi4, default
symmetry c1  #important for SAPT in psi4, default
}

set PROPERTIES_ORIGIN ["COM"]
properties('MP2/aug-cc-pvtz', properties = ['dipole'])
--------------------------------------------------------------------------

    Molecular point group: c1
  Charge       = 0
  Multiplicity = 1
  Basis Set: AUG-CC-PVTZ
    Blend: AUG-CC-PVTZ
  Basis Set: (AUG-CC-PVTZ AUX)
    Blend: AUG-CC-PVTZ-JKFIT

    Orbital Energies [Eh]
    ---------------------

    Doubly Occupied:

       1A    -20.527425     2A    -15.590524     3A    -15.558229
       4A    -11.364548     5A    -11.295907     6A    -11.254741
       7A    -11.252209     8A    -11.242796     9A    -11.233661
      10A    -11.231190    11A     -1.380835    12A     -1.225543
      13A     -1.217445    14A     -1.136049    15A     -1.035491
      16A     -0.997499    17A     -0.876416    18A     -0.832957
      19A     -0.793756    20A     -0.737083    21A     -0.698533
      22A     -0.686787    23A     -0.674704    24A     -0.638825
      25A     -0.608214    26A     -0.603534    27A     -0.585186
      28A     -0.575398    29A     -0.539174    30A     -0.522531
      31A     -0.509075    32A     -0.453985    33A     -0.435807
      34A     -0.422615    35A     -0.351064    36A     -0.302005

  @DF-RHF Final Energy:  -453.68610649034724

   => Energetics <=

    Nuclear Repulsion Energy =            500.1567551903193021
    One-Electron Energy =               -1608.9022403838598620
    Two-Electron Energy =                 655.0593787031933743
    Total Energy =                       -453.6861064903472425
  Basis Set: (AUG-CC-PVTZ AUX)
    Blend: AUG-CC-PVTZ-RI
    Molecular point group: c1

    Geometry (in Angstrom), charge = 0, multiplicity = 1:

       Center              X                  Y                   Z               Mass
    ------------   -----------------  -----------------  -----------------  -----------------
         O            2.295036799522     0.765280536639    -0.517076198879    15.994914619570
         N            0.089645399522     2.190723736639     0.257208801121    14.003074004430
         N            2.302899399522    -1.340443263361     0.400976801121    14.003074004430
         C            0.188600399522    -0.239351263361    -0.024166198879    12.000000000000
         C           -0.544806600478     0.966694736639     0.080859801121    12.000000000000
         C           -0.493610600478    -1.458338263361    -0.165805198879    12.000000000000
         C           -1.947809600478     0.886123736639     0.133091801121    12.000000000000
         C           -1.883357600478    -1.515730263361    -0.142070198879    12.000000000000
         C           -2.608534600478    -0.330525263361     0.007066801121    12.000000000000
         C            1.678668399522    -0.207591263361    -0.062104198879    12.000000000000
         H            0.080788399522    -2.368700263361    -0.320716198879     1.007825032230
         H           -2.520428600478     1.806073736639     0.240974801121     1.007825032230
         H           -2.395201600478    -2.466272263361    -0.264315198879     1.007825032230
         H           -3.695700600478    -0.353067263361     0.033277801121     1.007825032230
         H            1.018496399522     2.221270736639    -0.153649198879     1.007825032230
         H           -0.482925600478     2.989616736639     0.009666801121     1.007825032230
         H            1.827143399522    -1.919182263361     1.079403801121     1.007825032230
         H            3.308505399522    -1.261683263361     0.498068801121     1.007825032230

  Basis Set: AUG-CC-PVTZ
    Blend: AUG-CC-PVTZ
  Basis Set: (AUG-CC-PVTZ AUX)
    Blend: AUG-CC-PVTZ-JKFIT
	 Reference Energy          =    -453.6861064903472425 [Eh]
	 Singles Energy            =      -0.0000000000000000 [Eh]
	 Same-Spin Energy          =      -0.4863485632105530 [Eh]
	 Opposite-Spin Energy      =      -1.4790647768629530 [Eh]
	 Correlation Energy        =      -1.9654133400735061 [Eh]
	 Total Energy              =    -455.6515198304207388 [Eh]

	 ================> DF-SCS-MP2 Energies <==================
	-----------------------------------------------------------
	 SCS Same-Spin Scale       =       0.3333333333333333 [-]
	 SCS Opposite-Spin Scale   =       1.2000000000000000 [-]
	 SCS Same-Spin Energy      =      -0.1621161877368510 [Eh]
	 SCS Opposite-Spin Energy  =      -1.7748777322355436 [Eh]
	 SCS Correlation Energy    =      -1.9369939199723947 [Eh]
	 SCS Total Energy          =    -455.6231004103196369 [Eh]
	-----------------------------------------------------------

  Dipole Moment: [D]
     X:    -0.9727      Y:    -1.4113      Z:     1.0785     Total:     2.0251

*** Psi4 exiting successfully. Buy a developer a beer!
