                               Psi4 1.4a3.dev225

  ==> Input File <==

--------------------------------------------------------------------------
#psi4
#
memory 32 gb

molecule  {
0 1
  O        2.3476870     0.7564740    -0.5170070
  N        0.1051940     2.2022940     0.2485340
  N        2.3184480    -1.3288730     0.3923020
  C        0.2041490    -0.2277810    -0.0328410
  C       -0.5292580     0.9782650     0.0721850
  C       -0.5023561    -1.4901772    -0.1795239
  C       -1.9322610     0.8976940     0.1244170
  C       -1.8678090    -1.5041600    -0.1507450
  C       -2.5929860    -0.3189550    -0.0016080
  C        1.6942170    -0.1960210    -0.0707790
  H        0.0963370    -2.3571300    -0.3293910
  H       -2.5048800     1.8176440     0.2323000
  H       -2.3796530    -2.4547020    -0.2729900
  H       -3.6801520    -0.3414970     0.0246030
  H        1.0340450     2.2328410    -0.1623240
  H       -0.4673770     3.0011870     0.0009920
  H        1.8426920    -1.9076120     1.0707290
  H        3.3240540    -1.2501130     0.4893940
units angstrom
no_reorient  #important for SAPT in psi4, default
symmetry c1  #important for SAPT in psi4, default
}

set PROPERTIES_ORIGIN ["COM"]
properties('MP2/aug-cc-pvtz', properties = ['dipole'])
--------------------------------------------------------------------------

    Molecular point group: c1
  Charge       = 0
  Multiplicity = 1
  Basis Set: AUG-CC-PVTZ
    Blend: AUG-CC-PVTZ
  Basis Set: (AUG-CC-PVTZ AUX)
    Blend: AUG-CC-PVTZ-JKFIT

    Orbital Energies [Eh]
    ---------------------

    Doubly Occupied:

       1A    -20.524905     2A    -15.586832     3A    -15.560003
       4A    -11.362369     5A    -11.297310     6A    -11.255690
       7A    -11.254849     8A    -11.246030     9A    -11.237266
      10A    -11.231298    11A     -1.378760    12A     -1.226572
      13A     -1.212965    14A     -1.136324    15A     -1.031199
      16A     -1.003094    17A     -0.879247    18A     -0.833133
      19A     -0.791072    20A     -0.734165    21A     -0.700931
      22A     -0.688354    23A     -0.672878    24A     -0.636468
      25A     -0.612737    26A     -0.606395    27A     -0.583270
      28A     -0.574803    29A     -0.538402    30A     -0.524366
      31A     -0.508651    32A     -0.456002    33A     -0.434201
      34A     -0.419980    35A     -0.347300    36A     -0.306669

  @DF-RHF Final Energy:  -453.68362436929152

   => Energetics <=

    Nuclear Repulsion Energy =            499.0436492084824067
    One-Electron Energy =               -1606.6655655698918963
    Two-Electron Energy =                 653.9382919921181383
    Total Energy =                       -453.6836243692914650
  Basis Set: (AUG-CC-PVTZ AUX)
    Blend: AUG-CC-PVTZ-RI
    Molecular point group: c1

    Geometry (in Angstrom), charge = 0, multiplicity = 1:

       Center              X                  Y                   Z               Mass
    ------------   -----------------  -----------------  -----------------  -----------------
         O            2.329919528460     0.751127555389    -0.508915254868    15.994914619570
         N            0.087426528460     2.196947555389     0.256625745132    14.003074004430
         N            2.300680528460    -1.334219444611     0.400393745132    14.003074004430
         C            0.186381528460    -0.233127444611    -0.024749254868    12.000000000000
         C           -0.547025471540     0.972918555389     0.080276745132    12.000000000000
         C           -0.520123571540    -1.495523644611    -0.171432154868    12.000000000000
         C           -1.950028471540     0.892347555389     0.132508745132    12.000000000000
         C           -1.885576471540    -1.509506444611    -0.142653254868    12.000000000000
         C           -2.610753471540    -0.324301444611     0.006483745132    12.000000000000
         C            1.676449528460    -0.201367444611    -0.062687254868    12.000000000000
         H            0.078569528460    -2.362476444611    -0.321299254868     1.007825032230
         H           -2.522647471540     1.812297555389     0.240391745132     1.007825032230
         H           -2.397420471540    -2.460048444611    -0.264898254868     1.007825032230
         H           -3.697919471540    -0.346843444611     0.032694745132     1.007825032230
         H            1.016277528460     2.227494555389    -0.154232254868     1.007825032230
         H           -0.485144471540     2.995840555389     0.009083745132     1.007825032230
         H            1.824924528460    -1.912958444611     1.078820745132     1.007825032230
         H            3.306286528460    -1.255459444611     0.497485745132     1.007825032230

  Basis Set: AUG-CC-PVTZ
    Blend: AUG-CC-PVTZ
  Basis Set: (AUG-CC-PVTZ AUX)
    Blend: AUG-CC-PVTZ-JKFIT
	 Reference Energy          =    -453.6836243692915218 [Eh]
	 Singles Energy            =      -0.0000000000000000 [Eh]
	 Same-Spin Energy          =      -0.4860744965945258 [Eh]
	 Opposite-Spin Energy      =      -1.4790417920559511 [Eh]
	 Correlation Energy        =      -1.9651162886504769 [Eh]
	 Total Energy              =    -455.6487406579419712 [Eh]

	 ================> DF-SCS-MP2 Energies <==================
	-----------------------------------------------------------
	 SCS Same-Spin Scale       =       0.3333333333333333 [-]
	 SCS Opposite-Spin Scale   =       1.2000000000000000 [-]
	 SCS Same-Spin Energy      =      -0.1620248321981753 [Eh]
	 SCS Opposite-Spin Energy  =      -1.7748501504671412 [Eh]
	 SCS Correlation Energy    =      -1.9368749826653164 [Eh]
	 SCS Total Energy          =    -455.6204993519568234 [Eh]
	-----------------------------------------------------------

  Dipole Moment: [D]
     X:    -1.1948      Y:    -1.3490      Z:     1.0619     Total:     2.0917

*** Psi4 exiting successfully. Buy a developer a beer!
