                               Psi4 1.4a3.dev225

  ==> Input File <==

--------------------------------------------------------------------------
#psi4
#
memory 32 gb

molecule  {
0 1
  O        2.3476870     0.7564740    -0.5170070
  N        0.1051940     2.2022940     0.2485340
  N        2.3184480    -1.3288730     0.3923020
  C        0.2041490    -0.2277810    -0.0328410
  C       -0.5292580     0.9782650     0.0721850
  C       -0.4780620    -1.4467680    -0.1744800
  C       -1.9322610     0.8976940     0.1244170
  C       -1.8678090    -1.5041600    -0.1507450
  C       -2.5929860    -0.3189550    -0.0016080
  C        1.6942170    -0.1960210    -0.0707790
  H        0.0963370    -2.3571300    -0.3293910
  H       -2.5048800     1.8176440     0.2323000
  H       -2.3796530    -2.4547020    -0.2729900
  H       -3.6801520    -0.3414970     0.0246030
  H        1.1254565     2.2358472    -0.2027580
  H       -0.4673770     3.0011870     0.0009920
  H        1.8426920    -1.9076120     1.0707290
  H        3.3240540    -1.2501130     0.4893940
units angstrom
no_reorient  #important for SAPT in psi4, default
symmetry c1  #important for SAPT in psi4, default
}

set PROPERTIES_ORIGIN ["COM"]
properties('MP2/aug-cc-pvtz', properties = ['dipole'])
--------------------------------------------------------------------------

    Molecular point group: c1
  Charge       = 0
  Multiplicity = 1
  Basis Set: AUG-CC-PVTZ
    Blend: AUG-CC-PVTZ
  Basis Set: (AUG-CC-PVTZ AUX)
    Blend: AUG-CC-PVTZ-JKFIT

    Orbital Energies [Eh]
    ---------------------

    Doubly Occupied:

       1A    -20.528288     2A    -15.588742     3A    -15.565059
       4A    -11.365264     5A    -11.296504     6A    -11.255663
       7A    -11.252852     8A    -11.243687     9A    -11.233740
      10A    -11.231350    11A     -1.382317    12A     -1.219176
      13A     -1.214634    14A     -1.133205    15A     -1.036229
      16A     -0.994574    17A     -0.876027    18A     -0.832714
      19A     -0.791064    20A     -0.736082    21A     -0.697953
      22A     -0.679206    23A     -0.669521    24A     -0.636729
      25A     -0.608293    26A     -0.601141    27A     -0.579339
      28A     -0.574891    29A     -0.539365    30A     -0.522501
      31A     -0.509446    32A     -0.452815    33A     -0.435003
      34A     -0.421872    35A     -0.351966    36A     -0.301277

  @DF-RHF Final Energy:  -453.67648702676405

   => Energetics <=

    Nuclear Repulsion Energy =            499.3622029326991196
    One-Electron Energy =               -1607.3604057759469015
    Two-Electron Energy =                 654.3217158164836746
    Total Energy =                       -453.6764870267641072
  Basis Set: (AUG-CC-PVTZ AUX)
    Blend: AUG-CC-PVTZ-RI
    Molecular point group: c1

    Geometry (in Angstrom), charge = 0, multiplicity = 1:

       Center              X                  Y                   Z               Mass
    ------------   -----------------  -----------------  -----------------  -----------------
         O            2.327099848394     0.747276857028    -0.509060601555    15.994914619570
         N            0.084606848394     2.193096857028     0.256480398445    14.003074004430
         N            2.297860848394    -1.338070142972     0.400248398445    14.003074004430
         C            0.183561848394    -0.236978142972    -0.024894601555    12.000000000000
         C           -0.549845151606     0.969067857028     0.080131398445    12.000000000000
         C           -0.498649151606    -1.455965142972    -0.166533601555    12.000000000000
         C           -1.952848151606     0.888496857028     0.132363398445    12.000000000000
         C           -1.888396151606    -1.513357142972    -0.142798601555    12.000000000000
         C           -2.613573151606    -0.328152142972     0.006338398445    12.000000000000
         C            1.673629848394    -0.205218142972    -0.062832601555    12.000000000000
         H            0.075749848394    -2.366327142972    -0.321444601555     1.007825032230
         H           -2.525467151606     1.808446857028     0.240246398445     1.007825032230
         H           -2.400240151606    -2.463899142972    -0.265043601555     1.007825032230
         H           -3.700739151606    -0.350694142972     0.032549398445     1.007825032230
         H            1.104869348394     2.226650057028    -0.194811601555     1.007825032230
         H           -0.487964151606     2.991989857028     0.008938398445     1.007825032230
         H            1.822104848394    -1.916809142972     1.078675398445     1.007825032230
         H            3.303466848394    -1.259310142972     0.497340398445     1.007825032230

  Basis Set: AUG-CC-PVTZ
    Blend: AUG-CC-PVTZ
  Basis Set: (AUG-CC-PVTZ AUX)
    Blend: AUG-CC-PVTZ-JKFIT
	 Reference Energy          =    -453.6764870267640504 [Eh]
	 Singles Energy            =      -0.0000000000000000 [Eh]
	 Same-Spin Energy          =      -0.4871660637972270 [Eh]
	 Opposite-Spin Energy      =      -1.4808582371852033 [Eh]
	 Correlation Energy        =      -1.9680243009824303 [Eh]
	 Total Energy              =    -455.6445113277464998 [Eh]

	 ================> DF-SCS-MP2 Energies <==================
	-----------------------------------------------------------
	 SCS Same-Spin Scale       =       0.3333333333333333 [-]
	 SCS Opposite-Spin Scale   =       1.2000000000000000 [-]
	 SCS Same-Spin Energy      =      -0.1623886879324090 [Eh]
	 SCS Opposite-Spin Energy  =      -1.7770298846222439 [Eh]
	 SCS Correlation Energy    =      -1.9394185725546529 [Eh]
	 SCS Total Energy          =    -455.6159055993186939 [Eh]
	-----------------------------------------------------------

  Dipole Moment: [D]
     X:    -0.9771      Y:    -1.3902      Z:     1.0270     Total:     1.9855

*** Psi4 exiting successfully. Buy a developer a beer!
