                               Psi4 1.4a3.dev225

  ==> Input File <==

--------------------------------------------------------------------------
#psi4
#
memory 32 gb

molecule  {
0 1
  O        2.3476870     0.7564740    -0.5170070
  N        0.1051940     2.2022940     0.2485340
  N        2.3184480    -1.3288730     0.3923020
  C        0.2041490    -0.2277810    -0.0328410
  C       -0.5292580     0.9782650     0.0721850
  C       -0.4780620    -1.4467680    -0.1744800
  C       -1.9322610     0.8976940     0.1244170
  C       -1.9099204    -1.5287232    -0.1523283
  C       -2.5929860    -0.3189550    -0.0016080
  C        1.6942170    -0.1960210    -0.0707790
  H        0.0963370    -2.3571300    -0.3293910
  H       -2.5048800     1.8176440     0.2323000
  H       -2.3796530    -2.4547020    -0.2729900
  H       -3.6801520    -0.3414970     0.0246030
  H        1.0340450     2.2328410    -0.1623240
  H       -0.4673770     3.0011870     0.0009920
  H        1.8426920    -1.9076120     1.0707290
  H        3.3240540    -1.2501130     0.4893940
units angstrom
no_reorient  #important for SAPT in psi4, default
symmetry c1  #important for SAPT in psi4, default
}

set PROPERTIES_ORIGIN ["COM"]
properties('MP2/aug-cc-pvtz', properties = ['dipole'])
--------------------------------------------------------------------------

    Molecular point group: c1
  Charge       = 0
  Multiplicity = 1
  Basis Set: AUG-CC-PVTZ
    Blend: AUG-CC-PVTZ
  Basis Set: (AUG-CC-PVTZ AUX)
    Blend: AUG-CC-PVTZ-JKFIT

    Orbital Energies [Eh]
    ---------------------

    Doubly Occupied:

       1A    -20.527308     2A    -15.588175     3A    -15.560633
       4A    -11.364700     5A    -11.297832     6A    -11.261710
       7A    -11.253097     8A    -11.246036     9A    -11.233453
      10A    -11.233035    11A     -1.381039    12A     -1.227231
      13A     -1.214729    14A     -1.132921    15A     -1.036521
      16A     -0.996551    17A     -0.874944    18A     -0.835998
      19A     -0.794759    20A     -0.737884    21A     -0.697661
      22A     -0.687296    23A     -0.675475    24A     -0.642463
      25A     -0.609535    26A     -0.600396    27A     -0.586794
      28A     -0.574556    29A     -0.542616    30A     -0.522940
      31A     -0.510455    32A     -0.452302    33A     -0.436291
      34A     -0.420813    35A     -0.352299    36A     -0.301628

  @DF-RHF Final Energy:  -453.68326150973979

   => Energetics <=

    Nuclear Repulsion Energy =            498.8762502658718176
    One-Electron Energy =               -1606.2948685359833689
    Two-Electron Energy =                 653.7353567603715874
    Total Energy =                       -453.6832615097398502
  Basis Set: (AUG-CC-PVTZ AUX)
    Blend: AUG-CC-PVTZ-RI
    Molecular point group: c1

    Geometry (in Angstrom), charge = 0, multiplicity = 1:

       Center              X                  Y                   Z               Mass
    ------------   -----------------  -----------------  -----------------  -----------------
         O            2.331490907588     0.749465451083    -0.509220459058    15.994914619570
         N            0.088997907588     2.195285451083     0.256320540942    14.003074004430
         N            2.302251907588    -1.335881548917     0.400088540942    14.003074004430
         C            0.187952907588    -0.234789548917    -0.025054459058    12.000000000000
         C           -0.545454092412     0.971256451083     0.079971540942    12.000000000000
         C           -0.494258092412    -1.453776548917    -0.166693459058    12.000000000000
         C           -1.948457092412     0.890685451083     0.132203540942    12.000000000000
         C           -1.926116492412    -1.535731748917    -0.144541759058    12.000000000000
         C           -2.609182092412    -0.325963548917     0.006178540942    12.000000000000
         C            1.678020907588    -0.203029548917    -0.062992459058    12.000000000000
         H            0.080140907588    -2.364138548917    -0.321604459058     1.007825032230
         H           -2.521076092412     1.810635451083     0.240086540942     1.007825032230
         H           -2.395849092412    -2.461710548917    -0.265203459058     1.007825032230
         H           -3.696348092412    -0.348505548917     0.032389540942     1.007825032230
         H            1.017848907588     2.225832451083    -0.154537459058     1.007825032230
         H           -0.483573092412     2.994178451083     0.008778540942     1.007825032230
         H            1.826495907588    -1.914620548917     1.078515540942     1.007825032230
         H            3.307857907588    -1.257121548917     0.497180540942     1.007825032230

  Basis Set: AUG-CC-PVTZ
    Blend: AUG-CC-PVTZ
  Basis Set: (AUG-CC-PVTZ AUX)
    Blend: AUG-CC-PVTZ-JKFIT
	 Reference Energy          =    -453.6832615097397934 [Eh]
	 Singles Energy            =      -0.0000000000000000 [Eh]
	 Same-Spin Energy          =      -0.4861028464565773 [Eh]
	 Opposite-Spin Energy      =      -1.4791900049936824 [Eh]
	 Correlation Energy        =      -1.9652928514502597 [Eh]
	 Total Energy              =    -455.6485543611900653 [Eh]

	 ================> DF-SCS-MP2 Energies <==================
	-----------------------------------------------------------
	 SCS Same-Spin Scale       =       0.3333333333333333 [-]
	 SCS Opposite-Spin Scale   =       1.2000000000000000 [-]
	 SCS Same-Spin Energy      =      -0.1620342821521924 [Eh]
	 SCS Opposite-Spin Energy  =      -1.7750280059924188 [Eh]
	 SCS Correlation Energy    =      -1.9370622881446113 [Eh]
	 SCS Total Energy          =    -455.6203237978843958 [Eh]
	-----------------------------------------------------------

  Dipole Moment: [D]
     X:    -1.0852      Y:    -1.3618      Z:     1.0579     Total:     2.0375

*** Psi4 exiting successfully. Buy a developer a beer!
