                               Psi4 1.4a3.dev225

  ==> Input File <==

--------------------------------------------------------------------------
#psi4
#
memory 32 gb

molecule  {
0 1
  O        2.3476870     0.7564740    -0.5170070
  N        0.1051940     2.2022940     0.2485340
  N        2.3184480    -1.3288730     0.3923020
  C        0.2041490    -0.2277810    -0.0328410
  C       -0.5396210     0.9953063     0.0736690
  C       -0.4780620    -1.4467680    -0.1744800
  C       -1.9322610     0.8976940     0.1244170
  C       -1.8678090    -1.5041600    -0.1507450
  C       -2.5929860    -0.3189550    -0.0016080
  C        1.6942170    -0.1960210    -0.0707790
  H        0.0963370    -2.3571300    -0.3293910
  H       -2.5048800     1.8176440     0.2323000
  H       -2.3796530    -2.4547020    -0.2729900
  H       -3.6801520    -0.3414970     0.0246030
  H        1.0340450     2.2328410    -0.1623240
  H       -0.4673770     3.0011870     0.0009920
  H        1.8426920    -1.9076120     1.0707290
  H        3.3240540    -1.2501130     0.4893940
units angstrom
no_reorient  #important for SAPT in psi4, default
symmetry c1  #important for SAPT in psi4, default
}

set PROPERTIES_ORIGIN ["COM"]
properties('MP2/aug-cc-pvtz', properties = ['dipole'])
--------------------------------------------------------------------------

    Molecular point group: c1
  Charge       = 0
  Multiplicity = 1
  Basis Set: AUG-CC-PVTZ
    Blend: AUG-CC-PVTZ
  Basis Set: (AUG-CC-PVTZ AUX)
    Blend: AUG-CC-PVTZ-JKFIT

    Orbital Energies [Eh]
    ---------------------

    Doubly Occupied:

       1A    -20.526210     2A    -15.587369     3A    -15.561379
       4A    -11.363431     5A    -11.297920     6A    -11.255880
       7A    -11.253594     8A    -11.245601     9A    -11.232838
      10A    -11.231403    11A     -1.379977    12A     -1.230617
      13A     -1.213957    14A     -1.136953    15A     -1.035426
      16A     -0.998396    17A     -0.877885    18A     -0.831422
      19A     -0.793335    20A     -0.735894    21A     -0.699526
      22A     -0.689935    23A     -0.674038    24A     -0.638278
      25A     -0.609215    26A     -0.602896    27A     -0.586380
      28A     -0.574838    29A     -0.540472    30A     -0.524800
      31A     -0.507204    32A     -0.456530    33A     -0.435662
      34A     -0.420312    35A     -0.351801    36A     -0.301979

  @DF-RHF Final Energy:  -453.68607243495381

   => Energetics <=

    Nuclear Repulsion Energy =            499.5945675982989655
    One-Electron Energy =               -1607.7545723990933766
    Two-Electron Energy =                 654.4739323658405965
    Total Energy =                       -453.6860724349538714
  Basis Set: (AUG-CC-PVTZ AUX)
    Blend: AUG-CC-PVTZ-RI
    Molecular point group: c1

    Geometry (in Angstrom), charge = 0, multiplicity = 1:

       Center              X                  Y                   Z               Mass
    ------------   -----------------  -----------------  -----------------  -----------------
         O            2.328690888891     0.745796183407    -0.509490976543    15.994914619570
         N            0.086197888891     2.191616183407     0.256050023457    14.003074004430
         N            2.299451888891    -1.339550816593     0.399818023457    14.003074004430
         C            0.185152888891    -0.238458816593    -0.025324976543    12.000000000000
         C           -0.558617111109     0.984628483407     0.081185023457    12.000000000000
         C           -0.497058111109    -1.457445816593    -0.166963976543    12.000000000000
         C           -1.951257111109     0.887016183407     0.131933023457    12.000000000000
         C           -1.886805111109    -1.514837816593    -0.143228976543    12.000000000000
         C           -2.611982111109    -0.329632816593     0.005908023457    12.000000000000
         C            1.675220888891    -0.206698816593    -0.063262976543    12.000000000000
         H            0.077340888891    -2.367807816593    -0.321874976543     1.007825032230
         H           -2.523876111109     1.806966183407     0.239816023457     1.007825032230
         H           -2.398649111109    -2.465379816593    -0.265473976543     1.007825032230
         H           -3.699148111109    -0.352174816593     0.032119023457     1.007825032230
         H            1.015048888891     2.222163183407    -0.154807976543     1.007825032230
         H           -0.486373111109     2.990509183407     0.008508023457     1.007825032230
         H            1.823695888891    -1.918289816593     1.078245023457     1.007825032230
         H            3.305057888891    -1.260790816593     0.496910023457     1.007825032230

  Basis Set: AUG-CC-PVTZ
    Blend: AUG-CC-PVTZ
  Basis Set: (AUG-CC-PVTZ AUX)
    Blend: AUG-CC-PVTZ-JKFIT
	 Reference Energy          =    -453.6860724349538145 [Eh]
	 Singles Energy            =      -0.0000000000000000 [Eh]
	 Same-Spin Energy          =      -0.4862642093163007 [Eh]
	 Opposite-Spin Energy      =      -1.4788944841507221 [Eh]
	 Correlation Energy        =      -1.9651586934670229 [Eh]
	 Total Energy              =    -455.6512311284208181 [Eh]

	 ================> DF-SCS-MP2 Energies <==================
	-----------------------------------------------------------
	 SCS Same-Spin Scale       =       0.3333333333333333 [-]
	 SCS Opposite-Spin Scale   =       1.2000000000000000 [-]
	 SCS Same-Spin Energy      =      -0.1620880697721002 [Eh]
	 SCS Opposite-Spin Energy  =      -1.7746733809808666 [Eh]
	 SCS Correlation Energy    =      -1.9367614507529669 [Eh]
	 SCS Total Energy          =    -455.6228338857067683 [Eh]
	-----------------------------------------------------------

  Dipole Moment: [D]
     X:    -1.1017      Y:    -1.2969      Z:     1.0695     Total:     2.0099

*** Psi4 exiting successfully. Buy a developer a beer!
