                               Psi4 1.4a3.dev225

  ==> Input File <==

--------------------------------------------------------------------------
#psi4
#
memory 32 gb

molecule  {
0 1
  O        2.3476870     0.7564740    -0.5170070
  N        0.1897767     2.1547974     0.2472159
  N        2.3184480    -1.3288730     0.3923020
  C        0.2041490    -0.2277810    -0.0328410
  C       -0.5292580     0.9782650     0.0721850
  C       -0.4780620    -1.4467680    -0.1744800
  C       -1.9322610     0.8976940     0.1244170
  C       -1.8678090    -1.5041600    -0.1507450
  C       -2.5929860    -0.3189550    -0.0016080
  C        1.6942170    -0.1960210    -0.0707790
  H        0.0963370    -2.3571300    -0.3293910
  H       -2.5048800     1.8176440     0.2323000
  H       -2.3796530    -2.4547020    -0.2729900
  H       -3.6801520    -0.3414970     0.0246030
  H        1.0340450     2.2328410    -0.1623240
  H       -0.4673770     3.0011870     0.0009920
  H        1.8426920    -1.9076120     1.0707290
  H        3.3240540    -1.2501130     0.4893940
units angstrom
no_reorient  #important for SAPT in psi4, default
symmetry c1  #important for SAPT in psi4, default
}

set PROPERTIES_ORIGIN ["COM"]
properties('MP2/aug-cc-pvtz', properties = ['dipole'])
--------------------------------------------------------------------------

    Molecular point group: c1
  Charge       = 0
  Multiplicity = 1
  Basis Set: AUG-CC-PVTZ
    Blend: AUG-CC-PVTZ
  Basis Set: (AUG-CC-PVTZ AUX)
    Blend: AUG-CC-PVTZ-JKFIT

    Orbital Energies [Eh]
    ---------------------

    Doubly Occupied:

       1A    -20.525011     2A    -15.587055     3A    -15.562020
       4A    -11.362731     5A    -11.297874     6A    -11.255621
       7A    -11.254672     8A    -11.242988     9A    -11.237206
      10A    -11.232716    11A     -1.379372    12A     -1.228273
      13A     -1.213654    14A     -1.137772    15A     -1.036633
      16A     -1.000271    17A     -0.878686    18A     -0.832276
      19A     -0.795757    20A     -0.736381    21A     -0.703014
      22A     -0.692025    23A     -0.662579    24A     -0.641988
      25A     -0.611155    26A     -0.598926    27A     -0.582440
      28A     -0.575036    29A     -0.540470    30A     -0.524769
      31A     -0.506731    32A     -0.456366    33A     -0.435420
      34A     -0.419409    35A     -0.352505    36A     -0.304534

  @DF-RHF Final Energy:  -453.67284738695832

   => Energetics <=

    Nuclear Repulsion Energy =            500.4997209356376402
    One-Electron Energy =               -1609.5364629757082184
    Two-Electron Energy =                 655.3638946531121974
    Total Energy =                       -453.6728473869583240
  Basis Set: (AUG-CC-PVTZ AUX)
    Blend: AUG-CC-PVTZ-RI
    Molecular point group: c1

    Geometry (in Angstrom), charge = 0, multiplicity = 1:

       Center              X                  Y                   Z               Mass
    ------------   -----------------  -----------------  -----------------  -----------------
         O            2.319072054738     0.752187265246    -0.509224443576    15.994914619570
         N            0.161161754738     2.150510665246     0.254998456424    14.003074004430
         N            2.289833054738    -1.333159734754     0.400084556424    14.003074004430
         C            0.175534054738    -0.232067734754    -0.025058443576    12.000000000000
         C           -0.557872945262     0.973978265246     0.079967556424    12.000000000000
         C           -0.506676945262    -1.451054734754    -0.166697443576    12.000000000000
         C           -1.960875945262     0.893407265246     0.132199556424    12.000000000000
         C           -1.896423945262    -1.508446734754    -0.142962443576    12.000000000000
         C           -2.621600945262    -0.323241734754     0.006174556424    12.000000000000
         C            1.665602054738    -0.200307734754    -0.062996443576    12.000000000000
         H            0.067722054738    -2.361416734754    -0.321608443576     1.007825032230
         H           -2.533494945262     1.813357265246     0.240082556424     1.007825032230
         H           -2.408267945262    -2.458988734754    -0.265207443576     1.007825032230
         H           -3.708766945262    -0.345783734754     0.032385556424     1.007825032230
         H            1.005430054738     2.228554265246    -0.154541443576     1.007825032230
         H           -0.495991945262     2.996900265246     0.008774556424     1.007825032230
         H            1.814077054738    -1.911898734754     1.078511556424     1.007825032230
         H            3.295439054738    -1.254399734754     0.497176556424     1.007825032230

  Basis Set: AUG-CC-PVTZ
    Blend: AUG-CC-PVTZ
  Basis Set: (AUG-CC-PVTZ AUX)
    Blend: AUG-CC-PVTZ-JKFIT
	 Reference Energy          =    -453.6728473869583240 [Eh]
	 Singles Energy            =      -0.0000000000000000 [Eh]
	 Same-Spin Energy          =      -0.4864329710357765 [Eh]
	 Opposite-Spin Energy      =      -1.4797843846830527 [Eh]
	 Correlation Energy        =      -1.9662173557188294 [Eh]
	 Total Energy              =    -455.6390647426771352 [Eh]

	 ================> DF-SCS-MP2 Energies <==================
	-----------------------------------------------------------
	 SCS Same-Spin Scale       =       0.3333333333333333 [-]
	 SCS Opposite-Spin Scale   =       1.2000000000000000 [-]
	 SCS Same-Spin Energy      =      -0.1621443236785922 [Eh]
	 SCS Opposite-Spin Energy  =      -1.7757412616196633 [Eh]
	 SCS Correlation Energy    =      -1.9378855852982555 [Eh]
	 SCS Total Energy          =    -455.6107329722565851 [Eh]
	-----------------------------------------------------------

  Dipole Moment: [D]
     X:    -1.2350      Y:    -1.3424      Z:     1.0565     Total:     2.1080

*** Psi4 exiting successfully. Buy a developer a beer!
