                               Psi4 1.4a3.dev225

  ==> Input File <==

--------------------------------------------------------------------------
#psi4
#
memory 32 gb

molecule  {
0 1
  O        2.3476870     0.7564740    -0.5170070
  N        0.1051940     2.2022940     0.2485340
  N        2.3184480    -1.3288730     0.3923020
  C        0.2041490    -0.2277810    -0.0328410
  C       -0.5292580     0.9782650     0.0721850
  C       -0.4780620    -1.4467680    -0.1744800
  C       -1.9322610     0.8976940     0.1244170
  C       -1.8678090    -1.5041600    -0.1507450
  C       -2.5929860    -0.3189550    -0.0016080
  C        1.4943272    -0.2002815    -0.0656897
  H        0.0963370    -2.3571300    -0.3293910
  H       -2.5048800     1.8176440     0.2323000
  H       -2.3796530    -2.4547020    -0.2729900
  H       -3.6801520    -0.3414970     0.0246030
  H        1.0340450     2.2328410    -0.1623240
  H       -0.4673770     3.0011870     0.0009920
  H        1.8426920    -1.9076120     1.0707290
  H        3.3240540    -1.2501130     0.4893940
units angstrom
no_reorient  #important for SAPT in psi4, default
symmetry c1  #important for SAPT in psi4, default
}

set PROPERTIES_ORIGIN ["COM"]
properties('MP2/aug-cc-pvtz', properties = ['dipole'])
--------------------------------------------------------------------------

    Molecular point group: c1
  Charge       = 0
  Multiplicity = 1
  Basis Set: AUG-CC-PVTZ
    Blend: AUG-CC-PVTZ
  Basis Set: (AUG-CC-PVTZ AUX)
    Blend: AUG-CC-PVTZ-JKFIT

    Orbital Energies [Eh]
    ---------------------

    Doubly Occupied:

       1A    -20.504861     2A    -15.572603     3A    -15.571553
       4A    -11.360607     5A    -11.318449     6A    -11.274368
       7A    -11.273386     8A    -11.246788     9A    -11.244238
      10A    -11.238080    11A     -1.309372    12A     -1.237401
      13A     -1.174061    14A     -1.146042    15A     -1.075031
      16A     -1.015991    17A     -0.913581    18A     -0.850342
      19A     -0.788009    20A     -0.722132    21A     -0.701698
      22A     -0.690827    23A     -0.677577    24A     -0.633747
      25A     -0.620626    26A     -0.614880    27A     -0.578811
      28A     -0.559618    29A     -0.536508    30A     -0.521499
      31A     -0.504922    32A     -0.465545    33A     -0.416011
      34A     -0.391101    35A     -0.364553    36A     -0.316899

  @DF-RHF Final Energy:  -453.61624607513642

   => Energetics <=

    Nuclear Repulsion Energy =            501.0331999777318401
    One-Electron Energy =               -1610.4354589472409316
    Two-Electron Energy =                 655.7860128943727887
    Total Energy =                       -453.6162460751363597
  Basis Set: (AUG-CC-PVTZ AUX)
    Blend: AUG-CC-PVTZ-RI
    Molecular point group: c1

    Geometry (in Angstrom), charge = 0, multiplicity = 1:

       Center              X                  Y                   Z               Mass
    ------------   -----------------  -----------------  -----------------  -----------------
         O            2.345406017323     0.747674874563    -0.509808942406    15.994914619570
         N            0.102913017323     2.193494874563     0.255732057594    14.003074004430
         N            2.316167017323    -1.337672125437     0.399500057594    14.003074004430
         C            0.201868017323    -0.236580125437    -0.025642942406    12.000000000000
         C           -0.531538982677     0.969465874563     0.079383057594    12.000000000000
         C           -0.480342982677    -1.455567125437    -0.167281942406    12.000000000000
         C           -1.934541982677     0.888894874563     0.131615057594    12.000000000000
         C           -1.870089982677    -1.512959125437    -0.143546942406    12.000000000000
         C           -2.595266982677    -0.327754125437     0.005590057594    12.000000000000
         C            1.492046217323    -0.209080625437    -0.058491642406    12.000000000000
         H            0.094056017323    -2.365929125437    -0.322192942406     1.007825032230
         H           -2.507160982677     1.808844874563     0.239498057594     1.007825032230
         H           -2.381933982677    -2.463501125437    -0.265791942406     1.007825032230
         H           -3.682432982677    -0.350296125437     0.031801057594     1.007825032230
         H            1.031764017323     2.224041874563    -0.155125942406     1.007825032230
         H           -0.469657982677     2.992387874563     0.008190057594     1.007825032230
         H            1.840411017323    -1.916411125437     1.077927057594     1.007825032230
         H            3.321773017323    -1.258912125437     0.496592057594     1.007825032230

  Basis Set: AUG-CC-PVTZ
    Blend: AUG-CC-PVTZ
  Basis Set: (AUG-CC-PVTZ AUX)
    Blend: AUG-CC-PVTZ-JKFIT
	 Reference Energy          =    -453.6162460751364165 [Eh]
	 Singles Energy            =      -0.0000000000000000 [Eh]
	 Same-Spin Energy          =      -0.4910244041490676 [Eh]
	 Opposite-Spin Energy      =      -1.4888317209504769 [Eh]
	 Correlation Energy        =      -1.9798561250995443 [Eh]
	 Total Energy              =    -455.5961022002359755 [Eh]

	 ================> DF-SCS-MP2 Energies <==================
	-----------------------------------------------------------
	 SCS Same-Spin Scale       =       0.3333333333333333 [-]
	 SCS Opposite-Spin Scale   =       1.2000000000000000 [-]
	 SCS Same-Spin Energy      =      -0.1636748013830225 [Eh]
	 SCS Opposite-Spin Energy  =      -1.7865980651405722 [Eh]
	 SCS Correlation Energy    =      -1.9502728665235947 [Eh]
	 SCS Total Energy          =    -455.5665189416600356 [Eh]
	-----------------------------------------------------------

  Dipole Moment: [D]
     X:    -2.8416      Y:    -1.0361      Z:     1.0412     Total:     3.1988

*** Psi4 exiting successfully. Buy a developer a beer!
