                               Psi4 1.4a3.dev225

  ==> Input File <==

--------------------------------------------------------------------------
#psi4
#
memory 32 gb

molecule  {
0 1
  O        2.3476870     0.7564740    -0.5170070
  N        0.1051940     2.2022940     0.2485340
  N        2.3184480    -1.3288730     0.3923020
  C        0.2041490    -0.2277810    -0.0328410
  C       -0.5676330     0.9956514     0.0962425
  C       -0.4780620    -1.4467680    -0.1744800
  C       -1.9322610     0.8976940     0.1244170
  C       -1.8678090    -1.5041600    -0.1507450
  C       -2.5929860    -0.3189550    -0.0016080
  C        1.6942170    -0.1960210    -0.0707790
  H        0.0963370    -2.3571300    -0.3293910
  H       -2.5048800     1.8176440     0.2323000
  H       -2.3796530    -2.4547020    -0.2729900
  H       -3.6801520    -0.3414970     0.0246030
  H        1.0340450     2.2328410    -0.1623240
  H       -0.4673770     3.0011870     0.0009920
  H        1.8426920    -1.9076120     1.0707290
  H        3.3240540    -1.2501130     0.4893940
units angstrom
no_reorient  #important for SAPT in psi4, default
symmetry c1  #important for SAPT in psi4, default
}

set PROPERTIES_ORIGIN ["COM"]
properties('MP2/aug-cc-pvtz', properties = ['dipole'])
--------------------------------------------------------------------------

    Molecular point group: c1
  Charge       = 0
  Multiplicity = 1
  Basis Set: AUG-CC-PVTZ
    Blend: AUG-CC-PVTZ
  Basis Set: (AUG-CC-PVTZ AUX)
    Blend: AUG-CC-PVTZ-JKFIT

    Orbital Energies [Eh]
    ---------------------

    Doubly Occupied:

       1A    -20.526465     2A    -15.587739     3A    -15.559319
       4A    -11.364208     5A    -11.296453     6A    -11.256419
       7A    -11.254646     8A    -11.247825     9A    -11.232062
      10A    -11.229888    11A     -1.380057    12A     -1.226665
      13A     -1.214193    14A     -1.137139    15A     -1.036327
      16A     -1.000264    17A     -0.880286    18A     -0.828687
      19A     -0.794514    20A     -0.736238    21A     -0.698965
      22A     -0.689320    23A     -0.673016    24A     -0.638171
      25A     -0.610693    26A     -0.602085    27A     -0.586531
      28A     -0.574865    29A     -0.541332    30A     -0.526256
      31A     -0.504763    32A     -0.454674    33A     -0.436320
      34A     -0.420486    35A     -0.352425    36A     -0.303333

  @DF-RHF Final Energy:  -453.68441405128112

   => Energetics <=

    Nuclear Repulsion Energy =            499.4910974608495167
    One-Electron Energy =               -1607.5457600407294194
    Two-Electron Energy =                 654.3702485285988359
    Total Energy =                       -453.6844140512811236
  Basis Set: (AUG-CC-PVTZ AUX)
    Blend: AUG-CC-PVTZ-RI
    Molecular point group: c1

    Geometry (in Angstrom), charge = 0, multiplicity = 1:

       Center              X                  Y                   Z               Mass
    ------------   -----------------  -----------------  -----------------  -----------------
         O            2.331161379490     0.745765747655    -0.511481824021    15.994914619570
         N            0.088668379490     2.191585747655     0.254059175979    14.003074004430
         N            2.301922379490    -1.339581252345     0.397827175979    14.003074004430
         C            0.187623379490    -0.238489252345    -0.027315824021    12.000000000000
         C           -0.584158620510     0.984943147655     0.101767675979    12.000000000000
         C           -0.494587620510    -1.457476252345    -0.168954824021    12.000000000000
         C           -1.948786620510     0.886985747655     0.129942175979    12.000000000000
         C           -1.884334620510    -1.514868252345    -0.145219824021    12.000000000000
         C           -2.609511620510    -0.329663252345     0.003917175979    12.000000000000
         C            1.677691379490    -0.206729252345    -0.065253824021    12.000000000000
         H            0.079811379490    -2.367838252345    -0.323865824021     1.007825032230
         H           -2.521405620510     1.806935747655     0.237825175979     1.007825032230
         H           -2.396178620510    -2.465410252345    -0.267464824021     1.007825032230
         H           -3.696677620510    -0.352205252345     0.030128175979     1.007825032230
         H            1.017519379490     2.222132747655    -0.156798824021     1.007825032230
         H           -0.483902620510     2.990478747655     0.006517175979     1.007825032230
         H            1.826166379490    -1.918320252345     1.076254175979     1.007825032230
         H            3.307528379490    -1.260821252345     0.494919175979     1.007825032230

  Basis Set: AUG-CC-PVTZ
    Blend: AUG-CC-PVTZ
  Basis Set: (AUG-CC-PVTZ AUX)
    Blend: AUG-CC-PVTZ-JKFIT
	 Reference Energy          =    -453.6844140512811236 [Eh]
	 Singles Energy            =      -0.0000000000000000 [Eh]
	 Same-Spin Energy          =      -0.4862082507292628 [Eh]
	 Opposite-Spin Energy      =      -1.4789275752397808 [Eh]
	 Correlation Energy        =      -1.9651358259690435 [Eh]
	 Total Energy              =    -455.6495498772501946 [Eh]

	 ================> DF-SCS-MP2 Energies <==================
	-----------------------------------------------------------
	 SCS Same-Spin Scale       =       0.3333333333333333 [-]
	 SCS Opposite-Spin Scale   =       1.2000000000000000 [-]
	 SCS Same-Spin Energy      =      -0.1620694169097542 [Eh]
	 SCS Opposite-Spin Energy  =      -1.7747130902877368 [Eh]
	 SCS Correlation Energy    =      -1.9367825071974911 [Eh]
	 SCS Total Energy          =    -455.6211965584786299 [Eh]
	-----------------------------------------------------------

  Dipole Moment: [D]
     X:    -1.1183      Y:    -1.3817      Z:     1.0626     Total:     2.0709

*** Psi4 exiting successfully. Buy a developer a beer!
