                               Psi4 1.4a3.dev225

  ==> Input File <==

--------------------------------------------------------------------------
#psi4
#
memory 32 gb

molecule  {
0 1
  O        2.3476870     0.7564740    -0.5170070
  N        0.1051940     2.2022940     0.2485340
  N        2.3184480    -1.3288730     0.3923020
  C        0.2041490    -0.2277810    -0.0328410
  C       -0.5292580     0.9782650     0.0721850
  C       -0.4780620    -1.4467680    -0.1744800
  C       -1.9322610     0.8976940     0.1244170
  C       -1.8678090    -1.5041600    -0.1507450
  C       -2.5929860    -0.3189550    -0.0016080
  C        1.7941619    -0.1938907    -0.0733237
  H        0.0963370    -2.3571300    -0.3293910
  H       -2.5048800     1.8176440     0.2323000
  H       -2.3796530    -2.4547020    -0.2729900
  H       -3.6801520    -0.3414970     0.0246030
  H        1.0340450     2.2328410    -0.1623240
  H       -0.4673770     3.0011870     0.0009920
  H        1.8426920    -1.9076120     1.0707290
  H        3.3240540    -1.2501130     0.4893940
units angstrom
no_reorient  #important for SAPT in psi4, default
symmetry c1  #important for SAPT in psi4, default
}

set PROPERTIES_ORIGIN ["COM"]
properties('MP2/aug-cc-pvtz', properties = ['dipole'])
--------------------------------------------------------------------------

    Molecular point group: c1
  Charge       = 0
  Multiplicity = 1
  Basis Set: AUG-CC-PVTZ
    Blend: AUG-CC-PVTZ
  Basis Set: (AUG-CC-PVTZ AUX)
    Blend: AUG-CC-PVTZ-JKFIT

    Orbital Energies [Eh]
    ---------------------

    Doubly Occupied:

       1A    -20.534977     2A    -15.594070     3A    -15.556001
       4A    -11.363282     5A    -11.288687     6A    -11.247935
       7A    -11.245384     8A    -11.241691     9A    -11.229402
      10A    -11.226939    11A     -1.417475    12A     -1.238338
      13A     -1.221744    14A     -1.130344    15A     -1.022820
      16A     -0.990608    17A     -0.861938    18A     -0.827042
      19A     -0.801210    20A     -0.744549    21A     -0.695978
      22A     -0.683385    23A     -0.677709    24A     -0.644969
      25A     -0.607011    26A     -0.602385    27A     -0.589419
      28A     -0.580180    29A     -0.539799    30A     -0.523384
      31A     -0.504959    32A     -0.450745    33A     -0.441024
      34A     -0.422272    35A     -0.345033    36A     -0.297200

  @DF-RHF Final Energy:  -453.67991996888367

   => Energetics <=

    Nuclear Repulsion Energy =            499.3166857231870495
    One-Electron Energy =               -1607.2134347407782116
    Two-Electron Energy =                 654.2168290487076092
    Total Energy =                       -453.6799199688836097
  Basis Set: (AUG-CC-PVTZ AUX)
    Blend: AUG-CC-PVTZ-RI
    Molecular point group: c1

    Geometry (in Angstrom), charge = 0, multiplicity = 1:

       Center              X                  Y                   Z               Mass
    ------------   -----------------  -----------------  -----------------  -----------------
         O            2.318962392892     0.747111244286    -0.509135669337    15.994914619570
         N            0.076469392892     2.192931244286     0.256405330663    14.003074004430
         N            2.289723392892    -1.338235755714     0.400173330663    14.003074004430
         C            0.175424392892    -0.237143755714    -0.024969669337    12.000000000000
         C           -0.557982607108     0.968902244286     0.080056330663    12.000000000000
         C           -0.506786607108    -1.456130755714    -0.166608669337    12.000000000000
         C           -1.960985607108     0.888331244286     0.132288330663    12.000000000000
         C           -1.896533607108    -1.513522755714    -0.142873669337    12.000000000000
         C           -2.621710607108    -0.328317755714     0.006263330663    12.000000000000
         C            1.765437292892    -0.203253455714    -0.065452369337    12.000000000000
         H            0.067612392892    -2.366492755714    -0.321519669337     1.007825032230
         H           -2.533604607108     1.808281244286     0.240171330663     1.007825032230
         H           -2.408377607108    -2.464064755714    -0.265118669337     1.007825032230
         H           -3.708876607108    -0.350859755714     0.032474330663     1.007825032230
         H            1.005320392892     2.223478244286    -0.154452669337     1.007825032230
         H           -0.496101607108     2.991824244286     0.008863330663     1.007825032230
         H            1.813967392892    -1.916974755714     1.078600330663     1.007825032230
         H            3.295329392892    -1.259475755714     0.497265330663     1.007825032230

  Basis Set: AUG-CC-PVTZ
    Blend: AUG-CC-PVTZ
  Basis Set: (AUG-CC-PVTZ AUX)
    Blend: AUG-CC-PVTZ-JKFIT
	 Reference Energy          =    -453.6799199688836666 [Eh]
	 Singles Energy            =      -0.0000000000000000 [Eh]
	 Same-Spin Energy          =      -0.4850760554248581 [Eh]
	 Opposite-Spin Energy      =      -1.4763859446504339 [Eh]
	 Correlation Energy        =      -1.9614620000752920 [Eh]
	 Total Energy              =    -455.6413819689589673 [Eh]

	 ================> DF-SCS-MP2 Energies <==================
	-----------------------------------------------------------
	 SCS Same-Spin Scale       =       0.3333333333333333 [-]
	 SCS Opposite-Spin Scale   =       1.2000000000000000 [-]
	 SCS Same-Spin Energy      =      -0.1616920184749527 [Eh]
	 SCS Opposite-Spin Energy  =      -1.7716631335805206 [Eh]
	 SCS Correlation Energy    =      -1.9333551520554733 [Eh]
	 SCS Total Energy          =    -455.6132751209391358 [Eh]
	-----------------------------------------------------------

  Dipole Moment: [D]
     X:    -0.3324      Y:    -1.4385      Z:     1.0623     Total:     1.8188

*** Psi4 exiting successfully. Buy a developer a beer!
