                               Psi4 1.4a3.dev225

  ==> Input File <==

--------------------------------------------------------------------------
#psi4
#
memory 32 gb

molecule  {
0 1
  O        2.3476870     0.7564740    -0.5170070
  N        0.1051940     2.2022940     0.2485340
  N        2.3184480    -1.3288730     0.3923020
  C        0.2041490    -0.2277810    -0.0328410
  C       -0.5292580     0.9782650     0.0721850
  C       -0.4780620    -1.4467680    -0.1744800
  C       -1.9322610     0.8976940     0.1244170
  C       -1.8678090    -1.5041600    -0.1507450
  C       -2.5410927    -0.4037677    -0.0122802
  C        1.6942170    -0.1960210    -0.0707790
  H        0.0963370    -2.3571300    -0.3293910
  H       -2.5048800     1.8176440     0.2323000
  H       -2.3796530    -2.4547020    -0.2729900
  H       -3.6801520    -0.3414970     0.0246030
  H        1.0340450     2.2328410    -0.1623240
  H       -0.4673770     3.0011870     0.0009920
  H        1.8426920    -1.9076120     1.0707290
  H        3.3240540    -1.2501130     0.4893940
units angstrom
no_reorient  #important for SAPT in psi4, default
symmetry c1  #important for SAPT in psi4, default
}

set PROPERTIES_ORIGIN ["COM"]
properties('MP2/aug-cc-pvtz', properties = ['dipole'])
--------------------------------------------------------------------------

    Molecular point group: c1
  Charge       = 0
  Multiplicity = 1
  Basis Set: AUG-CC-PVTZ
    Blend: AUG-CC-PVTZ
  Basis Set: (AUG-CC-PVTZ AUX)
    Blend: AUG-CC-PVTZ-JKFIT

    Orbital Energies [Eh]
    ---------------------

    Doubly Occupied:

       1A    -20.528032     2A    -15.588855     3A    -15.557068
       4A    -11.365375     5A    -11.293343     6A    -11.259664
       7A    -11.249712     8A    -11.248007     9A    -11.234630
      10A    -11.222431    11A     -1.381666    12A     -1.225423
      13A     -1.215374    14A     -1.145963    15A     -1.036748
      16A     -1.001254    17A     -0.878749    18A     -0.834740
      19A     -0.790042    20A     -0.738131    21A     -0.699399
      22A     -0.681369    23A     -0.673948    24A     -0.640244
      25A     -0.615494    26A     -0.602990    27A     -0.586182
      28A     -0.575475    29A     -0.533416    30A     -0.521610
      31A     -0.506427    32A     -0.461124    33A     -0.436139
      34A     -0.421530    35A     -0.348856    36A     -0.307497

  @DF-RHF Final Energy:  -453.67269483047966

   => Energetics <=

    Nuclear Repulsion Energy =            500.7119072370031745
    One-Electron Energy =               -1609.9553920561588711
    Two-Electron Energy =                 655.5707899886758696
    Total Energy =                       -453.6726948304797133
  Basis Set: (AUG-CC-PVTZ AUX)
    Blend: AUG-CC-PVTZ-RI
    Molecular point group: c1

    Geometry (in Angstrom), charge = 0, multiplicity = 1:

       Center              X                  Y                   Z               Mass
    ------------   -----------------  -----------------  -----------------  -----------------
         O            2.323200256167     0.754779096068    -0.508418872523    15.994914619570
         N            0.080707256167     2.200599096068     0.257122127477    14.003074004430
         N            2.293961256167    -1.330567903932     0.400890127477    14.003074004430
         C            0.179662256167    -0.229475903932    -0.024252872523    12.000000000000
         C           -0.553744743833     0.976570096068     0.080773127477    12.000000000000
         C           -0.502548743833    -1.448462903932    -0.165891872523    12.000000000000
         C           -1.956747743833     0.895999096068     0.133005127477    12.000000000000
         C           -1.892295743833    -1.505854903932    -0.142156872523    12.000000000000
         C           -2.565579443833    -0.405462603932    -0.003692072523    12.000000000000
         C            1.669730256167    -0.197715903932    -0.062190872523    12.000000000000
         H            0.071850256167    -2.358824903932    -0.320802872523     1.007825032230
         H           -2.529366743833     1.815949096068     0.240888127477     1.007825032230
         H           -2.404139743833    -2.456396903932    -0.264401872523     1.007825032230
         H           -3.704638743833    -0.343191903932     0.033191127477     1.007825032230
         H            1.009558256167     2.231146096068    -0.153735872523     1.007825032230
         H           -0.491863743833     2.999492096068     0.009580127477     1.007825032230
         H            1.818205256167    -1.909306903932     1.079317127477     1.007825032230
         H            3.299567256167    -1.251807903932     0.497982127477     1.007825032230

  Basis Set: AUG-CC-PVTZ
    Blend: AUG-CC-PVTZ
  Basis Set: (AUG-CC-PVTZ AUX)
    Blend: AUG-CC-PVTZ-JKFIT
	 Reference Energy          =    -453.6726948304796565 [Eh]
	 Singles Energy            =      -0.0000000000000000 [Eh]
	 Same-Spin Energy          =      -0.4862568623186210 [Eh]
	 Opposite-Spin Energy      =      -1.4793016490956585 [Eh]
	 Correlation Energy        =      -1.9655585114142795 [Eh]
	 Total Energy              =    -455.6382533418939147 [Eh]

	 ================> DF-SCS-MP2 Energies <==================
	-----------------------------------------------------------
	 SCS Same-Spin Scale       =       0.3333333333333333 [-]
	 SCS Opposite-Spin Scale   =       1.2000000000000000 [-]
	 SCS Same-Spin Energy      =      -0.1620856207728736 [Eh]
	 SCS Opposite-Spin Energy  =      -1.7751619789147901 [Eh]
	 SCS Correlation Energy    =      -1.9372475996876637 [Eh]
	 SCS Total Energy          =    -455.6099424301673366 [Eh]
	-----------------------------------------------------------

  Dipole Moment: [D]
     X:    -1.0420      Y:    -1.4282      Z:     1.0498     Total:     2.0561

*** Psi4 exiting successfully. Buy a developer a beer!
