                               Psi4 1.4a3.dev225

  ==> Input File <==

--------------------------------------------------------------------------
#psi4
#
memory 32 gb

molecule  {
0 1
  O        2.3476870     0.7564740    -0.5170070
  N        0.1051940     2.2022940     0.2485340
  N        2.3184480    -1.3288730     0.3923020
  C        0.2041490    -0.2277810    -0.0328410
  C       -0.5485451     0.9867731     0.0841887
  C       -0.4780620    -1.4467680    -0.1744800
  C       -1.9322610     0.8976940     0.1244170
  C       -1.8678090    -1.5041600    -0.1507450
  C       -2.5929860    -0.3189550    -0.0016080
  C        1.6942170    -0.1960210    -0.0707790
  H        0.0963370    -2.3571300    -0.3293910
  H       -2.5048800     1.8176440     0.2323000
  H       -2.3796530    -2.4547020    -0.2729900
  H       -3.6801520    -0.3414970     0.0246030
  H        1.0340450     2.2328410    -0.1623240
  H       -0.4673770     3.0011870     0.0009920
  H        1.8426920    -1.9076120     1.0707290
  H        3.3240540    -1.2501130     0.4893940
units angstrom
no_reorient  #important for SAPT in psi4, default
symmetry c1  #important for SAPT in psi4, default
}

set PROPERTIES_ORIGIN ["COM"]
properties('MP2/aug-cc-pvtz', properties = ['dipole'])
--------------------------------------------------------------------------

    Molecular point group: c1
  Charge       = 0
  Multiplicity = 1
  Basis Set: AUG-CC-PVTZ
    Blend: AUG-CC-PVTZ
  Basis Set: (AUG-CC-PVTZ AUX)
    Blend: AUG-CC-PVTZ-JKFIT

    Orbital Energies [Eh]
    ---------------------

    Doubly Occupied:

       1A    -20.526464     2A    -15.587734     3A    -15.559714
       4A    -11.363978     5A    -11.296865     6A    -11.256184
       7A    -11.253976     8A    -11.246127     9A    -11.232268
      10A    -11.232050    11A     -1.380148    12A     -1.226923
      13A     -1.214223    14A     -1.137089    15A     -1.036297
      16A     -0.999491    17A     -0.878807    18A     -0.831270
      19A     -0.793739    20A     -0.736301    21A     -0.698845
      22A     -0.688683    23A     -0.673275    24A     -0.637951
      25A     -0.608944    26A     -0.604073    27A     -0.586471
      28A     -0.575123    29A     -0.540398    30A     -0.524938
      31A     -0.507558    32A     -0.454912    33A     -0.436064
      34A     -0.420502    35A     -0.352227    36A     -0.303303

  @DF-RHF Final Energy:  -453.68617671046877

   => Energetics <=

    Nuclear Repulsion Energy =            499.6232217147927486
    One-Electron Energy =               -1607.8129635953855541
    Two-Electron Energy =                 654.5035651701241477
    Total Energy =                       -453.6861767104687715
  Basis Set: (AUG-CC-PVTZ AUX)
    Blend: AUG-CC-PVTZ-RI
    Molecular point group: c1

    Geometry (in Angstrom), charge = 0, multiplicity = 1:

       Center              X                  Y                   Z               Mass
    ------------   -----------------  -----------------  -----------------  -----------------
         O            2.329477941053     0.746548760531    -0.510418751067    15.994914619570
         N            0.086984941053     2.192368760531     0.255122248933    14.003074004430
         N            2.300238941053    -1.338798239469     0.398890248933    14.003074004430
         C            0.185939941053    -0.237706239469    -0.026252751067    12.000000000000
         C           -0.566754158947     0.976847860531     0.090776948933    12.000000000000
         C           -0.496271058947    -1.456693239469    -0.167891751067    12.000000000000
         C           -1.950470058947     0.887768760531     0.131005248933    12.000000000000
         C           -1.886018058947    -1.514085239469    -0.144156751067    12.000000000000
         C           -2.611195058947    -0.328880239469     0.004980248933    12.000000000000
         C            1.676007941053    -0.205946239469    -0.064190751067    12.000000000000
         H            0.078127941053    -2.367055239469    -0.322802751067     1.007825032230
         H           -2.523089058947     1.807718760531     0.238888248933     1.007825032230
         H           -2.397862058947    -2.464627239469    -0.266401751067     1.007825032230
         H           -3.698361058947    -0.351422239469     0.031191248933     1.007825032230
         H            1.015835941053     2.222915760531    -0.155735751067     1.007825032230
         H           -0.485586058947     2.991261760531     0.007580248933     1.007825032230
         H            1.824482941053    -1.917537239469     1.077317248933     1.007825032230
         H            3.305844941053    -1.260038239469     0.495982248933     1.007825032230

  Basis Set: AUG-CC-PVTZ
    Blend: AUG-CC-PVTZ
  Basis Set: (AUG-CC-PVTZ AUX)
    Blend: AUG-CC-PVTZ-JKFIT
	 Reference Energy          =    -453.6861767104687715 [Eh]
	 Singles Energy            =      -0.0000000000000000 [Eh]
	 Same-Spin Energy          =      -0.4862036841494585 [Eh]
	 Opposite-Spin Energy      =      -1.4788738464848827 [Eh]
	 Correlation Energy        =      -1.9650775306343413 [Eh]
	 Total Energy              =    -455.6512542411031177 [Eh]

	 ================> DF-SCS-MP2 Energies <==================
	-----------------------------------------------------------
	 SCS Same-Spin Scale       =       0.3333333333333333 [-]
	 SCS Opposite-Spin Scale   =       1.2000000000000000 [-]
	 SCS Same-Spin Energy      =      -0.1620678947164861 [Eh]
	 SCS Opposite-Spin Energy  =      -1.7746486157818593 [Eh]
	 SCS Correlation Energy    =      -1.9367165104983455 [Eh]
	 SCS Total Energy          =    -455.6228932209671143 [Eh]
	-----------------------------------------------------------

  Dipole Moment: [D]
     X:    -1.1233      Y:    -1.3677      Z:     1.0621     Total:     2.0641

*** Psi4 exiting successfully. Buy a developer a beer!
