                               Psi4 1.4a3.dev225

  ==> Input File <==

--------------------------------------------------------------------------
#psi4
#
memory 32 gb

molecule  {
0 1
  O        2.3476870     0.7564740    -0.5170070
  N        0.2308110     2.1311124     0.2306571
  N        2.3184480    -1.3288730     0.3923020
  C        0.2041490    -0.2277810    -0.0328410
  C       -0.5292580     0.9782650     0.0721850
  C       -0.4780620    -1.4467680    -0.1744800
  C       -1.9322610     0.8976940     0.1244170
  C       -1.8678090    -1.5041600    -0.1507450
  C       -2.5929860    -0.3189550    -0.0016080
  C        1.6942170    -0.1960210    -0.0707790
  H        0.0963370    -2.3571300    -0.3293910
  H       -2.5048800     1.8176440     0.2323000
  H       -2.3796530    -2.4547020    -0.2729900
  H       -3.6801520    -0.3414970     0.0246030
  H        1.0340450     2.2328410    -0.1623240
  H       -0.4673770     3.0011870     0.0009920
  H        1.8426920    -1.9076120     1.0707290
  H        3.3240540    -1.2501130     0.4893940
units angstrom
no_reorient  #important for SAPT in psi4, default
symmetry c1  #important for SAPT in psi4, default
}

set PROPERTIES_ORIGIN ["COM"]
properties('MP2/aug-cc-pvtz', properties = ['dipole'])
--------------------------------------------------------------------------

    Molecular point group: c1
  Charge       = 0
  Multiplicity = 1
  Basis Set: AUG-CC-PVTZ
    Blend: AUG-CC-PVTZ
  Basis Set: (AUG-CC-PVTZ AUX)
    Blend: AUG-CC-PVTZ-JKFIT

    Orbital Energies [Eh]
    ---------------------

    Doubly Occupied:

       1A    -20.524336     2A    -15.586737     3A    -15.561787
       4A    -11.362245     5A    -11.299157     6A    -11.255489
       7A    -11.255391     8A    -11.242318     9A    -11.238552
      10A    -11.232904    11A     -1.379056    12A     -1.230414
      13A     -1.213401    14A     -1.138862    15A     -1.036684
      16A     -1.002423    17A     -0.879695    18A     -0.833389
      19A     -0.797697    20A     -0.737654    21A     -0.710856
      22A     -0.690866    23A     -0.658020    24A     -0.644096
      25A     -0.613296    26A     -0.597095    27A     -0.577597
      28A     -0.574375    29A     -0.540427    30A     -0.525533
      31A     -0.504559    32A     -0.456671    33A     -0.435121
      34A     -0.418857    35A     -0.352718    36A     -0.304772

  @DF-RHF Final Energy:  -453.65558469436684

   => Energetics <=

    Nuclear Repulsion Energy =            500.9847308549149716
    One-Electron Energy =               -1610.4545290635471702
    Two-Electron Energy =                 655.8142135142654752
    Total Energy =                       -453.6555846943667802
  Basis Set: (AUG-CC-PVTZ AUX)
    Blend: AUG-CC-PVTZ-RI
    Molecular point group: c1

    Geometry (in Angstrom), charge = 0, multiplicity = 1:

       Center              X                  Y                   Z               Mass
    ------------   -----------------  -----------------  -----------------  -----------------
         O            2.314848984982     0.754624821319    -0.507520284678    15.994914619570
         N            0.197972984982     2.129263221319     0.240143815322    14.003074004430
         N            2.285609984982    -1.330722178681     0.401788715322    14.003074004430
         C            0.171310984982    -0.229630178681    -0.023354284678    12.000000000000
         C           -0.562096015018     0.976415821319     0.081671715322    12.000000000000
         C           -0.510900015018    -1.448617178681    -0.164993284678    12.000000000000
         C           -1.965099015018     0.895844821319     0.133903715322    12.000000000000
         C           -1.900647015018    -1.506009178681    -0.141258284678    12.000000000000
         C           -2.625824015018    -0.320804178681     0.007878715322    12.000000000000
         C            1.661378984982    -0.197870178681    -0.061292284678    12.000000000000
         H            0.063498984982    -2.358979178681    -0.319904284678     1.007825032230
         H           -2.537718015018     1.815794821319     0.241786715322     1.007825032230
         H           -2.412491015018    -2.456551178681    -0.263503284678     1.007825032230
         H           -3.712990015018    -0.343346178681     0.034089715322     1.007825032230
         H            1.001206984982     2.230991821319    -0.152837284678     1.007825032230
         H           -0.500215015018     2.999337821319     0.010478715322     1.007825032230
         H            1.809853984982    -1.909461178681     1.080215715322     1.007825032230
         H            3.291215984982    -1.251962178681     0.498880715322     1.007825032230

  Basis Set: AUG-CC-PVTZ
    Blend: AUG-CC-PVTZ
  Basis Set: (AUG-CC-PVTZ AUX)
    Blend: AUG-CC-PVTZ-JKFIT
	 Reference Energy          =    -453.6555846943668371 [Eh]
	 Singles Energy            =      -0.0000000000000000 [Eh]
	 Same-Spin Energy          =      -0.4866388118275169 [Eh]
	 Opposite-Spin Energy      =      -1.4804870082072492 [Eh]
	 Correlation Energy        =      -1.9671258200347661 [Eh]
	 Total Energy              =    -455.6227105144016036 [Eh]

	 ================> DF-SCS-MP2 Energies <==================
	-----------------------------------------------------------
	 SCS Same-Spin Scale       =       0.3333333333333333 [-]
	 SCS Opposite-Spin Scale   =       1.2000000000000000 [-]
	 SCS Same-Spin Energy      =      -0.1622129372758390 [Eh]
	 SCS Opposite-Spin Energy  =      -1.7765844098486989 [Eh]
	 SCS Correlation Energy    =      -1.9387973471245379 [Eh]
	 SCS Total Energy          =    -455.5943820414913716 [Eh]
	-----------------------------------------------------------

  Dipole Moment: [D]
     X:    -1.2819      Y:    -1.3316      Z:     1.0821     Total:     2.1418

*** Psi4 exiting successfully. Buy a developer a beer!
