                               Psi4 1.4a3.dev225

  ==> Input File <==

--------------------------------------------------------------------------
#psi4
#
memory 32 gb

molecule  {
0 1
  O        2.3476870     0.7564740    -0.5170070
  N        0.1051940     2.2022940     0.2485340
  N        2.3184480    -1.3288730     0.3923020
  C        0.2041490    -0.2277810    -0.0328410
  C       -0.5292580     0.9782650     0.0721850
  C       -0.4780620    -1.4467680    -0.1744800
  C       -1.9322610     0.8976940     0.1244170
  C       -1.9965875    -1.5733998    -0.1549422
  C       -2.5929860    -0.3189550    -0.0016080
  C        1.6942170    -0.1960210    -0.0707790
  H        0.0963370    -2.3571300    -0.3293910
  H       -2.5048800     1.8176440     0.2323000
  H       -2.3796530    -2.4547020    -0.2729900
  H       -3.6801520    -0.3414970     0.0246030
  H        1.0340450     2.2328410    -0.1623240
  H       -0.4673770     3.0011870     0.0009920
  H        1.8426920    -1.9076120     1.0707290
  H        3.3240540    -1.2501130     0.4893940
units angstrom
no_reorient  #important for SAPT in psi4, default
symmetry c1  #important for SAPT in psi4, default
}

set PROPERTIES_ORIGIN ["COM"]
properties('MP2/aug-cc-pvtz', properties = ['dipole'])
--------------------------------------------------------------------------

    Molecular point group: c1
  Charge       = 0
  Multiplicity = 1
  Basis Set: AUG-CC-PVTZ
    Blend: AUG-CC-PVTZ
  Basis Set: (AUG-CC-PVTZ AUX)
    Blend: AUG-CC-PVTZ-JKFIT

    Orbital Energies [Eh]
    ---------------------

    Doubly Occupied:

       1A    -20.528988     2A    -15.589114     3A    -15.562045
       4A    -11.366587     5A    -11.299482     6A    -11.271987
       7A    -11.253813     8A    -11.249351     9A    -11.235342
      10A    -11.231484    11A     -1.382632    12A     -1.227810
      13A     -1.215739    14A     -1.126206    15A     -1.037426
      16A     -0.993419    17A     -0.870934    18A     -0.841566
      19A     -0.799364    20A     -0.741412    21A     -0.696331
      22A     -0.690106    23A     -0.678059    24A     -0.649830
      25A     -0.610916    26A     -0.595494    27A     -0.587608
      28A     -0.573861    29A     -0.550164    30A     -0.524634
      31A     -0.498177    32A     -0.447568    33A     -0.436695
      34A     -0.421136    35A     -0.353695    36A     -0.298440

  @DF-RHF Final Energy:  -453.65796874462404

   => Energetics <=

    Nuclear Repulsion Energy =            497.2310709602260772
    One-Electron Energy =               -1602.9032528940313114
    Two-Electron Energy =                 652.0142131891811914
    Total Energy =                       -453.6579687446239859
  Basis Set: (AUG-CC-PVTZ AUX)
    Blend: AUG-CC-PVTZ-RI
    Molecular point group: c1

    Geometry (in Angstrom), charge = 0, multiplicity = 1:

       Center              X                  Y                   Z               Mass
    ------------   -----------------  -----------------  -----------------  -----------------
         O            2.339134426643     0.753405659575    -0.508989928736    15.994914619570
         N            0.096641426643     2.199225659575     0.256551071264    14.003074004430
         N            2.309895426643    -1.331941340425     0.400319071264    14.003074004430
         C            0.195596426643    -0.230849340425    -0.024823928736    12.000000000000
         C           -0.537810573357     0.975196659575     0.080202071264    12.000000000000
         C           -0.486614573357    -1.449836340425    -0.166462928736    12.000000000000
         C           -1.940813573357     0.894625659575     0.132434071264    12.000000000000
         C           -2.005140073357    -1.576468140425    -0.146925128736    12.000000000000
         C           -2.601538573357    -0.322023340425     0.006409071264    12.000000000000
         C            1.685664426643    -0.199089340425    -0.062761928736    12.000000000000
         H            0.087784426643    -2.360198340425    -0.321373928736     1.007825032230
         H           -2.513432573357     1.814575659575     0.240317071264     1.007825032230
         H           -2.388205573357    -2.457770340425    -0.264972928736     1.007825032230
         H           -3.688704573357    -0.344565340425     0.032620071264     1.007825032230
         H            1.025492426643     2.229772659575    -0.154306928736     1.007825032230
         H           -0.475929573357     2.998118659575     0.009009071264     1.007825032230
         H            1.834139426643    -1.910680340425     1.078746071264     1.007825032230
         H            3.315501426643    -1.253181340425     0.497411071264     1.007825032230

  Basis Set: AUG-CC-PVTZ
    Blend: AUG-CC-PVTZ
  Basis Set: (AUG-CC-PVTZ AUX)
    Blend: AUG-CC-PVTZ-JKFIT
	 Reference Energy          =    -453.6579687446240428 [Eh]
	 Singles Energy            =      -0.0000000000000000 [Eh]
	 Same-Spin Energy          =      -0.4860790318228542 [Eh]
	 Opposite-Spin Energy      =      -1.4807295023690772 [Eh]
	 Correlation Energy        =      -1.9668085341919315 [Eh]
	 Total Energy              =    -455.6247772788159978 [Eh]

	 ================> DF-SCS-MP2 Energies <==================
	-----------------------------------------------------------
	 SCS Same-Spin Scale       =       0.3333333333333333 [-]
	 SCS Opposite-Spin Scale   =       1.2000000000000000 [-]
	 SCS Same-Spin Energy      =      -0.1620263439409514 [Eh]
	 SCS Opposite-Spin Energy  =      -1.7768754028428926 [Eh]
	 SCS Correlation Energy    =      -1.9389017467838441 [Eh]
	 SCS Total Energy          =    -455.5968704914079126 [Eh]
	-----------------------------------------------------------

  Dipole Moment: [D]
     X:    -0.9817      Y:    -1.3507      Z:     1.0544     Total:     1.9748

*** Psi4 exiting successfully. Buy a developer a beer!
