                               Psi4 1.4a3.dev225

  ==> Input File <==

--------------------------------------------------------------------------
#psi4
#
memory 32 gb

molecule  {
0 1
  O        2.3476870     0.7564740    -0.5170070
  N        0.1051940     2.2022940     0.2485340
  N        2.3184480    -1.3288730     0.3923020
  C        0.2041490    -0.2277810    -0.0328410
  C       -0.5292580     0.9782650     0.0721850
  C       -0.4780620    -1.4467680    -0.1744800
  C       -1.9322610     0.8976940     0.1244170
  C       -1.8678090    -1.5041600    -0.1507450
  C       -2.5929860    -0.3189550    -0.0016080
  C        1.6942170    -0.1960210    -0.0707790
  H        0.0963370    -2.3571300    -0.3293910
  H       -2.5048800     1.8176440     0.2323000
  H       -2.3796530    -2.4547020    -0.2729900
  H       -3.6801520    -0.3414970     0.0246030
  H        1.0340450     2.2328410    -0.1623240
  H       -0.4560790     2.9854232     0.0058765
  H        1.8426920    -1.9076120     1.0707290
  H        3.3240540    -1.2501130     0.4893940
units angstrom
no_reorient  #important for SAPT in psi4, default
symmetry c1  #important for SAPT in psi4, default
}

set PROPERTIES_ORIGIN ["COM"]
properties('MP2/aug-cc-pvtz', properties = ['dipole'])
--------------------------------------------------------------------------

    Molecular point group: c1
  Charge       = 0
  Multiplicity = 1
  Basis Set: AUG-CC-PVTZ
    Blend: AUG-CC-PVTZ
  Basis Set: (AUG-CC-PVTZ AUX)
    Blend: AUG-CC-PVTZ-JKFIT

    Orbital Energies [Eh]
    ---------------------

    Doubly Occupied:

       1A    -20.526478     2A    -15.587745     3A    -15.558031
       4A    -11.363753     5A    -11.297176     6A    -11.255955
       7A    -11.253333     8A    -11.244395     9A    -11.234681
      10A    -11.232187    11A     -1.380266    12A     -1.229042
      13A     -1.214309    14A     -1.137834    15A     -1.036707
      16A     -0.999331    17A     -0.877377    18A     -0.834660
      19A     -0.792930    20A     -0.736650    21A     -0.700595
      22A     -0.688314    23A     -0.675004    24A     -0.637966
      25A     -0.609815    26A     -0.604418    27A     -0.587027
      28A     -0.575340    29A     -0.539552    30A     -0.523601
      31A     -0.510133    32A     -0.455362    33A     -0.435806
      34A     -0.420525    35A     -0.352258    36A     -0.303406

  @DF-RHF Final Energy:  -453.68703820534506

   => Energetics <=

    Nuclear Repulsion Energy =            499.8720070458533087
    One-Electron Energy =               -1608.2941640716303482
    Two-Electron Energy =                 654.7351188204320351
    Total Energy =                       -453.6870382053450612
  Basis Set: (AUG-CC-PVTZ AUX)
    Blend: AUG-CC-PVTZ-RI
    Molecular point group: c1

    Geometry (in Angstrom), charge = 0, multiplicity = 1:

       Center              X                  Y                   Z               Mass
    ------------   -----------------  -----------------  -----------------  -----------------
         O            2.327693249960     0.747415886623    -0.509396276178    15.994914619570
         N            0.085200249960     2.193235886623     0.256144723822    14.003074004430
         N            2.298454249960    -1.337931113377     0.399912723822    14.003074004430
         C            0.184155249960    -0.236839113377    -0.025230276178    12.000000000000
         C           -0.549251750040     0.969206886623     0.079795723822    12.000000000000
         C           -0.498055750040    -1.455826113377    -0.166869276178    12.000000000000
         C           -1.952254750040     0.888635886623     0.132027723822    12.000000000000
         C           -1.887802750040    -1.513218113377    -0.143134276178    12.000000000000
         C           -2.612979750040    -0.328013113377     0.006002723822    12.000000000000
         C            1.674223249960    -0.205079113377    -0.063168276178    12.000000000000
         H            0.076343249960    -2.366188113377    -0.321780276178     1.007825032230
         H           -2.524873750040     1.808585886623     0.239910723822     1.007825032230
         H           -2.399646750040    -2.463760113377    -0.265379276178     1.007825032230
         H           -3.700145750040    -0.350555113377     0.032213723822     1.007825032230
         H            1.014051249960     2.223782886623    -0.154713276178     1.007825032230
         H           -0.476072750040     2.976365086623     0.013487223822     1.007825032230
         H            1.822698249960    -1.916670113377     1.078339723822     1.007825032230
         H            3.304060249960    -1.259171113377     0.497004723822     1.007825032230

  Basis Set: AUG-CC-PVTZ
    Blend: AUG-CC-PVTZ
  Basis Set: (AUG-CC-PVTZ AUX)
    Blend: AUG-CC-PVTZ-JKFIT
	 Reference Energy          =    -453.6870382053450612 [Eh]
	 Singles Energy            =      -0.0000000000000000 [Eh]
	 Same-Spin Energy          =      -0.4860625917979448 [Eh]
	 Opposite-Spin Energy      =      -1.4785431737110222 [Eh]
	 Correlation Energy        =      -1.9646057655089670 [Eh]
	 Total Energy              =    -455.6516439708540247 [Eh]

	 ================> DF-SCS-MP2 Energies <==================
	-----------------------------------------------------------
	 SCS Same-Spin Scale       =       0.3333333333333333 [-]
	 SCS Opposite-Spin Scale   =       1.2000000000000000 [-]
	 SCS Same-Spin Energy      =      -0.1620208639326483 [Eh]
	 SCS Opposite-Spin Energy  =      -1.7742518084532266 [Eh]
	 SCS Correlation Energy    =      -1.9362726723858747 [Eh]
	 SCS Total Energy          =    -455.6233108777309440 [Eh]
	-----------------------------------------------------------

  Dipole Moment: [D]
     X:    -1.1237      Y:    -1.3661      Z:     1.0633     Total:     2.0639

*** Psi4 exiting successfully. Buy a developer a beer!
