                               Psi4 1.4a3.dev225

  ==> Input File <==

--------------------------------------------------------------------------
#psi4
#
memory 32 gb

molecule  {
0 1
  O        2.3476870     0.7564740    -0.5170070
  N        0.1051940     2.2022940     0.2485340
  N        2.3184480    -1.3288730     0.3923020
  C        0.2041490    -0.2277810    -0.0328410
  C       -0.5292580     0.9782650     0.0721850
  C       -0.4780620    -1.4467680    -0.1744800
  C       -1.9322610     0.8976940     0.1244170
  C       -1.8265811    -1.4781528    -0.1489800
  C       -2.5929860    -0.3189550    -0.0016080
  C        1.6942170    -0.1960210    -0.0707790
  H        0.0963370    -2.3571300    -0.3293910
  H       -2.5048800     1.8176440     0.2323000
  H       -2.3796530    -2.4547020    -0.2729900
  H       -3.6801520    -0.3414970     0.0246030
  H        1.0340450     2.2328410    -0.1623240
  H       -0.4673770     3.0011870     0.0009920
  H        1.8426920    -1.9076120     1.0707290
  H        3.3240540    -1.2501130     0.4893940
units angstrom
no_reorient  #important for SAPT in psi4, default
symmetry c1  #important for SAPT in psi4, default
}

set PROPERTIES_ORIGIN ["COM"]
properties('MP2/aug-cc-pvtz', properties = ['dipole'])
--------------------------------------------------------------------------

    Molecular point group: c1
  Charge       = 0
  Multiplicity = 1
  Basis Set: AUG-CC-PVTZ
    Blend: AUG-CC-PVTZ
  Basis Set: (AUG-CC-PVTZ AUX)
    Blend: AUG-CC-PVTZ-JKFIT

    Orbital Energies [Eh]
    ---------------------

    Doubly Occupied:

       1A    -20.525676     2A    -15.587331     3A    -15.559669
       4A    -11.362812     5A    -11.296637     6A    -11.253791
       7A    -11.249924     8A    -11.242820     9A    -11.235874
      10A    -11.231357    11A     -1.379511    12A     -1.227351
      13A     -1.213837    14A     -1.141826    15A     -1.037322
      16A     -1.000682    17A     -0.879828    18A     -0.831956
      19A     -0.791217    20A     -0.735087    21A     -0.700286
      22A     -0.689106    23A     -0.671938    24A     -0.633512
      25A     -0.609390    26A     -0.608054    27A     -0.585919
      28A     -0.576156    29A     -0.538212    30A     -0.526158
      31A     -0.502830    32A     -0.458290    33A     -0.435015
      34A     -0.420183    35A     -0.352669    36A     -0.304772

  @DF-RHF Final Energy:  -453.68363198343729

   => Energetics <=

    Nuclear Repulsion Energy =            500.6723831485679170
    One-Electron Energy =               -1609.9180286864184382
    Two-Electron Energy =                 655.5620135544132836
    Total Energy =                       -453.6836319834372944
  Basis Set: (AUG-CC-PVTZ AUX)
    Blend: AUG-CC-PVTZ-RI
    Molecular point group: c1

    Geometry (in Angstrom), charge = 0, multiplicity = 1:

       Center              X                  Y                   Z               Mass
    ------------   -----------------  -----------------  -----------------  -----------------
         O            2.324140880558     0.745005444736    -0.509515759060    15.994914619570
         N            0.081647880558     2.190825444736     0.256025240940    14.003074004430
         N            2.294901880558    -1.340341555264     0.399793240940    14.003074004430
         C            0.180602880558    -0.239249555264    -0.025349759060    12.000000000000
         C           -0.552804119442     0.966796444736     0.079676240940    12.000000000000
         C           -0.501608119442    -1.458236555264    -0.166988759060    12.000000000000
         C           -1.955807119442     0.886225444736     0.131908240940    12.000000000000
         C           -1.850127219442    -1.489621355264    -0.141488759060    12.000000000000
         C           -2.616532119442    -0.330423555264     0.005883240940    12.000000000000
         C            1.670670880558    -0.207489555264    -0.063287759060    12.000000000000
         H            0.072790880558    -2.368598555264    -0.321899759060     1.007825032230
         H           -2.528426119442     1.806175444736     0.239791240940     1.007825032230
         H           -2.403199119442    -2.466170555264    -0.265498759060     1.007825032230
         H           -3.703698119442    -0.352965555264     0.032094240940     1.007825032230
         H            1.010498880558     2.221372444736    -0.154832759060     1.007825032230
         H           -0.490923119442     2.989718444736     0.008483240940     1.007825032230
         H            1.819145880558    -1.919080555264     1.078220240940     1.007825032230
         H            3.300507880558    -1.261581555264     0.496885240940     1.007825032230

  Basis Set: AUG-CC-PVTZ
    Blend: AUG-CC-PVTZ
  Basis Set: (AUG-CC-PVTZ AUX)
    Blend: AUG-CC-PVTZ-JKFIT
	 Reference Energy          =    -453.6836319834372944 [Eh]
	 Singles Energy            =      -0.0000000000000000 [Eh]
	 Same-Spin Energy          =      -0.4863175514381599 [Eh]
	 Opposite-Spin Energy      =      -1.4789158686244943 [Eh]
	 Correlation Energy        =      -1.9652334200626542 [Eh]
	 Total Energy              =    -455.6488654034999399 [Eh]

	 ================> DF-SCS-MP2 Energies <==================
	-----------------------------------------------------------
	 SCS Same-Spin Scale       =       0.3333333333333333 [-]
	 SCS Opposite-Spin Scale   =       1.2000000000000000 [-]
	 SCS Same-Spin Energy      =      -0.1621058504793866 [Eh]
	 SCS Opposite-Spin Energy  =      -1.7746990423493931 [Eh]
	 SCS Correlation Energy    =      -1.9368048928287798 [Eh]
	 SCS Total Energy          =    -455.6204368762660692 [Eh]
	-----------------------------------------------------------

  Dipole Moment: [D]
     X:    -1.1640      Y:    -1.3380      Z:     1.0664     Total:     2.0694

*** Psi4 exiting successfully. Buy a developer a beer!
