                               Psi4 1.4a3.dev225

  ==> Input File <==

--------------------------------------------------------------------------
#psi4
#
memory 32 gb

molecule  {
0 1
  O        2.3476870     0.7564740    -0.5170070
  N        0.1051940     2.2022940     0.2485340
  N        2.3184480    -1.3288730     0.3923020
  C        0.2041490    -0.2277810    -0.0328410
  C       -0.5292580     0.9782650     0.0721850
  C       -0.4780620    -1.4467680    -0.1744800
  C       -1.9322610     0.8976940     0.1244170
  C       -1.8678090    -1.5041600    -0.1507450
  C       -2.5929860    -0.3189550    -0.0016080
  C        1.6942170    -0.1960210    -0.0707790
  H        0.0963370    -2.3571300    -0.3293910
  H       -2.5048800     1.8176440     0.2323000
  H       -2.3796530    -2.4547020    -0.2729900
  H       -3.6801520    -0.3414970     0.0246030
  H        1.0340450     2.2328410    -0.1623240
  H       -0.4673770     3.0011870     0.0009920
  H        1.8426920    -1.9076120     1.0707290
  H        3.2744360    -1.2539991     0.4846033
units angstrom
no_reorient  #important for SAPT in psi4, default
symmetry c1  #important for SAPT in psi4, default
}

set PROPERTIES_ORIGIN ["COM"]
properties('MP2/aug-cc-pvtz', properties = ['dipole'])
--------------------------------------------------------------------------

    Molecular point group: c1
  Charge       = 0
  Multiplicity = 1
  Basis Set: AUG-CC-PVTZ
    Blend: AUG-CC-PVTZ
  Basis Set: (AUG-CC-PVTZ AUX)
    Blend: AUG-CC-PVTZ-JKFIT

    Orbital Energies [Eh]
    ---------------------

    Doubly Occupied:

       1A    -20.526999     2A    -15.583193     3A    -15.560245
       4A    -11.364057     5A    -11.297294     6A    -11.256084
       7A    -11.253412     8A    -11.244393     9A    -11.234722
      10A    -11.232265    11A     -1.381255    12A     -1.227338
      13A     -1.220748    14A     -1.137538    15A     -1.037554
      16A     -0.998770    17A     -0.879524    18A     -0.834972
      19A     -0.794737    20A     -0.739703    21A     -0.702546
      22A     -0.688098    23A     -0.678079    24A     -0.638251
      25A     -0.609941    26A     -0.604655    27A     -0.586821
      28A     -0.576396    29A     -0.539731    30A     -0.523765
      31A     -0.510222    32A     -0.455287    33A     -0.436225
      34A     -0.421486    35A     -0.352387    36A     -0.303381

  @DF-RHF Final Energy:  -453.68614494558415

   => Energetics <=

    Nuclear Repulsion Energy =            500.0525572741315727
    One-Electron Energy =               -1608.6132510943102716
    Two-Electron Energy =                 654.8745488745944385
    Total Energy =                       -453.6861449455841466
  Basis Set: (AUG-CC-PVTZ AUX)
    Blend: AUG-CC-PVTZ-RI
    Molecular point group: c1

    Geometry (in Angstrom), charge = 0, multiplicity = 1:

       Center              X                  Y                   Z               Mass
    ------------   -----------------  -----------------  -----------------  -----------------
         O            2.328144455435     0.747327908369    -0.509324611866    15.994914619570
         N            0.085651455435     2.193147908369     0.256216388134    14.003074004430
         N            2.298905455435    -1.338019091631     0.399984388134    14.003074004430
         C            0.184606455435    -0.236927091631    -0.025158611866    12.000000000000
         C           -0.548800544565     0.969118908369     0.079867388134    12.000000000000
         C           -0.497604544565    -1.455914091631    -0.166797611866    12.000000000000
         C           -1.951803544565     0.888547908369     0.132099388134    12.000000000000
         C           -1.887351544565    -1.513306091631    -0.143062611866    12.000000000000
         C           -2.612528544565    -0.328101091631     0.006074388134    12.000000000000
         C            1.674674455435    -0.205167091631    -0.063096611866    12.000000000000
         H            0.076794455435    -2.366276091631    -0.321708611866     1.007825032230
         H           -2.524422544565     1.808497908369     0.239982388134     1.007825032230
         H           -2.399195544565    -2.463848091631    -0.265307611866     1.007825032230
         H           -3.699694544565    -0.350643091631     0.032285388134     1.007825032230
         H            1.014502455435     2.223694908369    -0.154641611866     1.007825032230
         H           -0.486919544565     2.992040908369     0.008674388134     1.007825032230
         H            1.823149455435    -1.916758091631     1.078411388134     1.007825032230
         H            3.254893455435    -1.263145191631     0.492285688134     1.007825032230

  Basis Set: AUG-CC-PVTZ
    Blend: AUG-CC-PVTZ
  Basis Set: (AUG-CC-PVTZ AUX)
    Blend: AUG-CC-PVTZ-JKFIT
	 Reference Energy          =    -453.6861449455841466 [Eh]
	 Singles Energy            =      -0.0000000000000000 [Eh]
	 Same-Spin Energy          =      -0.4858658288968441 [Eh]
	 Opposite-Spin Energy      =      -1.4781075007254869 [Eh]
	 Correlation Energy        =      -1.9639733296223310 [Eh]
	 Total Energy              =    -455.6501182752064665 [Eh]

	 ================> DF-SCS-MP2 Energies <==================
	-----------------------------------------------------------
	 SCS Same-Spin Scale       =       0.3333333333333333 [-]
	 SCS Opposite-Spin Scale   =       1.2000000000000000 [-]
	 SCS Same-Spin Energy      =      -0.1619552762989480 [Eh]
	 SCS Opposite-Spin Energy  =      -1.7737290008705842 [Eh]
	 SCS Correlation Energy    =      -1.9356842771695322 [Eh]
	 SCS Total Energy          =    -455.6218292227536608 [Eh]
	-----------------------------------------------------------

  Dipole Moment: [D]
     X:    -1.1798      Y:    -1.3520      Z:     1.0574     Total:     2.0828

*** Psi4 exiting successfully. Buy a developer a beer!
