                               Psi4 1.4a3.dev225

  ==> Input File <==

--------------------------------------------------------------------------
#psi4
#
memory 32 gb

molecule  {
0 1
  O        2.3476870     0.7564740    -0.5170070
  N        0.1051940     2.2022940     0.2485340
  N        2.3184480    -1.3288730     0.3923020
  C        0.2041490    -0.2277810    -0.0328410
  C       -0.5292580     0.9782650     0.0721850
  C       -0.4780620    -1.4467680    -0.1744800
  C       -1.9322610     0.8976940     0.1244170
  C       -1.8678090    -1.5041600    -0.1507450
  C       -2.5929860    -0.3189550    -0.0016080
  C        1.6942170    -0.1960210    -0.0707790
  H        0.0963370    -2.3571300    -0.3293910
  H       -2.5048800     1.8176440     0.2323000
  H       -2.3796530    -2.4547020    -0.2729900
  H       -3.6801520    -0.3414970     0.0246030
  H        1.0159892     2.2944626    -0.1924406
  H       -0.4673770     3.0011870     0.0009920
  H        1.8426920    -1.9076120     1.0707290
  H        3.3240540    -1.2501130     0.4893940
units angstrom
no_reorient  #important for SAPT in psi4, default
symmetry c1  #important for SAPT in psi4, default
}

set PROPERTIES_ORIGIN ["COM"]
properties('MP2/aug-cc-pvtz', properties = ['dipole'])
--------------------------------------------------------------------------

    Molecular point group: c1
  Charge       = 0
  Multiplicity = 1
  Basis Set: AUG-CC-PVTZ
    Blend: AUG-CC-PVTZ
  Basis Set: (AUG-CC-PVTZ AUX)
    Blend: AUG-CC-PVTZ-JKFIT

    Orbital Energies [Eh]
    ---------------------

    Doubly Occupied:

       1A    -20.525062     2A    -15.586949     3A    -15.560804
       4A    -11.362608     5A    -11.297780     6A    -11.255809
       7A    -11.253369     8A    -11.244590     9A    -11.235238
      10A    -11.232575    11A     -1.378537    12A     -1.227169
      13A     -1.213325    14A     -1.137440    15A     -1.036619
      16A     -0.999376    17A     -0.877130    18A     -0.834277
      19A     -0.792466    20A     -0.736388    21A     -0.698704
      22A     -0.687011    23A     -0.671430    24A     -0.637891
      25A     -0.609667    26A     -0.603533    27A     -0.584895
      28A     -0.574489    29A     -0.539564    30A     -0.523328
      31A     -0.510025    32A     -0.455695    33A     -0.434674
      34A     -0.419385    35A     -0.352134    36A     -0.304236

  @DF-RHF Final Energy:  -453.68616485659476

   => Energetics <=

    Nuclear Repulsion Energy =            499.5852571215469311
    One-Electron Energy =               -1607.7544950755479931
    Two-Electron Energy =                 654.4830730974063044
    Total Energy =                       -453.6861648565948144
  Basis Set: (AUG-CC-PVTZ AUX)
    Blend: AUG-CC-PVTZ-RI
    Molecular point group: c1

    Geometry (in Angstrom), charge = 0, multiplicity = 1:

       Center              X                  Y                   Z               Mass
    ------------   -----------------  -----------------  -----------------  -----------------
         O            2.327910673876     0.746842692122    -0.509137022649    15.994914619570
         N            0.085417673876     2.192662692122     0.256403977351    14.003074004430
         N            2.298671673876    -1.338504307878     0.400171977351    14.003074004430
         C            0.184372673876    -0.237412307878    -0.024971022649    12.000000000000
         C           -0.549034326124     0.968633692122     0.080054977351    12.000000000000
         C           -0.497838326124    -1.456399307878    -0.166610022649    12.000000000000
         C           -1.952037326124     0.888062692122     0.132286977351    12.000000000000
         C           -1.887585326124    -1.513791307878    -0.142875022649    12.000000000000
         C           -2.612762326124    -0.328586307878     0.006261977351    12.000000000000
         C            1.674440673876    -0.205652307878    -0.062909022649    12.000000000000
         H            0.076560673876    -2.366761307878    -0.321521022649     1.007825032230
         H           -2.524656326124     1.808012692122     0.240169977351     1.007825032230
         H           -2.399429326124    -2.464333307878    -0.265120022649     1.007825032230
         H           -3.699928326124    -0.351128307878     0.032472977351     1.007825032230
         H            0.996212873876     2.284831292122    -0.184570622649     1.007825032230
         H           -0.487153326124     2.991555692122     0.008861977351     1.007825032230
         H            1.822915673876    -1.917243307878     1.078598977351     1.007825032230
         H            3.304277673876    -1.259744307878     0.497263977351     1.007825032230

  Basis Set: AUG-CC-PVTZ
    Blend: AUG-CC-PVTZ
  Basis Set: (AUG-CC-PVTZ AUX)
    Blend: AUG-CC-PVTZ-JKFIT
	 Reference Energy          =    -453.6861648565947576 [Eh]
	 Singles Energy            =      -0.0000000000000000 [Eh]
	 Same-Spin Energy          =      -0.4860694604869845 [Eh]
	 Opposite-Spin Energy      =      -1.4788422333289595 [Eh]
	 Correlation Energy        =      -1.9649116938159441 [Eh]
	 Total Energy              =    -455.6510765504107212 [Eh]

	 ================> DF-SCS-MP2 Energies <==================
	-----------------------------------------------------------
	 SCS Same-Spin Scale       =       0.3333333333333333 [-]
	 SCS Opposite-Spin Scale   =       1.2000000000000000 [-]
	 SCS Same-Spin Energy      =      -0.1620231534956615 [Eh]
	 SCS Opposite-Spin Energy  =      -1.7746106799947514 [Eh]
	 SCS Correlation Energy    =      -1.9366338334904130 [Eh]
	 SCS Total Energy          =    -455.6227986900851761 [Eh]
	-----------------------------------------------------------

  Dipole Moment: [D]
     X:    -1.1757      Y:    -1.3154      Z:     1.0236     Total:     2.0397

*** Psi4 exiting successfully. Buy a developer a beer!
