                               Psi4 1.4a3.dev225

  ==> Input File <==

--------------------------------------------------------------------------
#psi4
#
memory 32 gb

molecule  {
0 1
  O        2.3476870     0.7564740    -0.5170070
  N        0.1051940     2.2022940     0.2485340
  N        2.3184480    -1.3288730     0.3923020
  C        0.2041490    -0.2277810    -0.0328410
  C       -0.5292580     0.9782650     0.0721850
  C       -0.4780620    -1.4467680    -0.1744800
  C       -1.9322610     0.8976940     0.1244170
  C       -1.8678090    -1.5041600    -0.1507450
  C       -2.5929860    -0.3189550    -0.0016080
  C        1.6942170    -0.1960210    -0.0707790
  H        0.0963370    -2.3571300    -0.3293910
  H       -2.5048800     1.8176440     0.2323000
  H       -2.3796530    -2.4547020    -0.2729900
  H       -3.6801520    -0.3414970     0.0246030
  H        1.0413806     2.2019556    -0.1465055
  H       -0.4673770     3.0011870     0.0009920
  H        1.8426920    -1.9076120     1.0707290
  H        3.3240540    -1.2501130     0.4893940
units angstrom
no_reorient  #important for SAPT in psi4, default
symmetry c1  #important for SAPT in psi4, default
}

set PROPERTIES_ORIGIN ["COM"]
properties('MP2/aug-cc-pvtz', properties = ['dipole'])
--------------------------------------------------------------------------

    Molecular point group: c1
  Charge       = 0
  Multiplicity = 1
  Basis Set: AUG-CC-PVTZ
    Blend: AUG-CC-PVTZ
  Basis Set: (AUG-CC-PVTZ AUX)
    Blend: AUG-CC-PVTZ-JKFIT

    Orbital Energies [Eh]
    ---------------------

    Doubly Occupied:

       1A    -20.527195     2A    -15.588123     3A    -15.559701
       4A    -11.364310     5A    -11.296877     6A    -11.255992
       7A    -11.253229     8A    -11.244288     9A    -11.234284
      10A    -11.231911    11A     -1.381137    12A     -1.227242
      13A     -1.214727    14A     -1.136921    15A     -1.036637
      16A     -0.998186    17A     -0.877413    18A     -0.833609
      19A     -0.793080    20A     -0.736411    21A     -0.699429
      22A     -0.688135    23A     -0.674496    24A     -0.637891
      25A     -0.608915    26A     -0.604150    27A     -0.586973
      28A     -0.575714    29A     -0.539425    30A     -0.523590
      31A     -0.510016    32A     -0.454869    33A     -0.436250
      34A     -0.421068    35A     -0.352274    36A     -0.302748

  @DF-RHF Final Energy:  -453.68648207468971

   => Energetics <=

    Nuclear Repulsion Energy =            499.8431179598468930
    One-Electron Energy =               -1608.2447696169738265
    Two-Electron Energy =                 654.7151695824371700
    Total Energy =                       -453.6864820746897067
  Basis Set: (AUG-CC-PVTZ AUX)
    Blend: AUG-CC-PVTZ-RI
    Molecular point group: c1

    Geometry (in Angstrom), charge = 0, multiplicity = 1:

       Center              X                  Y                   Z               Mass
    ------------   -----------------  -----------------  -----------------  -----------------
         O            2.327722599500     0.747527892478    -0.509477264435    15.994914619570
         N            0.085229599500     2.193347892478     0.256063735565    14.003074004430
         N            2.298483599500    -1.337819107522     0.399831735565    14.003074004430
         C            0.184184599500    -0.236727107522    -0.025311264435    12.000000000000
         C           -0.549222400500     0.969318892478     0.079714735565    12.000000000000
         C           -0.498026400500    -1.455714107522    -0.166950264435    12.000000000000
         C           -1.952225400500     0.888747892478     0.131946735565    12.000000000000
         C           -1.887773400500    -1.513106107522    -0.143215264435    12.000000000000
         C           -2.612950400500    -0.327901107522     0.005921735565    12.000000000000
         C            1.674252599500    -0.204967107522    -0.063249264435    12.000000000000
         H            0.076372599500    -2.366076107522    -0.321861264435     1.007825032230
         H           -2.524844400500     1.808697892478     0.239829735565     1.007825032230
         H           -2.399617400500    -2.463648107522    -0.265460264435     1.007825032230
         H           -3.700116400500    -0.350443107522     0.032132735565     1.007825032230
         H            1.021416199500     2.193009492478    -0.138975764435     1.007825032230
         H           -0.487341400500     2.992240892478     0.008521735565     1.007825032230
         H            1.822727599500    -1.916558107522     1.078258735565     1.007825032230
         H            3.304089599500    -1.259059107522     0.496923735565     1.007825032230

  Basis Set: AUG-CC-PVTZ
    Blend: AUG-CC-PVTZ
  Basis Set: (AUG-CC-PVTZ AUX)
    Blend: AUG-CC-PVTZ-JKFIT
	 Reference Energy          =    -453.6864820746897067 [Eh]
	 Singles Energy            =      -0.0000000000000000 [Eh]
	 Same-Spin Energy          =      -0.4862651463606282 [Eh]
	 Opposite-Spin Energy      =      -1.4789542911048508 [Eh]
	 Correlation Energy        =      -1.9652194374654790 [Eh]
	 Total Energy              =    -455.6517015121551708 [Eh]

	 ================> DF-SCS-MP2 Energies <==================
	-----------------------------------------------------------
	 SCS Same-Spin Scale       =       0.3333333333333333 [-]
	 SCS Opposite-Spin Scale   =       1.2000000000000000 [-]
	 SCS Same-Spin Energy      =      -0.1620883821202094 [Eh]
	 SCS Opposite-Spin Energy  =      -1.7747451493258208 [Eh]
	 SCS Correlation Energy    =      -1.9368335314460303 [Eh]
	 SCS Total Energy          =    -455.6233156061357477 [Eh]
	-----------------------------------------------------------

  Dipole Moment: [D]
     X:    -1.1061      Y:    -1.3752      Z:     1.0805     Total:     2.0693

*** Psi4 exiting successfully. Buy a developer a beer!
