                               Psi4 1.4a3.dev225

  ==> Input File <==

--------------------------------------------------------------------------
#psi4
#
memory 32 gb

molecule  {
0 1
  O        2.3476870     0.7564740    -0.5170070
  N        0.1051940     2.2022940     0.2485340
  N        2.3184480    -1.3288730     0.3923020
  C        0.2041490    -0.2277810    -0.0328410
  C       -0.5292580     0.9782650     0.0721850
  C       -0.4780620    -1.4467680    -0.1744800
  C       -1.9322610     0.8976940     0.1244170
  C       -1.8678090    -1.5041600    -0.1507450
  C       -2.5929860    -0.3189550    -0.0016080
  C        1.8244765    -0.1352735    -0.0754314
  H        0.0963370    -2.3571300    -0.3293910
  H       -2.5048800     1.8176440     0.2323000
  H       -2.3796530    -2.4547020    -0.2729900
  H       -3.6801520    -0.3414970     0.0246030
  H        1.0340450     2.2328410    -0.1623240
  H       -0.4673770     3.0011870     0.0009920
  H        1.8426920    -1.9076120     1.0707290
  H        3.3240540    -1.2501130     0.4893940
units angstrom
no_reorient  #important for SAPT in psi4, default
symmetry c1  #important for SAPT in psi4, default
}

set PROPERTIES_ORIGIN ["COM"]
properties('MP2/aug-cc-pvtz', properties = ['dipole'])
--------------------------------------------------------------------------

    Molecular point group: c1
  Charge       = 0
  Multiplicity = 1
  Basis Set: AUG-CC-PVTZ
    Blend: AUG-CC-PVTZ
  Basis Set: (AUG-CC-PVTZ AUX)
    Blend: AUG-CC-PVTZ-JKFIT

    Orbital Energies [Eh]
    ---------------------

    Doubly Occupied:

       1A    -20.549166     2A    -15.586130     3A    -15.557173
       4A    -11.362904     5A    -11.285204     6A    -11.245333
       7A    -11.242777     8A    -11.238358     9A    -11.227492
      10A    -11.225251    11A     -1.467241    12A     -1.225089
      13A     -1.220675    14A     -1.127994    15A     -1.018200
      16A     -0.988387    17A     -0.855389    18A     -0.822666
      19A     -0.796295    20A     -0.740470    21A     -0.693948
      22A     -0.689135    23A     -0.684327    24A     -0.649641
      25A     -0.620073    26A     -0.603715    27A     -0.591921
      28A     -0.587808    29A     -0.540389    30A     -0.524923
      31A     -0.503327    32A     -0.450984    33A     -0.445050
      34A     -0.416533    35A     -0.342284    36A     -0.295835

  @DF-RHF Final Energy:  -453.66526301940019

   => Energetics <=

    Nuclear Repulsion Energy =            499.5272845614359767
    One-Electron Energy =               -1607.5409220239030219
    Two-Electron Energy =                 654.3483744430669731
    Total Energy =                       -453.6652630194001858
  Basis Set: (AUG-CC-PVTZ AUX)
    Blend: AUG-CC-PVTZ-RI
    Molecular point group: c1

    Geometry (in Angstrom), charge = 0, multiplicity = 1:

       Center              X                  Y                   Z               Mass
    ------------   -----------------  -----------------  -----------------  -----------------
         O            2.316288826767     0.741941558382    -0.508949782822    15.994914619570
         N            0.073795826767     2.187761558382     0.256591217178    14.003074004430
         N            2.287049826767    -1.343405441618     0.400359217178    14.003074004430
         C            0.172750826767    -0.242313441618    -0.024783782822    12.000000000000
         C           -0.560656173233     0.963732558382     0.080242217178    12.000000000000
         C           -0.509460173233    -1.461300441618    -0.166422782822    12.000000000000
         C           -1.963659173233     0.883161558382     0.132474217178    12.000000000000
         C           -1.899207173233    -1.518692441618    -0.142687782822    12.000000000000
         C           -2.624384173233    -0.333487441618     0.006449217178    12.000000000000
         C            1.793078326767    -0.149805941618    -0.067374182822    12.000000000000
         H            0.064938826767    -2.371662441618    -0.321333782822     1.007825032230
         H           -2.536278173233     1.803111558382     0.240357217178     1.007825032230
         H           -2.411051173233    -2.469234441618    -0.264932782822     1.007825032230
         H           -3.711550173233    -0.356029441618     0.032660217178     1.007825032230
         H            1.002646826767     2.218308558382    -0.154266782822     1.007825032230
         H           -0.498775173233     2.986654558382     0.009049217178     1.007825032230
         H            1.811293826767    -1.922144441618     1.078786217178     1.007825032230
         H            3.292655826767    -1.264645441618     0.497451217178     1.007825032230

  Basis Set: AUG-CC-PVTZ
    Blend: AUG-CC-PVTZ
  Basis Set: (AUG-CC-PVTZ AUX)
    Blend: AUG-CC-PVTZ-JKFIT
	 Reference Energy          =    -453.6652630194001858 [Eh]
	 Singles Energy            =      -0.0000000000000000 [Eh]
	 Same-Spin Energy          =      -0.4840372250625731 [Eh]
	 Opposite-Spin Energy      =      -1.4745370664144506 [Eh]
	 Correlation Energy        =      -1.9585742914770237 [Eh]
	 Total Energy              =    -455.6238373108772066 [Eh]

	 ================> DF-SCS-MP2 Energies <==================
	-----------------------------------------------------------
	 SCS Same-Spin Scale       =       0.3333333333333333 [-]
	 SCS Opposite-Spin Scale   =       1.2000000000000000 [-]
	 SCS Same-Spin Energy      =      -0.1613457416875244 [Eh]
	 SCS Opposite-Spin Energy  =      -1.7694444796973408 [Eh]
	 SCS Correlation Energy    =      -1.9307902213848651 [Eh]
	 SCS Total Energy          =    -455.5960532407850678 [Eh]
	-----------------------------------------------------------

  Dipole Moment: [D]
     X:    -0.0944      Y:    -1.0340      Z:     0.8786     Total:     1.3602

*** Psi4 exiting successfully. Buy a developer a beer!
