                               Psi4 1.4a3.dev225

  ==> Input File <==

--------------------------------------------------------------------------
#psi4
#
memory 32 gb

molecule  {
0 1
  O        2.3476870     0.7564740    -0.5170070
  N        0.0617067     2.2230754     0.2540727
  N        2.3184480    -1.3288730     0.3923020
  C        0.2041490    -0.2277810    -0.0328410
  C       -0.5292580     0.9782650     0.0721850
  C       -0.4780620    -1.4467680    -0.1744800
  C       -1.9322610     0.8976940     0.1244170
  C       -1.8678090    -1.5041600    -0.1507450
  C       -2.5929860    -0.3189550    -0.0016080
  C        1.6942170    -0.1960210    -0.0707790
  H        0.0963370    -2.3571300    -0.3293910
  H       -2.5048800     1.8176440     0.2323000
  H       -2.3796530    -2.4547020    -0.2729900
  H       -3.6801520    -0.3414970     0.0246030
  H        1.0340450     2.2328410    -0.1623240
  H       -0.4673770     3.0011870     0.0009920
  H        1.8426920    -1.9076120     1.0707290
  H        3.3240540    -1.2501130     0.4893940
units angstrom
no_reorient  #important for SAPT in psi4, default
symmetry c1  #important for SAPT in psi4, default
}

set PROPERTIES_ORIGIN ["COM"]
properties('MP2/aug-cc-pvtz', properties = ['dipole'])
--------------------------------------------------------------------------

    Molecular point group: c1
  Charge       = 0
  Multiplicity = 1
  Basis Set: AUG-CC-PVTZ
    Blend: AUG-CC-PVTZ
  Basis Set: (AUG-CC-PVTZ AUX)
    Blend: AUG-CC-PVTZ-JKFIT

    Orbital Energies [Eh]
    ---------------------

    Doubly Occupied:

       1A    -20.527380     2A    -15.588199     3A    -15.559280
       4A    -11.364398     5A    -11.297308     6A    -11.256192
       7A    -11.252653     8A    -11.245380     9A    -11.233539
      10A    -11.232103    11A     -1.380894    12A     -1.227500
      13A     -1.214705    14A     -1.137232    15A     -1.036792
      16A     -0.998546    17A     -0.876960    18A     -0.835607
      19A     -0.791896    20A     -0.737464    21A     -0.703362
      22A     -0.681869    23A     -0.676960    24A     -0.636173
      25A     -0.612909    26A     -0.601851    27A     -0.583936
      28A     -0.575536    29A     -0.539126    30A     -0.522576
      31A     -0.511252    32A     -0.454943    33A     -0.435679
      34A     -0.421169    35A     -0.352222    36A     -0.303007

  @DF-RHF Final Energy:  -453.68331724143798

   => Energetics <=

    Nuclear Repulsion Energy =            499.4335284824636574
    One-Electron Energy =               -1607.4204949525592383
    Two-Electron Energy =                 654.3036492286574912
    Total Energy =                       -453.6833172414379760
  Basis Set: (AUG-CC-PVTZ AUX)
    Blend: AUG-CC-PVTZ-RI
    Molecular point group: c1

    Geometry (in Angstrom), charge = 0, multiplicity = 1:

       Center              X                  Y                   Z               Mass
    ------------   -----------------  -----------------  -----------------  -----------------
         O            2.332252456101     0.745160393658    -0.509930115287    15.994914619570
         N            0.046272156101     2.211761793658     0.261149584713    14.003074004430
         N            2.303013456101    -1.340186606342     0.399378884713    14.003074004430
         C            0.188714456101    -0.239094606342    -0.025764115287    12.000000000000
         C           -0.544692543899     0.966951393658     0.079261884713    12.000000000000
         C           -0.493496543899    -1.458081606342    -0.167403115287    12.000000000000
         C           -1.947695543899     0.886380393658     0.131493884713    12.000000000000
         C           -1.883243543899    -1.515473606342    -0.143668115287    12.000000000000
         C           -2.608420543899    -0.330268606342     0.005468884713    12.000000000000
         C            1.678782456101    -0.207334606342    -0.063702115287    12.000000000000
         H            0.080902456101    -2.368443606342    -0.322314115287     1.007825032230
         H           -2.520314543899     1.806330393658     0.239376884713     1.007825032230
         H           -2.395087543899    -2.466015606342    -0.265913115287     1.007825032230
         H           -3.695586543899    -0.352810606342     0.031679884713     1.007825032230
         H            1.018610456101     2.221527393658    -0.155247115287     1.007825032230
         H           -0.482811543899     2.989873393658     0.008068884713     1.007825032230
         H            1.827257456101    -1.918925606342     1.077805884713     1.007825032230
         H            3.308619456101    -1.261426606342     0.496470884713     1.007825032230

  Basis Set: AUG-CC-PVTZ
    Blend: AUG-CC-PVTZ
  Basis Set: (AUG-CC-PVTZ AUX)
    Blend: AUG-CC-PVTZ-JKFIT
	 Reference Energy          =    -453.6833172414379760 [Eh]
	 Singles Energy            =      -0.0000000000000000 [Eh]
	 Same-Spin Energy          =      -0.4862491141905037 [Eh]
	 Opposite-Spin Energy      =      -1.4790227980174357 [Eh]
	 Correlation Energy        =      -1.9652719122079394 [Eh]
	 Total Energy              =    -455.6485891536459008 [Eh]

	 ================> DF-SCS-MP2 Energies <==================
	-----------------------------------------------------------
	 SCS Same-Spin Scale       =       0.3333333333333333 [-]
	 SCS Opposite-Spin Scale   =       1.2000000000000000 [-]
	 SCS Same-Spin Energy      =      -0.1620830380635012 [Eh]
	 SCS Opposite-Spin Energy  =      -1.7748273576209228 [Eh]
	 SCS Correlation Energy    =      -1.9369103956844240 [Eh]
	 SCS Total Energy          =    -455.6202276371224116 [Eh]
	-----------------------------------------------------------

  Dipole Moment: [D]
     X:    -1.0767      Y:    -1.3891      Z:     1.0507     Total:     2.0476

*** Psi4 exiting successfully. Buy a developer a beer!
