                               Psi4 1.4a3.dev225

  ==> Input File <==

--------------------------------------------------------------------------
#psi4
#
memory 32 gb

molecule  {
0 1
  O        2.3476870     0.7564740    -0.5170070
  N        0.1051940     2.2022940     0.2485340
  N        2.3184480    -1.3288730     0.3923020
  C        0.2041490    -0.2277810    -0.0328410
  C       -0.5292580     0.9782650     0.0721850
  C       -0.4780620    -1.4467680    -0.1744800
  C       -1.9322610     0.8976940     0.1244170
  C       -1.8678090    -1.5041600    -0.1507450
  C       -2.5929860    -0.3189550    -0.0016080
  C        1.7369460    -0.1743570    -0.0728972
  H        0.0963370    -2.3571300    -0.3293910
  H       -2.5048800     1.8176440     0.2323000
  H       -2.3796530    -2.4547020    -0.2729900
  H       -3.6801520    -0.3414970     0.0246030
  H        1.0340450     2.2328410    -0.1623240
  H       -0.4673770     3.0011870     0.0009920
  H        1.8426920    -1.9076120     1.0707290
  H        3.3240540    -1.2501130     0.4893940
units angstrom
no_reorient  #important for SAPT in psi4, default
symmetry c1  #important for SAPT in psi4, default
}

set PROPERTIES_ORIGIN ["COM"]
properties('MP2/aug-cc-pvtz', properties = ['dipole'])
--------------------------------------------------------------------------

    Molecular point group: c1
  Charge       = 0
  Multiplicity = 1
  Basis Set: AUG-CC-PVTZ
    Blend: AUG-CC-PVTZ
  Basis Set: (AUG-CC-PVTZ AUX)
    Blend: AUG-CC-PVTZ-JKFIT

    Orbital Energies [Eh]
    ---------------------

    Doubly Occupied:

       1A    -20.533994     2A    -15.586657     3A    -15.559106
       4A    -11.363170     5A    -11.293202     6A    -11.252554
       7A    -11.249779     8A    -11.243494     9A    -11.232329
      10A    -11.229961    11A     -1.407638    12A     -1.225890
      13A     -1.217497    14A     -1.134103    15A     -1.030018
      16A     -0.995340    17A     -0.869791    18A     -0.830164
      19A     -0.793423    20A     -0.737742    21A     -0.696874
      22A     -0.686923    23A     -0.672688    24A     -0.645189
      25A     -0.607575    26A     -0.603662    27A     -0.590137
      28A     -0.580244    29A     -0.540830    30A     -0.524579
      31A     -0.507851    32A     -0.453569    33A     -0.438480
      34A     -0.424176    35A     -0.349178    36A     -0.300921

  @DF-RHF Final Energy:  -453.68685251928173

   => Energetics <=

    Nuclear Repulsion Energy =            499.6543586665865178
    One-Electron Energy =               -1607.8649657560447395
    Two-Electron Energy =                 654.5237545701766066
    Total Energy =                       -453.6868525192817287
  Basis Set: (AUG-CC-PVTZ AUX)
    Blend: AUG-CC-PVTZ-RI
    Molecular point group: c1

    Geometry (in Angstrom), charge = 0, multiplicity = 1:

       Center              X                  Y                   Z               Mass
    ------------   -----------------  -----------------  -----------------  -----------------
         O            2.324008492530     0.745388488959    -0.509173284082    15.994914619570
         N            0.081515492530     2.191208488959     0.256367715918    14.003074004430
         N            2.294769492530    -1.339958511041     0.400135715918    14.003074004430
         C            0.180470492530    -0.238866511041    -0.025007284082    12.000000000000
         C           -0.552936507470     0.967179488959     0.080018715918    12.000000000000
         C           -0.501740507470    -1.457853511041    -0.166646284082    12.000000000000
         C           -1.955939507470     0.886608488959     0.132250715918    12.000000000000
         C           -1.891487507470    -1.515245511041    -0.142911284082    12.000000000000
         C           -2.616664507470    -0.330040511041     0.006225715918    12.000000000000
         C            1.713267492530    -0.185442511041    -0.065063484082    12.000000000000
         H            0.072658492530    -2.368215511041    -0.321557284082     1.007825032230
         H           -2.528558507470     1.806558488959     0.240133715918     1.007825032230
         H           -2.403331507470    -2.465787511041    -0.265156284082     1.007825032230
         H           -3.703830507470    -0.352582511041     0.032436715918     1.007825032230
         H            1.010366492530     2.221755488959    -0.154490284082     1.007825032230
         H           -0.491055507470     2.990101488959     0.008825715918     1.007825032230
         H            1.819013492530    -1.918697511041     1.078562715918     1.007825032230
         H            3.300375492530    -1.261198511041     0.497227715918     1.007825032230

  Basis Set: AUG-CC-PVTZ
    Blend: AUG-CC-PVTZ
  Basis Set: (AUG-CC-PVTZ AUX)
    Blend: AUG-CC-PVTZ-JKFIT
	 Reference Energy          =    -453.6868525192817287 [Eh]
	 Singles Energy            =      -0.0000000000000000 [Eh]
	 Same-Spin Energy          =      -0.4852519712595467 [Eh]
	 Opposite-Spin Energy      =      -1.4770543822005369 [Eh]
	 Correlation Energy        =      -1.9623063534600835 [Eh]
	 Total Energy              =    -455.6491588727417934 [Eh]

	 ================> DF-SCS-MP2 Energies <==================
	-----------------------------------------------------------
	 SCS Same-Spin Scale       =       0.3333333333333333 [-]
	 SCS Opposite-Spin Scale   =       1.2000000000000000 [-]
	 SCS Same-Spin Energy      =      -0.1617506570865155 [Eh]
	 SCS Opposite-Spin Energy  =      -1.7724652586406442 [Eh]
	 SCS Correlation Energy    =      -1.9342159157271597 [Eh]
	 SCS Total Energy          =    -455.6210684350089082 [Eh]
	-----------------------------------------------------------

  Dipole Moment: [D]
     X:    -0.8061      Y:    -1.2535      Z:     0.9997     Total:     1.7946

*** Psi4 exiting successfully. Buy a developer a beer!
