                               Psi4 1.4a3.dev225

  ==> Input File <==

--------------------------------------------------------------------------
#psi4
#
memory 32 gb

molecule  {
0 1
  O        2.3476870     0.7564740    -0.5170070
  N        0.1051940     2.2022940     0.2485340
  N        2.3184480    -1.3288730     0.3923020
  C        0.2041490    -0.2277810    -0.0328410
  C       -0.5201287     0.9958780     0.0747225
  C       -0.4780620    -1.4467680    -0.1744800
  C       -1.9322610     0.8976940     0.1244170
  C       -1.8678090    -1.5041600    -0.1507450
  C       -2.5929860    -0.3189550    -0.0016080
  C        1.6942170    -0.1960210    -0.0707790
  H        0.0963370    -2.3571300    -0.3293910
  H       -2.5048800     1.8176440     0.2323000
  H       -2.3796530    -2.4547020    -0.2729900
  H       -3.6801520    -0.3414970     0.0246030
  H        1.0340450     2.2328410    -0.1623240
  H       -0.4673770     3.0011870     0.0009920
  H        1.8426920    -1.9076120     1.0707290
  H        3.3240540    -1.2501130     0.4893940
units angstrom
no_reorient  #important for SAPT in psi4, default
symmetry c1  #important for SAPT in psi4, default
}

set PROPERTIES_ORIGIN ["COM"]
properties('MP2/aug-cc-pvtz', properties = ['dipole'])
--------------------------------------------------------------------------

    Molecular point group: c1
  Charge       = 0
  Multiplicity = 1
  Basis Set: AUG-CC-PVTZ
    Blend: AUG-CC-PVTZ
  Basis Set: (AUG-CC-PVTZ AUX)
    Blend: AUG-CC-PVTZ-JKFIT

    Orbital Energies [Eh]
    ---------------------

    Doubly Occupied:

       1A    -20.526058     2A    -15.587068     3A    -15.562910
       4A    -11.362851     5A    -11.299092     6A    -11.255443
       7A    -11.252811     8A    -11.244101     9A    -11.234546
      10A    -11.230783    11A     -1.379933    12A     -1.234171
      13A     -1.213740    14A     -1.136696    15A     -1.034942
      16A     -0.996893    17A     -0.876225    18A     -0.833104
      19A     -0.792595    20A     -0.735689    21A     -0.700482
      22A     -0.690755    23A     -0.674920    24A     -0.638624
      25A     -0.610032    26A     -0.601787    27A     -0.586207
      28A     -0.574563    29A     -0.539994    30A     -0.524219
      31A     -0.508180    32A     -0.457616    33A     -0.435111
      34A     -0.420125    35A     -0.351510    36A     -0.300590

  @DF-RHF Final Energy:  -453.68603692926621

   => Energetics <=

    Nuclear Repulsion Energy =            499.6604453937571293
    One-Electron Energy =               -1607.8842361672063817
    Two-Electron Energy =                 654.5377538441830438
    Total Energy =                       -453.6860369292662654
  Basis Set: (AUG-CC-PVTZ AUX)
    Blend: AUG-CC-PVTZ-RI
    Molecular point group: c1

    Geometry (in Angstrom), charge = 0, multiplicity = 1:

       Center              X                  Y                   Z               Mass
    ------------   -----------------  -----------------  -----------------  -----------------
         O            2.326971784797     0.745745762892    -0.509583888933    15.994914619570
         N            0.084478784797     2.191565762892     0.255957111067    14.003074004430
         N            2.297732784797    -1.339601237108     0.399725111067    14.003074004430
         C            0.183433784797    -0.238509237108    -0.025417888933    12.000000000000
         C           -0.540843915203     0.985149762892     0.082145611067    12.000000000000
         C           -0.498777215203    -1.457496237108    -0.167056888933    12.000000000000
         C           -1.952976215203     0.886965762892     0.131840111067    12.000000000000
         C           -1.888524215203    -1.514888237108    -0.143321888933    12.000000000000
         C           -2.613701215203    -0.329683237108     0.005815111067    12.000000000000
         C            1.673501784797    -0.206749237108    -0.063355888933    12.000000000000
         H            0.075621784797    -2.367858237108    -0.321967888933     1.007825032230
         H           -2.525595215203     1.806915762892     0.239723111067     1.007825032230
         H           -2.400368215203    -2.465430237108    -0.265566888933     1.007825032230
         H           -3.700867215203    -0.352225237108     0.032026111067     1.007825032230
         H            1.013329784797     2.222112762892    -0.154900888933     1.007825032230
         H           -0.488092215203     2.990458762892     0.008415111067     1.007825032230
         H            1.821976784797    -1.918340237108     1.078152111067     1.007825032230
         H            3.303338784797    -1.260841237108     0.496817111067     1.007825032230

  Basis Set: AUG-CC-PVTZ
    Blend: AUG-CC-PVTZ
  Basis Set: (AUG-CC-PVTZ AUX)
    Blend: AUG-CC-PVTZ-JKFIT
	 Reference Energy          =    -453.6860369292662085 [Eh]
	 Singles Energy            =      -0.0000000000000000 [Eh]
	 Same-Spin Energy          =      -0.4862848806435721 [Eh]
	 Opposite-Spin Energy      =      -1.4789044941636444 [Eh]
	 Correlation Energy        =      -1.9651893748072164 [Eh]
	 Total Energy              =    -455.6512263040734183 [Eh]

	 ================> DF-SCS-MP2 Energies <==================
	-----------------------------------------------------------
	 SCS Same-Spin Scale       =       0.3333333333333333 [-]
	 SCS Opposite-Spin Scale   =       1.2000000000000000 [-]
	 SCS Same-Spin Energy      =      -0.1620949602145240 [Eh]
	 SCS Opposite-Spin Energy  =      -1.7746853929963733 [Eh]
	 SCS Correlation Energy    =      -1.9367803532108974 [Eh]
	 SCS Total Energy          =    -455.6228172824771150 [Eh]
	-----------------------------------------------------------

  Dipole Moment: [D]
     X:    -1.0815      Y:    -1.2255      Z:     1.0782     Total:     1.9581

*** Psi4 exiting successfully. Buy a developer a beer!
