                               Psi4 1.4a3.dev225

  ==> Input File <==

--------------------------------------------------------------------------
#psi4
#
memory 32 gb

molecule  {
0 1
  O        2.3476870     0.7564740    -0.5170070
  N        0.1051940     2.2022940     0.2485340
  N        2.3184480    -1.3288730     0.3923020
  C        0.2041490    -0.2277810    -0.0328410
  C       -0.5292580     0.9782650     0.0721850
  C       -0.4780620    -1.4467680    -0.1744800
  C       -1.9322610     0.8976940     0.1244170
  C       -1.8678090    -1.5041600    -0.1507450
  C       -2.5929860    -0.3189550    -0.0016080
  C        1.5707967    -0.2691802    -0.0610530
  H        0.0963370    -2.3571300    -0.3293910
  H       -2.5048800     1.8176440     0.2323000
  H       -2.3796530    -2.4547020    -0.2729900
  H       -3.6801520    -0.3414970     0.0246030
  H        1.0340450     2.2328410    -0.1623240
  H       -0.4673770     3.0011870     0.0009920
  H        1.8426920    -1.9076120     1.0707290
  H        3.3240540    -1.2501130     0.4893940
units angstrom
no_reorient  #important for SAPT in psi4, default
symmetry c1  #important for SAPT in psi4, default
}

set PROPERTIES_ORIGIN ["COM"]
properties('MP2/aug-cc-pvtz', properties = ['dipole'])
--------------------------------------------------------------------------

    Molecular point group: c1
  Charge       = 0
  Multiplicity = 1
  Basis Set: AUG-CC-PVTZ
    Blend: AUG-CC-PVTZ
  Basis Set: (AUG-CC-PVTZ AUX)
    Blend: AUG-CC-PVTZ-JKFIT

    Orbital Energies [Eh]
    ---------------------

    Doubly Occupied:

       1A    -20.501485     2A    -15.591857     3A    -15.563768
       4A    -11.362685     5A    -11.309917     6A    -11.266079
       7A    -11.264580     8A    -11.242575     9A    -11.241532
      10A    -11.238561    11A     -1.315595    12A     -1.231109
      13A     -1.194956    14A     -1.146629    15A     -1.059649
      16A     -1.007873    17A     -0.899247    18A     -0.844729
      19A     -0.793103    20A     -0.732268    21A     -0.704222
      22A     -0.692544    23A     -0.689304    24A     -0.631219
      25A     -0.613953    26A     -0.611025    27A     -0.571178
      28A     -0.559064    29A     -0.528710    30A     -0.518952
      31A     -0.515458    32A     -0.459640    33A     -0.416250
      34A     -0.399271    35A     -0.359062    36A     -0.309966

  @DF-RHF Final Energy:  -453.64755890402483

   => Energetics <=

    Nuclear Repulsion Energy =            500.2346076878781105
    One-Electron Energy =               -1608.9883010848413960
    Two-Electron Energy =                 655.1061344929383949
    Total Energy =                       -453.6475589040247769
  Basis Set: (AUG-CC-PVTZ AUX)
    Blend: AUG-CC-PVTZ-RI
    Molecular point group: c1

    Geometry (in Angstrom), charge = 0, multiplicity = 1:

       Center              X                  Y                   Z               Mass
    ------------   -----------------  -----------------  -----------------  -----------------
         O            2.338661865501     0.753751327176    -0.510217871571    15.994914619570
         N            0.096168865501     2.199571327176     0.255323128429    14.003074004430
         N            2.309422865501    -1.331595672824     0.399091128429    14.003074004430
         C            0.195123865501    -0.230503672824    -0.026051871571    12.000000000000
         C           -0.538283134499     0.975542327176     0.078974128429    12.000000000000
         C           -0.487087134499    -1.449490672824    -0.167690871571    12.000000000000
         C           -1.941286134499     0.894971327176     0.131206128429    12.000000000000
         C           -1.876834134499    -1.506882672824    -0.143955871571    12.000000000000
         C           -2.602011134499    -0.321677672824     0.005181128429    12.000000000000
         C            1.561771565501    -0.271902872824    -0.054263871571    12.000000000000
         H            0.087311865501    -2.359852672824    -0.322601871571     1.007825032230
         H           -2.513905134499     1.814921327176     0.239089128429     1.007825032230
         H           -2.388678134499    -2.457424672824    -0.266200871571     1.007825032230
         H           -3.689177134499    -0.344219672824     0.031392128429     1.007825032230
         H            1.025019865501     2.230118327176    -0.155534871571     1.007825032230
         H           -0.476402134499     2.998464327176     0.007781128429     1.007825032230
         H            1.833666865501    -1.910334672824     1.077518128429     1.007825032230
         H            3.315028865501    -1.252835672824     0.496183128429     1.007825032230

  Basis Set: AUG-CC-PVTZ
    Blend: AUG-CC-PVTZ
  Basis Set: (AUG-CC-PVTZ AUX)
    Blend: AUG-CC-PVTZ-JKFIT
	 Reference Energy          =    -453.6475589040248337 [Eh]
	 Singles Energy            =      -0.0000000000000000 [Eh]
	 Same-Spin Energy          =      -0.4898579308202592 [Eh]
	 Opposite-Spin Energy      =      -1.4859928235404682 [Eh]
	 Correlation Energy        =      -1.9758507543607275 [Eh]
	 Total Energy              =    -455.6234096583855830 [Eh]

	 ================> DF-SCS-MP2 Energies <==================
	-----------------------------------------------------------
	 SCS Same-Spin Scale       =       0.3333333333333333 [-]
	 SCS Opposite-Spin Scale   =       1.2000000000000000 [-]
	 SCS Same-Spin Energy      =      -0.1632859769400864 [Eh]
	 SCS Opposite-Spin Energy  =      -1.7831913882485619 [Eh]
	 SCS Correlation Energy    =      -1.9464773651886484 [Eh]
	 SCS Total Energy          =    -455.5940362692134613 [Eh]
	-----------------------------------------------------------

  Dipole Moment: [D]
     X:    -2.0406      Y:    -1.6147      Z:     1.2531     Total:     2.8882

*** Psi4 exiting successfully. Buy a developer a beer!
