                               Psi4 1.4a3.dev225

  ==> Input File <==

--------------------------------------------------------------------------
#psi4
#
memory 32 gb

molecule  {
0 1
  O        2.3476870     0.7564740    -0.5170070
  N        0.1051940     2.2022940     0.2485340
  N        2.3184480    -1.3288730     0.3923020
  C        0.2041490    -0.2277810    -0.0328410
  C       -0.5292580     0.9782650     0.0721850
  C       -0.4780620    -1.4467680    -0.1744800
  C       -1.9322610     0.8976940     0.1244170
  C       -1.8678090    -1.5041600    -0.1507450
  C       -2.5929860    -0.3189550    -0.0016080
  C        1.6942170    -0.1960210    -0.0707790
  H        0.0963370    -2.3571300    -0.3293910
  H       -2.5048800     1.8176440     0.2323000
  H       -2.3796530    -2.4547020    -0.2729900
  H       -3.6801520    -0.3414970     0.0246030
  H        1.0340450     2.2328410    -0.1623240
  H       -0.3543971     2.8435491     0.0498371
  H        1.8426920    -1.9076120     1.0707290
  H        3.3240540    -1.2501130     0.4893940
units angstrom
no_reorient  #important for SAPT in psi4, default
symmetry c1  #important for SAPT in psi4, default
}

set PROPERTIES_ORIGIN ["COM"]
properties('MP2/aug-cc-pvtz', properties = ['dipole'])
--------------------------------------------------------------------------

    Molecular point group: c1
  Charge       = 0
  Multiplicity = 1
  Basis Set: AUG-CC-PVTZ
    Blend: AUG-CC-PVTZ
  Basis Set: (AUG-CC-PVTZ AUX)
    Blend: AUG-CC-PVTZ-JKFIT

    Orbital Energies [Eh]
    ---------------------

    Doubly Occupied:

       1A    -20.526743     2A    -15.588053     3A    -15.537355
       4A    -11.364083     5A    -11.297387     6A    -11.256338
       7A    -11.253909     8A    -11.244828     9A    -11.235540
      10A    -11.232939    11A     -1.380607    12A     -1.255226
      13A     -1.214796    14A     -1.145602    15A     -1.037758
      16A     -1.007841    17A     -0.878365    18A     -0.845351
      19A     -0.793543    20A     -0.743433    21A     -0.722088
      22A     -0.690759    23A     -0.680947    24A     -0.638604
      25A     -0.616355    26A     -0.605750    27A     -0.590478
      28A     -0.575825    29A     -0.540338    30A     -0.524647
      31A     -0.511072    32A     -0.457720    33A     -0.436480
      34A     -0.420861    35A     -0.352667    36A     -0.305204

  @DF-RHF Final Energy:  -453.64181066071353

   => Energetics <=

    Nuclear Repulsion Energy =            501.0948248656933401
    One-Electron Energy =               -1610.4542855313586642
    Two-Electron Energy =                 655.7176500049516790
    Total Energy =                       -453.6418106607135314
  Basis Set: (AUG-CC-PVTZ AUX)
    Blend: AUG-CC-PVTZ-RI
    Molecular point group: c1

    Geometry (in Angstrom), charge = 0, multiplicity = 1:

       Center              X                  Y                   Z               Mass
    ------------   -----------------  -----------------  -----------------  -----------------
         O            2.326940091020     0.748466749626    -0.509721892820    15.994914619570
         N            0.084447091020     2.194286749626     0.255819107180    14.003074004430
         N            2.297701091020    -1.336880250374     0.399587107180    14.003074004430
         C            0.183402091020    -0.235788250374    -0.025555892820    12.000000000000
         C           -0.550004908980     0.970257749626     0.079470107180    12.000000000000
         C           -0.498808908980    -1.454775250374    -0.167194892820    12.000000000000
         C           -1.953007908980     0.889686749626     0.131702107180    12.000000000000
         C           -1.888555908980    -1.512167250374    -0.143459892820    12.000000000000
         C           -2.613732908980    -0.326962250374     0.005677107180    12.000000000000
         C            1.673470091020    -0.204028250374    -0.063493892820    12.000000000000
         H            0.075590091020    -2.365137250374    -0.322105892820     1.007825032230
         H           -2.525626908980     1.809636749626     0.239585107180     1.007825032230
         H           -2.400399908980    -2.462709250374    -0.265704892820     1.007825032230
         H           -3.700898908980    -0.349504250374     0.031888107180     1.007825032230
         H            1.013298091020     2.224833749626    -0.155038892820     1.007825032230
         H           -0.375144008980     2.835541849626     0.057122207180     1.007825032230
         H            1.821945091020    -1.915619250374     1.078014107180     1.007825032230
         H            3.303307091020    -1.258120250374     0.496679107180     1.007825032230

  Basis Set: AUG-CC-PVTZ
    Blend: AUG-CC-PVTZ
  Basis Set: (AUG-CC-PVTZ AUX)
    Blend: AUG-CC-PVTZ-JKFIT
	 Reference Energy          =    -453.6418106607135314 [Eh]
	 Singles Energy            =      -0.0000000000000000 [Eh]
	 Same-Spin Energy          =      -0.4851219829135940 [Eh]
	 Opposite-Spin Energy      =      -1.4761179331919290 [Eh]
	 Correlation Energy        =      -1.9612399161055230 [Eh]
	 Total Energy              =    -455.6030505768190437 [Eh]

	 ================> DF-SCS-MP2 Energies <==================
	-----------------------------------------------------------
	 SCS Same-Spin Scale       =       0.3333333333333333 [-]
	 SCS Opposite-Spin Scale   =       1.2000000000000000 [-]
	 SCS Same-Spin Energy      =      -0.1617073276378647 [Eh]
	 SCS Opposite-Spin Energy  =      -1.7713415198303146 [Eh]
	 SCS Correlation Energy    =      -1.9330488474681793 [Eh]
	 SCS Total Energy          =    -455.5748595081817029 [Eh]
	-----------------------------------------------------------

  Dipole Moment: [D]
     X:    -1.0838      Y:    -1.4865      Z:     1.0761     Total:     2.1313

*** Psi4 exiting successfully. Buy a developer a beer!
