                               Psi4 1.4a3.dev225

  ==> Input File <==

--------------------------------------------------------------------------
#psi4
#
memory 32 gb

molecule  {
0 1
  O        2.3476870     0.7564740    -0.5170070
  N        0.1051940     2.2022940     0.2485340
  N        2.3184480    -1.3288730     0.3923020
  C        0.2041490    -0.2277810    -0.0328410
  C       -0.5292580     0.9782650     0.0721850
  C       -0.4780620    -1.4467680    -0.1744800
  C       -1.9322610     0.8976940     0.1244170
  C       -1.8678090    -1.5041600    -0.1507450
  C       -2.5929860    -0.3189550    -0.0016080
  C        1.7441895    -0.1949559    -0.0720513
  H        0.0963370    -2.3571300    -0.3293910
  H       -2.5048800     1.8176440     0.2323000
  H       -2.3796530    -2.4547020    -0.2729900
  H       -3.6801520    -0.3414970     0.0246030
  H        1.0340450     2.2328410    -0.1623240
  H       -0.4673770     3.0011870     0.0009920
  H        1.8426920    -1.9076120     1.0707290
  H        3.3240540    -1.2501130     0.4893940
units angstrom
no_reorient  #important for SAPT in psi4, default
symmetry c1  #important for SAPT in psi4, default
}

set PROPERTIES_ORIGIN ["COM"]
properties('MP2/aug-cc-pvtz', properties = ['dipole'])
--------------------------------------------------------------------------

    Molecular point group: c1
  Charge       = 0
  Multiplicity = 1
  Basis Set: AUG-CC-PVTZ
    Blend: AUG-CC-PVTZ
  Basis Set: (AUG-CC-PVTZ AUX)
    Blend: AUG-CC-PVTZ-JKFIT

    Orbital Energies [Eh]
    ---------------------

    Doubly Occupied:

       1A    -20.530626     2A    -15.590819     3A    -15.557972
       4A    -11.363245     5A    -11.292862     6A    -11.251915
       7A    -11.249244     8A    -11.243636     9A    -11.231999
      10A    -11.229533    11A     -1.398808    12A     -1.226659
      13A     -1.223986    14A     -1.133710    15A     -1.029326
      16A     -0.994585    17A     -0.869207    18A     -0.830333
      19A     -0.796681    20A     -0.740758    21A     -0.697550
      22A     -0.685504    23A     -0.674091    24A     -0.642517
      25A     -0.606233    26A     -0.603386    27A     -0.587980
      28A     -0.578479    29A     -0.539982    30A     -0.523771
      31A     -0.507504    32A     -0.452821    33A     -0.436934
      34A     -0.424554    35A     -0.348687    36A     -0.300220

  @DF-RHF Final Energy:  -453.68642450879958

   => Energetics <=

    Nuclear Repulsion Energy =            499.5265660289969105
    One-Electron Energy =               -1607.6337504830494254
    Two-Electron Energy =                 654.4207599452529394
    Total Energy =                       -453.6864245087995187
  Basis Set: (AUG-CC-PVTZ AUX)
    Blend: AUG-CC-PVTZ-RI
    Molecular point group: c1

    Geometry (in Angstrom), charge = 0, multiplicity = 1:

       Center              X                  Y                   Z               Mass
    ------------   -----------------  -----------------  -----------------  -----------------
         O            2.323369659221     0.747205188545    -0.509247887395    15.994914619570
         N            0.080876659221     2.193025188545     0.256293112605    14.003074004430
         N            2.294130659221    -1.338141811455     0.400061112605    14.003074004430
         C            0.179831659221    -0.237049811455    -0.025081887395    12.000000000000
         C           -0.553575340779     0.968996188545     0.079944112605    12.000000000000
         C           -0.502379340779    -1.456036811455    -0.166720887395    12.000000000000
         C           -1.956578340779     0.888425188545     0.132176112605    12.000000000000
         C           -1.892126340779    -1.513428811455    -0.142985887395    12.000000000000
         C           -2.617303340779    -0.328223811455     0.006151112605    12.000000000000
         C            1.719872159221    -0.204224711455    -0.064292187395    12.000000000000
         H            0.072019659221    -2.366398811455    -0.321631887395     1.007825032230
         H           -2.529197340779     1.808375188545     0.240059112605     1.007825032230
         H           -2.403970340779    -2.463970811455    -0.265230887395     1.007825032230
         H           -3.704469340779    -0.350765811455     0.032362112605     1.007825032230
         H            1.009727659221     2.223572188545    -0.154564887395     1.007825032230
         H           -0.491694340779     2.991918188545     0.008751112605     1.007825032230
         H            1.818374659221    -1.916880811455     1.078488112605     1.007825032230
         H            3.299736659221    -1.259381811455     0.497153112605     1.007825032230

  Basis Set: AUG-CC-PVTZ
    Blend: AUG-CC-PVTZ
  Basis Set: (AUG-CC-PVTZ AUX)
    Blend: AUG-CC-PVTZ-JKFIT
	 Reference Energy          =    -453.6864245087995755 [Eh]
	 Singles Energy            =      -0.0000000000000000 [Eh]
	 Same-Spin Energy          =      -0.4854903559604091 [Eh]
	 Opposite-Spin Energy      =      -1.4773852634204798 [Eh]
	 Correlation Energy        =      -1.9628756193808889 [Eh]
	 Total Energy              =    -455.6493001281804709 [Eh]

	 ================> DF-SCS-MP2 Energies <==================
	-----------------------------------------------------------
	 SCS Same-Spin Scale       =       0.3333333333333333 [-]
	 SCS Opposite-Spin Scale   =       1.2000000000000000 [-]
	 SCS Same-Spin Energy      =      -0.1618301186534697 [Eh]
	 SCS Opposite-Spin Energy  =      -1.7728623161045758 [Eh]
	 SCS Correlation Energy    =      -1.9346924347580454 [Eh]
	 SCS Total Energy          =    -455.6211169435576380 [Eh]
	-----------------------------------------------------------

  Dipole Moment: [D]
     X:    -0.7322      Y:    -1.4027      Z:     1.0634     Total:     1.9064

*** Psi4 exiting successfully. Buy a developer a beer!
