                               Psi4 1.4a3.dev225

  ==> Input File <==

--------------------------------------------------------------------------
#psi4
#
memory 32 gb

molecule  {
0 1
  O        2.3476870     0.7564740    -0.5170070
  N        0.1051940     2.2022940     0.2485340
  N        2.3184480    -1.3288730     0.3923020
  C        0.2041490    -0.2277810    -0.0328410
  C       -0.5810729     1.0634716     0.0796050
  C       -0.4780620    -1.4467680    -0.1744800
  C       -1.9322610     0.8976940     0.1244170
  C       -1.8678090    -1.5041600    -0.1507450
  C       -2.5929860    -0.3189550    -0.0016080
  C        1.6942170    -0.1960210    -0.0707790
  H        0.0963370    -2.3571300    -0.3293910
  H       -2.5048800     1.8176440     0.2323000
  H       -2.3796530    -2.4547020    -0.2729900
  H       -3.6801520    -0.3414970     0.0246030
  H        1.0340450     2.2328410    -0.1623240
  H       -0.4673770     3.0011870     0.0009920
  H        1.8426920    -1.9076120     1.0707290
  H        3.3240540    -1.2501130     0.4893940
units angstrom
no_reorient  #important for SAPT in psi4, default
symmetry c1  #important for SAPT in psi4, default
}

set PROPERTIES_ORIGIN ["COM"]
properties('MP2/aug-cc-pvtz', properties = ['dipole'])
--------------------------------------------------------------------------

    Molecular point group: c1
  Charge       = 0
  Multiplicity = 1
  Basis Set: AUG-CC-PVTZ
    Blend: AUG-CC-PVTZ
  Basis Set: (AUG-CC-PVTZ AUX)
    Blend: AUG-CC-PVTZ-JKFIT

    Orbital Energies [Eh]
    ---------------------

    Doubly Occupied:

       1A    -20.525359     2A    -15.586072     3A    -15.566394
       4A    -11.362343     5A    -11.300298     6A    -11.255558
       7A    -11.254749     8A    -11.249457     9A    -11.228913
      10A    -11.226070    11A     -1.379051    12A     -1.245795
      13A     -1.212698    14A     -1.136046    15A     -1.032845
      16A     -0.996991    17A     -0.880261    18A     -0.822938
      19A     -0.794455    20A     -0.734118    21A     -0.705485
      22A     -0.696662    23A     -0.675139    24A     -0.641203
      25A     -0.613054    26A     -0.594084    27A     -0.585596
      28A     -0.572777    29A     -0.544160    30A     -0.530366
      31A     -0.493480    32A     -0.461053    33A     -0.434876
      34A     -0.419487    35A     -0.351263    36A     -0.297079

  @DF-RHF Final Energy:  -453.67457360703827

   => Energetics <=

    Nuclear Repulsion Energy =            498.9915815663067065
    One-Electron Energy =               -1606.5199600341964015
    Two-Electron Energy =                 653.8538048608514828
    Total Energy =                       -453.6745736070382691
  Basis Set: (AUG-CC-PVTZ AUX)
    Blend: AUG-CC-PVTZ-RI
    Molecular point group: c1

    Geometry (in Angstrom), charge = 0, multiplicity = 1:

       Center              X                  Y                   Z               Mass
    ------------   -----------------  -----------------  -----------------  -----------------
         O            2.332346698161     0.739784412280    -0.510014496185    15.994914619570
         N            0.089853698161     2.185604412280     0.255526503815    14.003074004430
         N            2.303107698161    -1.345562587720     0.399294503815    14.003074004430
         C            0.188808698161    -0.244470587720    -0.025848496185    12.000000000000
         C           -0.596413201839     1.046782012280     0.086597503815    12.000000000000
         C           -0.493402301839    -1.463457587720    -0.167487496185    12.000000000000
         C           -1.947601301839     0.881004412280     0.131409503815    12.000000000000
         C           -1.883149301839    -1.520849587720    -0.143752496185    12.000000000000
         C           -2.608326301839    -0.335644587720     0.005384503815    12.000000000000
         C            1.678876698161    -0.212710587720    -0.063786496185    12.000000000000
         H            0.080996698161    -2.373819587720    -0.322398496185     1.007825032230
         H           -2.520220301839     1.800954412280     0.239292503815     1.007825032230
         H           -2.394993301839    -2.471391587720    -0.265997496185     1.007825032230
         H           -3.695492301839    -0.358186587720     0.031595503815     1.007825032230
         H            1.018704698161     2.216151412280    -0.155331496185     1.007825032230
         H           -0.482717301839     2.984497412280     0.007984503815     1.007825032230
         H            1.827351698161    -1.924301587720     1.077721503815     1.007825032230
         H            3.308713698161    -1.266802587720     0.496386503815     1.007825032230

  Basis Set: AUG-CC-PVTZ
    Blend: AUG-CC-PVTZ
  Basis Set: (AUG-CC-PVTZ AUX)
    Blend: AUG-CC-PVTZ-JKFIT
	 Reference Energy          =    -453.6745736070382691 [Eh]
	 Singles Energy            =      -0.0000000000000000 [Eh]
	 Same-Spin Energy          =      -0.4865727657774727 [Eh]
	 Opposite-Spin Energy      =      -1.4794124330496192 [Eh]
	 Correlation Energy        =      -1.9659851988270920 [Eh]
	 Total Energy              =    -455.6405588058653393 [Eh]

	 ================> DF-SCS-MP2 Energies <==================
	-----------------------------------------------------------
	 SCS Same-Spin Scale       =       0.3333333333333333 [-]
	 SCS Opposite-Spin Scale   =       1.2000000000000000 [-]
	 SCS Same-Spin Energy      =      -0.1621909219258242 [Eh]
	 SCS Opposite-Spin Energy  =      -1.7752949196595431 [Eh]
	 SCS Correlation Energy    =      -1.9374858415853673 [Eh]
	 SCS Total Energy          =    -455.6120594486236541 [Eh]
	-----------------------------------------------------------

  Dipole Moment: [D]
     X:    -0.9905      Y:    -1.0787      Z:     1.0994     Total:     1.8312

*** Psi4 exiting successfully. Buy a developer a beer!
