                               Psi4 1.4a3.dev225

  ==> Input File <==

--------------------------------------------------------------------------
#psi4
#
memory 32 gb

molecule  {
0 1
  O        2.3476870     0.7564740    -0.5170070
  N        0.1051940     2.2022940     0.2485340
  N        2.3184480    -1.3288730     0.3923020
  C        0.2041490    -0.2277810    -0.0328410
  C       -0.5292580     0.9782650     0.0721850
  C       -0.4877796    -1.4641317    -0.1764976
  C       -1.9322610     0.8976940     0.1244170
  C       -1.8678090    -1.5041600    -0.1507450
  C       -2.5929860    -0.3189550    -0.0016080
  C        1.6942170    -0.1960210    -0.0707790
  H        0.0963370    -2.3571300    -0.3293910
  H       -2.5048800     1.8176440     0.2323000
  H       -2.3796530    -2.4547020    -0.2729900
  H       -3.6801520    -0.3414970     0.0246030
  H        1.0340450     2.2328410    -0.1623240
  H       -0.4673770     3.0011870     0.0009920
  H        1.8426920    -1.9076120     1.0707290
  H        3.3240540    -1.2501130     0.4893940
units angstrom
no_reorient  #important for SAPT in psi4, default
symmetry c1  #important for SAPT in psi4, default
}

set PROPERTIES_ORIGIN ["COM"]
properties('MP2/aug-cc-pvtz', properties = ['dipole'])
--------------------------------------------------------------------------

    Molecular point group: c1
  Charge       = 0
  Multiplicity = 1
  Basis Set: AUG-CC-PVTZ
    Blend: AUG-CC-PVTZ
  Basis Set: (AUG-CC-PVTZ AUX)
    Blend: AUG-CC-PVTZ-JKFIT

    Orbital Energies [Eh]
    ---------------------

    Doubly Occupied:

       1A    -20.525835     2A    -15.587366     3A    -15.560048
       4A    -11.363186     5A    -11.297229     6A    -11.255868
       7A    -11.253916     8A    -11.245116     9A    -11.235672
      10A    -11.231786    11A     -1.379646    12A     -1.226917
      13A     -1.213731    14A     -1.136684    15A     -1.034348
      16A     -1.000452    17A     -0.878072    18A     -0.833483
      19A     -0.792140    20A     -0.735484    21A     -0.699652
      22A     -0.688035    23A     -0.673318    24A     -0.637326
      25A     -0.610134    26A     -0.605389    27A     -0.585095
      28A     -0.575142    29A     -0.538983    30A     -0.523673
      31A     -0.510032    32A     -0.455443    33A     -0.435170
      34A     -0.420313    35A     -0.350113    36A     -0.304662

  @DF-RHF Final Energy:  -453.68613070388005

   => Energetics <=

    Nuclear Repulsion Energy =            499.4667007161145307
    One-Electron Energy =               -1607.5067363264349751
    Two-Electron Energy =                 654.3539049064404480
    Total Energy =                       -453.6861307038800533
  Basis Set: (AUG-CC-PVTZ AUX)
    Blend: AUG-CC-PVTZ-RI
    Molecular point group: c1

    Geometry (in Angstrom), charge = 0, multiplicity = 1:

       Center              X                  Y                   Z               Mass
    ------------   -----------------  -----------------  -----------------  -----------------
         O            2.328633968478     0.748830498310    -0.509182156399    15.994914619570
         N            0.086140968478     2.194650498310     0.256358843601    14.003074004430
         N            2.299394968478    -1.336516501690     0.400126843601    14.003074004430
         C            0.185095968478    -0.235424501690    -0.025016156399    12.000000000000
         C           -0.548311031522     0.970621498310     0.080009843601    12.000000000000
         C           -0.506832631522    -1.471775201690    -0.168672756399    12.000000000000
         C           -1.951314031522     0.890050498310     0.132241843601    12.000000000000
         C           -1.886862031522    -1.511803501690    -0.142920156399    12.000000000000
         C           -2.612039031522    -0.326598501690     0.006216843601    12.000000000000
         C            1.675163968478    -0.203664501690    -0.062954156399    12.000000000000
         H            0.077283968478    -2.364773501690    -0.321566156399     1.007825032230
         H           -2.523933031522     1.810000498310     0.240124843601     1.007825032230
         H           -2.398706031522    -2.462345501690    -0.265165156399     1.007825032230
         H           -3.699205031522    -0.349140501690     0.032427843601     1.007825032230
         H            1.014991968478     2.225197498310    -0.154499156399     1.007825032230
         H           -0.486430031522     2.993543498310     0.008816843601     1.007825032230
         H            1.823638968478    -1.915255501690     1.078553843601     1.007825032230
         H            3.305000968478    -1.257756501690     0.497218843601     1.007825032230

  Basis Set: AUG-CC-PVTZ
    Blend: AUG-CC-PVTZ
  Basis Set: (AUG-CC-PVTZ AUX)
    Blend: AUG-CC-PVTZ-JKFIT
	 Reference Energy          =    -453.6861307038800533 [Eh]
	 Singles Energy            =      -0.0000000000000000 [Eh]
	 Same-Spin Energy          =      -0.4861473999714589 [Eh]
	 Opposite-Spin Energy      =      -1.4789192282193897 [Eh]
	 Correlation Energy        =      -1.9650666281908487 [Eh]
	 Total Energy              =    -455.6511973320709217 [Eh]

	 ================> DF-SCS-MP2 Energies <==================
	-----------------------------------------------------------
	 SCS Same-Spin Scale       =       0.3333333333333333 [-]
	 SCS Opposite-Spin Scale   =       1.2000000000000000 [-]
	 SCS Same-Spin Energy      =      -0.1620491333238196 [Eh]
	 SCS Opposite-Spin Energy  =      -1.7747030738632676 [Eh]
	 SCS Correlation Energy    =      -1.9367522071870873 [Eh]
	 SCS Total Energy          =    -455.6228829110671654 [Eh]
	-----------------------------------------------------------

  Dipole Moment: [D]
     X:    -1.1555      Y:    -1.3523      Z:     1.0617     Total:     2.0715

*** Psi4 exiting successfully. Buy a developer a beer!
