                               Psi4 1.4a3.dev225

  ==> Input File <==

--------------------------------------------------------------------------
#psi4
#
memory 32 gb

molecule  {
0 1
  O        2.3476870     0.7564740    -0.5170070
  N        0.0617171     2.2238194     0.2488711
  N        2.3184480    -1.3288730     0.3923020
  C        0.2041490    -0.2277810    -0.0328410
  C       -0.5292580     0.9782650     0.0721850
  C       -0.4780620    -1.4467680    -0.1744800
  C       -1.9322610     0.8976940     0.1244170
  C       -1.8678090    -1.5041600    -0.1507450
  C       -2.5929860    -0.3189550    -0.0016080
  C        1.6942170    -0.1960210    -0.0707790
  H        0.0963370    -2.3571300    -0.3293910
  H       -2.5048800     1.8176440     0.2323000
  H       -2.3796530    -2.4547020    -0.2729900
  H       -3.6801520    -0.3414970     0.0246030
  H        1.0340450     2.2328410    -0.1623240
  H       -0.4673770     3.0011870     0.0009920
  H        1.8426920    -1.9076120     1.0707290
  H        3.3240540    -1.2501130     0.4893940
units angstrom
no_reorient  #important for SAPT in psi4, default
symmetry c1  #important for SAPT in psi4, default
}

set PROPERTIES_ORIGIN ["COM"]
properties('MP2/aug-cc-pvtz', properties = ['dipole'])
--------------------------------------------------------------------------

    Molecular point group: c1
  Charge       = 0
  Multiplicity = 1
  Basis Set: AUG-CC-PVTZ
    Blend: AUG-CC-PVTZ
  Basis Set: (AUG-CC-PVTZ AUX)
    Blend: AUG-CC-PVTZ-JKFIT

    Orbital Energies [Eh]
    ---------------------

    Doubly Occupied:

       1A    -20.527347     2A    -15.588170     3A    -15.558944
       4A    -11.364363     5A    -11.297413     6A    -11.256170
       7A    -11.252636     8A    -11.245315     9A    -11.233491
      10A    -11.232010    11A     -1.380868    12A     -1.227677
      13A     -1.214686    14A     -1.137297    15A     -1.036760
      16A     -0.998653    17A     -0.876959    18A     -0.835709
      19A     -0.791939    20A     -0.737503    21A     -0.703719
      22A     -0.682065    23A     -0.677289    24A     -0.636220
      25A     -0.613035    26A     -0.601908    27A     -0.584255
      28A     -0.575540    29A     -0.538944    30A     -0.522696
      31A     -0.511263    32A     -0.454762    33A     -0.435712
      34A     -0.421141    35A     -0.352207    36A     -0.302808

  @DF-RHF Final Energy:  -453.68347364834642

   => Energetics <=

    Nuclear Repulsion Energy =            499.4481876930028648
    One-Electron Energy =               -1607.4483749353712483
    Two-Electron Energy =                 654.3167135940219623
    Total Energy =                       -453.6834736483464212
  Basis Set: (AUG-CC-PVTZ AUX)
    Blend: AUG-CC-PVTZ-RI
    Molecular point group: c1

    Geometry (in Angstrom), charge = 0, multiplicity = 1:

       Center              X                  Y                   Z               Mass
    ------------   -----------------  -----------------  -----------------  -----------------
         O            2.332251385779     0.745083824449    -0.509394789483    15.994914619570
         N            0.046281485779     2.212429224449     0.256483310517    14.003074004430
         N            2.303012385779    -1.340263175551     0.399914210517    14.003074004430
         C            0.188713385779    -0.239171175551    -0.025228789483    12.000000000000
         C           -0.544693614221     0.966874824449     0.079797210517    12.000000000000
         C           -0.493497614221    -1.458158175551    -0.166867789483    12.000000000000
         C           -1.947696614221     0.886303824449     0.132029210517    12.000000000000
         C           -1.883244614221    -1.515550175551    -0.143132789483    12.000000000000
         C           -2.608421614221    -0.330345175551     0.006004210517    12.000000000000
         C            1.678781385779    -0.207411175551    -0.063166789483    12.000000000000
         H            0.080901385779    -2.368520175551    -0.321778789483     1.007825032230
         H           -2.520315614221     1.806253824449     0.239912210517     1.007825032230
         H           -2.395088614221    -2.466092175551    -0.265377789483     1.007825032230
         H           -3.695587614221    -0.352887175551     0.032215210517     1.007825032230
         H            1.018609385779     2.221450824449    -0.154711789483     1.007825032230
         H           -0.482812614221     2.989796824449     0.008604210517     1.007825032230
         H            1.827256385779    -1.919002175551     1.078341210517     1.007825032230
         H            3.308618385779    -1.261503175551     0.497006210517     1.007825032230

  Basis Set: AUG-CC-PVTZ
    Blend: AUG-CC-PVTZ
  Basis Set: (AUG-CC-PVTZ AUX)
    Blend: AUG-CC-PVTZ-JKFIT
	 Reference Energy          =    -453.6834736483464212 [Eh]
	 Singles Energy            =      -0.0000000000000000 [Eh]
	 Same-Spin Energy          =      -0.4862194160884625 [Eh]
	 Opposite-Spin Energy      =      -1.4789399410871464 [Eh]
	 Correlation Energy        =      -1.9651593571756090 [Eh]
	 Total Energy              =    -455.6486330055220151 [Eh]

	 ================> DF-SCS-MP2 Energies <==================
	-----------------------------------------------------------
	 SCS Same-Spin Scale       =       0.3333333333333333 [-]
	 SCS Opposite-Spin Scale   =       1.2000000000000000 [-]
	 SCS Same-Spin Energy      =      -0.1620731386961542 [Eh]
	 SCS Opposite-Spin Energy  =      -1.7747279293045757 [Eh]
	 SCS Correlation Energy    =      -1.9368010680007299 [Eh]
	 SCS Total Energy          =    -455.6202747163471258 [Eh]
	-----------------------------------------------------------

  Dipole Moment: [D]
     X:    -1.0747      Y:    -1.3813      Z:     1.0613     Total:     2.0467

*** Psi4 exiting successfully. Buy a developer a beer!
