                               Psi4 1.4a3.dev225

  ==> Input File <==

--------------------------------------------------------------------------
#psi4
#
memory 32 gb

molecule  {
0 1
  O        2.3476870     0.7564740    -0.5170070
  N        0.1051940     2.2022940     0.2485340
  N        2.3184480    -1.3288730     0.3923020
  C        0.2041490    -0.2277810    -0.0328410
  C       -0.5292580     0.9782650     0.0721850
  C       -0.4780620    -1.4467680    -0.1744800
  C       -1.9322610     0.8976940     0.1244170
  C       -1.9528640    -1.5518126    -0.1537279
  C       -2.5929860    -0.3189550    -0.0016080
  C        1.6942170    -0.1960210    -0.0707790
  H        0.0963370    -2.3571300    -0.3293910
  H       -2.5048800     1.8176440     0.2323000
  H       -2.3796530    -2.4547020    -0.2729900
  H       -3.6801520    -0.3414970     0.0246030
  H        1.0340450     2.2328410    -0.1623240
  H       -0.4673770     3.0011870     0.0009920
  H        1.8426920    -1.9076120     1.0707290
  H        3.3240540    -1.2501130     0.4893940
units angstrom
no_reorient  #important for SAPT in psi4, default
symmetry c1  #important for SAPT in psi4, default
}

set PROPERTIES_ORIGIN ["COM"]
properties('MP2/aug-cc-pvtz', properties = ['dipole'])
--------------------------------------------------------------------------

    Molecular point group: c1
  Charge       = 0
  Multiplicity = 1
  Basis Set: AUG-CC-PVTZ
    Blend: AUG-CC-PVTZ
  Basis Set: (AUG-CC-PVTZ AUX)
    Blend: AUG-CC-PVTZ-JKFIT

    Orbital Energies [Eh]
    ---------------------

    Doubly Occupied:

       1A    -20.528159     2A    -15.588647     3A    -15.561286
       4A    -11.365663     5A    -11.298603     6A    -11.267110
       7A    -11.253268     8A    -11.247715     9A    -11.234095
      10A    -11.232413    11A     -1.381843    12A     -1.227448
      13A     -1.215235    14A     -1.129309    15A     -1.036835
      16A     -0.994792    17A     -0.872801    18A     -0.838588
      19A     -0.796905    20A     -0.739576    21A     -0.696753
      22A     -0.687835    23A     -0.677181    24A     -0.646609
      25A     -0.610180    26A     -0.597528    27A     -0.587213
      28A     -0.574027    29A     -0.546641    30A     -0.523882
      31A     -0.505444    32A     -0.449783    33A     -0.436630
      34A     -0.421052    35A     -0.352816    36A     -0.300002

  @DF-RHF Final Energy:  -453.67360933493683

   => Energetics <=

    Nuclear Repulsion Energy =            498.0348865549585753
    One-Electron Energy =               -1604.5692604898763420
    Two-Electron Energy =                 652.8607645999809392
    Total Energy =                       -453.6736093349368275
  Basis Set: (AUG-CC-PVTZ AUX)
    Blend: AUG-CC-PVTZ-RI
    Molecular point group: c1

    Geometry (in Angstrom), charge = 0, multiplicity = 1:

       Center              X                  Y                   Z               Mass
    ------------   -----------------  -----------------  -----------------  -----------------
         O            2.335278275862     0.751501797850    -0.509097022722    15.994914619570
         N            0.092785275862     2.197321797850     0.256443977278    14.003074004430
         N            2.306039275862    -1.333845202150     0.400211977278    14.003074004430
         C            0.191740275862    -0.232753202150    -0.024931022722    12.000000000000
         C           -0.541666724138     0.973292797850     0.080094977278    12.000000000000
         C           -0.490470724138    -1.451740202150    -0.166570022722    12.000000000000
         C           -1.944669724138     0.892721797850     0.132326977278    12.000000000000
         C           -1.965272724138    -1.556784802150    -0.145817922722    12.000000000000
         C           -2.605394724138    -0.323927202150     0.006301977278    12.000000000000
         C            1.681808275862    -0.200993202150    -0.062869022722    12.000000000000
         H            0.083928275862    -2.362102202151    -0.321481022722     1.007825032230
         H           -2.517288724138     1.812671797850     0.240209977278     1.007825032230
         H           -2.392061724138    -2.459674202150    -0.265080022722     1.007825032230
         H           -3.692560724138    -0.346469202150     0.032512977278     1.007825032230
         H            1.021636275862     2.227868797850    -0.154414022722     1.007825032230
         H           -0.479785724138     2.996214797849     0.008901977278     1.007825032230
         H            1.830283275862    -1.912584202150     1.078638977278     1.007825032230
         H            3.311645275862    -1.255085202150     0.497303977278     1.007825032230

  Basis Set: AUG-CC-PVTZ
    Blend: AUG-CC-PVTZ
  Basis Set: (AUG-CC-PVTZ AUX)
    Blend: AUG-CC-PVTZ-JKFIT
	 Reference Energy          =    -453.6736093349368275 [Eh]
	 Singles Energy            =      -0.0000000000000000 [Eh]
	 Same-Spin Energy          =      -0.4860682075346576 [Eh]
	 Opposite-Spin Energy      =      -1.4798103627815189 [Eh]
	 Correlation Energy        =      -1.9658785703161765 [Eh]
	 Total Energy              =    -455.6394879052530200 [Eh]

	 ================> DF-SCS-MP2 Energies <==================
	-----------------------------------------------------------
	 SCS Same-Spin Scale       =       0.3333333333333333 [-]
	 SCS Opposite-Spin Scale   =       1.2000000000000000 [-]
	 SCS Same-Spin Energy      =      -0.1620227358448859 [Eh]
	 SCS Opposite-Spin Energy  =      -1.7757724353378226 [Eh]
	 SCS Correlation Energy    =      -1.9377951711827084 [Eh]
	 SCS Total Energy          =    -455.6114045061195270 [Eh]
	-----------------------------------------------------------

  Dipole Moment: [D]
     X:    -1.0358      Y:    -1.3599      Z:     1.0556     Total:     2.0091

*** Psi4 exiting successfully. Buy a developer a beer!
