                               Psi4 1.4a3.dev225

  ==> Input File <==

--------------------------------------------------------------------------
#psi4
#
memory 32 gb

molecule  {
0 1
  O        2.3476870     0.7564740    -0.5170070
  N        0.1051940     2.2022940     0.2485340
  N        2.3184480    -1.3288730     0.3923020
  C        0.2041490    -0.2277810    -0.0328410
  C       -0.5292580     0.9782650     0.0721850
  C       -0.4780620    -1.4467680    -0.1744800
  C       -1.9322610     0.8976940     0.1244170
  C       -1.8678090    -1.5041600    -0.1507450
  C       -2.5929860    -0.3189550    -0.0016080
  C        1.6942170    -0.1960210    -0.0707790
  H        0.0963370    -2.3571300    -0.3293910
  H       -2.5048800     1.8176440     0.2323000
  H       -2.3796530    -2.4547020    -0.2729900
  H       -3.6801520    -0.3414970     0.0246030
  H        1.0340450     2.2328410    -0.1623240
  H       -0.4391320     2.9617775     0.0132033
  H        1.8426920    -1.9076120     1.0707290
  H        3.3240540    -1.2501130     0.4893940
units angstrom
no_reorient  #important for SAPT in psi4, default
symmetry c1  #important for SAPT in psi4, default
}

set PROPERTIES_ORIGIN ["COM"]
properties('MP2/aug-cc-pvtz', properties = ['dipole'])
--------------------------------------------------------------------------

    Molecular point group: c1
  Charge       = 0
  Multiplicity = 1
  Basis Set: AUG-CC-PVTZ
    Blend: AUG-CC-PVTZ
  Basis Set: (AUG-CC-PVTZ AUX)
    Blend: AUG-CC-PVTZ-JKFIT

    Orbital Energies [Eh]
    ---------------------

    Doubly Occupied:

       1A    -20.526500     2A    -15.587779     3A    -15.554834
       4A    -11.363786     5A    -11.297186     6A    -11.256003
       7A    -11.253420     8A    -11.244428     9A    -11.234804
      10A    -11.232288    11A     -1.380298    12A     -1.232156
      13A     -1.214389    14A     -1.139013    15A     -1.036844
      16A     -1.000541    17A     -0.877495    18A     -0.836076
      19A     -0.793013    20A     -0.737156    21A     -0.703737
      22A     -0.688846    23A     -0.676748    24A     -0.638050
      25A     -0.611024    26A     -0.604734    27A     -0.587869
      28A     -0.575403    29A     -0.539669    30A     -0.523750
      31A     -0.510296    32A     -0.455712    33A     -0.435902
      34A     -0.420562    35A     -0.352313    36A     -0.303666

  @DF-RHF Final Energy:  -453.68616081093359

   => Energetics <=

    Nuclear Repulsion Energy =            500.0529023686662526
    One-Electron Energy =               -1608.6255445519805107
    Two-Electron Energy =                 654.8864813723805582
    Total Energy =                       -453.6861608109336430
  Basis Set: (AUG-CC-PVTZ AUX)
    Blend: AUG-CC-PVTZ-RI
    Molecular point group: c1

    Geometry (in Angstrom), charge = 0, multiplicity = 1:

       Center              X                  Y                   Z               Mass
    ------------   -----------------  -----------------  -----------------  -----------------
         O            2.327567723347     0.747591030580    -0.509450545865    15.994914619570
         N            0.085074723347     2.193411030580     0.256090454135    14.003074004430
         N            2.298328723347    -1.337755969420     0.399858454135    14.003074004430
         C            0.184029723347    -0.236663969420    -0.025284545865    12.000000000000
         C           -0.549377276653     0.969382030580     0.079741454135    12.000000000000
         C           -0.498181276653    -1.455650969420    -0.166923545865    12.000000000000
         C           -1.952380276653     0.888811030580     0.131973454135    12.000000000000
         C           -1.887928276653    -1.513042969420    -0.143188545865    12.000000000000
         C           -2.613105276653    -0.327837969420     0.005948454135    12.000000000000
         C            1.674097723347    -0.204903969420    -0.063222545865    12.000000000000
         H            0.076217723347    -2.366012969420    -0.321834545865     1.007825032230
         H           -2.524999276653     1.808761030580     0.239856454135     1.007825032230
         H           -2.399772276653    -2.463584969420    -0.265433545865     1.007825032230
         H           -3.700271276653    -0.350379969420     0.032159454135     1.007825032230
         H            1.013925723347     2.223958030580    -0.154767545865     1.007825032230
         H           -0.459251276653     2.952894530580     0.020759754135     1.007825032230
         H            1.822572723347    -1.916494969420     1.078285454135     1.007825032230
         H            3.303934723347    -1.258995969420     0.496950454135     1.007825032230

  Basis Set: AUG-CC-PVTZ
    Blend: AUG-CC-PVTZ
  Basis Set: (AUG-CC-PVTZ AUX)
    Blend: AUG-CC-PVTZ-JKFIT
	 Reference Energy          =    -453.6861608109335862 [Eh]
	 Singles Energy            =      -0.0000000000000000 [Eh]
	 Same-Spin Energy          =      -0.4858833407584713 [Eh]
	 Opposite-Spin Energy      =      -1.4780466951086824 [Eh]
	 Correlation Energy        =      -1.9639300358671536 [Eh]
	 Total Energy              =    -455.6500908468007651 [Eh]

	 ================> DF-SCS-MP2 Energies <==================
	-----------------------------------------------------------
	 SCS Same-Spin Scale       =       0.3333333333333333 [-]
	 SCS Opposite-Spin Scale   =       1.2000000000000000 [-]
	 SCS Same-Spin Energy      =      -0.1619611135861571 [Eh]
	 SCS Opposite-Spin Energy  =      -1.7736560341304188 [Eh]
	 SCS Correlation Energy    =      -1.9356171477165760 [Eh]
	 SCS Total Energy          =    -455.6217779586501706 [Eh]
	-----------------------------------------------------------

  Dipole Moment: [D]
     X:    -1.1167      Y:    -1.3838      Z:     1.0660     Total:     2.0732

*** Psi4 exiting successfully. Buy a developer a beer!
