                               Psi4 1.4a3.dev225

  ==> Input File <==

--------------------------------------------------------------------------
#psi4
#
memory 32 gb

molecule  {
0 1
  O        2.3476870     0.7564740    -0.5170070
  N        0.1051940     2.2022940     0.2485340
  N        2.3184480    -1.3288730     0.3923020
  C        0.2041490    -0.2277810    -0.0328410
  C       -0.5292580     0.9782650     0.0721850
  C       -0.4780620    -1.4467680    -0.1744800
  C       -1.9322610     0.8976940     0.1244170
  C       -1.8678090    -1.5041600    -0.1507450
  C       -2.4641493    -0.2502904     0.0074441
  C        1.6942170    -0.1960210    -0.0707790
  H        0.0963370    -2.3571300    -0.3293910
  H       -2.5048800     1.8176440     0.2323000
  H       -2.3796530    -2.4547020    -0.2729900
  H       -3.6801520    -0.3414970     0.0246030
  H        1.0340450     2.2328410    -0.1623240
  H       -0.4673770     3.0011870     0.0009920
  H        1.8426920    -1.9076120     1.0707290
  H        3.3240540    -1.2501130     0.4893940
units angstrom
no_reorient  #important for SAPT in psi4, default
symmetry c1  #important for SAPT in psi4, default
}

set PROPERTIES_ORIGIN ["COM"]
properties('MP2/aug-cc-pvtz', properties = ['dipole'])
--------------------------------------------------------------------------

    Molecular point group: c1
  Charge       = 0
  Multiplicity = 1
  Basis Set: AUG-CC-PVTZ
    Blend: AUG-CC-PVTZ
  Basis Set: (AUG-CC-PVTZ AUX)
    Blend: AUG-CC-PVTZ-JKFIT

    Orbital Energies [Eh]
    ---------------------

    Doubly Occupied:

       1A    -20.524838     2A    -15.586579     3A    -15.564242
       4A    -11.362388     5A    -11.300843     6A    -11.254138
       7A    -11.249155     8A    -11.239672     9A    -11.230088
      10A    -11.223817    11A     -1.378920    12A     -1.232978
      13A     -1.213190    14A     -1.149907    15A     -1.048649
      16A     -1.001909    17A     -0.869261    18A     -0.839245
      19A     -0.794010    20A     -0.737959    21A     -0.702138
      22A     -0.679452    23A     -0.672827    24A     -0.641406
      25A     -0.611132    26A     -0.603190    27A     -0.589971
      28A     -0.575649    29A     -0.544974    30A     -0.529818
      31A     -0.481525    32A     -0.459599    33A     -0.433475
      34A     -0.418913    35A     -0.367247    36A     -0.302278

  @DF-RHF Final Energy:  -453.65983178404429

   => Energetics <=

    Nuclear Repulsion Energy =            502.5404098807962896
    One-Electron Energy =               -1613.5697208229555599
    Two-Electron Energy =                 657.3694791581150412
    Total Energy =                       -453.6598317840442860
  Basis Set: (AUG-CC-PVTZ AUX)
    Blend: AUG-CC-PVTZ-RI
    Molecular point group: c1

    Geometry (in Angstrom), charge = 0, multiplicity = 1:

       Center              X                  Y                   Z               Mass
    ------------   -----------------  -----------------  -----------------  -----------------
         O            2.316414309204     0.741243317588    -0.510158437628    15.994914619570
         N            0.073921309204     2.187063317588     0.255382562372    14.003074004430
         N            2.287175309204    -1.344103682412     0.399150562372    14.003074004430
         C            0.172876309204    -0.243011682412    -0.025992437628    12.000000000000
         C           -0.560530690796     0.963034317588     0.079033562372    12.000000000000
         C           -0.509334690796    -1.461998682412    -0.167631437628    12.000000000000
         C           -1.963533690796     0.882463317588     0.131265562372    12.000000000000
         C           -1.899081690796    -1.519390682412    -0.143896437628    12.000000000000
         C           -2.495421990796    -0.265521082412     0.014292662372    12.000000000000
         C            1.662944309204    -0.211251682412    -0.063930437628    12.000000000000
         H            0.065064309204    -2.372360682412    -0.322542437628     1.007825032230
         H           -2.536152690796     1.802413317588     0.239148562372     1.007825032230
         H           -2.410925690796    -2.469932682412    -0.266141437628     1.007825032230
         H           -3.711424690796    -0.356727682412     0.031451562372     1.007825032230
         H            1.002772309204     2.217610317588    -0.155475437628     1.007825032230
         H           -0.498649690796     2.985956317588     0.007840562372     1.007825032230
         H            1.811419309204    -1.922842682412     1.077577562372     1.007825032230
         H            3.292781309204    -1.265343682412     0.496242562372     1.007825032230

  Basis Set: AUG-CC-PVTZ
    Blend: AUG-CC-PVTZ
  Basis Set: (AUG-CC-PVTZ AUX)
    Blend: AUG-CC-PVTZ-JKFIT
	 Reference Energy          =    -453.6598317840442860 [Eh]
	 Singles Energy            =      -0.0000000000000000 [Eh]
	 Same-Spin Energy          =      -0.4860693969043658 [Eh]
	 Opposite-Spin Energy      =      -1.4789125452049405 [Eh]
	 Correlation Energy        =      -1.9649819421093064 [Eh]
	 Total Energy              =    -455.6248137261536044 [Eh]

	 ================> DF-SCS-MP2 Energies <==================
	-----------------------------------------------------------
	 SCS Same-Spin Scale       =       0.3333333333333333 [-]
	 SCS Opposite-Spin Scale   =       1.2000000000000000 [-]
	 SCS Same-Spin Energy      =      -0.1620231323014553 [Eh]
	 SCS Opposite-Spin Energy  =      -1.7746950542459285 [Eh]
	 SCS Correlation Energy    =      -1.9367181865473839 [Eh]
	 SCS Total Energy          =    -455.5965499705916955 [Eh]
	-----------------------------------------------------------

  Dipole Moment: [D]
     X:    -1.0688      Y:    -1.2591      Z:     1.0691     Total:     1.9674

*** Psi4 exiting successfully. Buy a developer a beer!
