                               Psi4 1.4a3.dev225

  ==> Input File <==

--------------------------------------------------------------------------
#psi4
#
memory 32 gb

molecule  {
0 1
  O        2.3476870     0.7564740    -0.5170070
  N        0.1051940     2.2022940     0.2485340
  N        2.3184480    -1.3288730     0.3923020
  C        0.2041490    -0.2277810    -0.0328410
  C       -0.5292580     0.9782650     0.0721850
  C       -0.4780620    -1.4467680    -0.1744800
  C       -1.9322610     0.8976940     0.1244170
  C       -1.8678090    -1.5041600    -0.1507450
  C       -2.5929860    -0.3189550    -0.0016080
  C        1.6942170    -0.1960210    -0.0707790
  H        0.0963370    -2.3571300    -0.3293910
  H       -2.5048800     1.8176440     0.2323000
  H       -2.3796530    -2.4547020    -0.2729900
  H       -3.7801015    -0.3435694     0.0270127
  H        1.0340450     2.2328410    -0.1623240
  H       -0.4673770     3.0011870     0.0009920
  H        1.8426920    -1.9076120     1.0707290
  H        3.3240540    -1.2501130     0.4893940
units angstrom
no_reorient  #important for SAPT in psi4, default
symmetry c1  #important for SAPT in psi4, default
}

set PROPERTIES_ORIGIN ["COM"]
properties('MP2/aug-cc-pvtz', properties = ['dipole'])
--------------------------------------------------------------------------

    Molecular point group: c1
  Charge       = 0
  Multiplicity = 1
  Basis Set: AUG-CC-PVTZ
    Blend: AUG-CC-PVTZ
  Basis Set: (AUG-CC-PVTZ AUX)
    Blend: AUG-CC-PVTZ-JKFIT

    Orbital Energies [Eh]
    ---------------------

    Doubly Occupied:

       1A    -20.526769     2A    -15.588010     3A    -15.560542
       4A    -11.364058     5A    -11.297902     6A    -11.264472
       7A    -11.256674     8A    -11.244815     9A    -11.235582
      10A    -11.233154    11A     -1.380550    12A     -1.227674
      13A     -1.214548    14A     -1.137082    15A     -1.034959
      16A     -0.999192    17A     -0.873195    18A     -0.834337
      19A     -0.791799    20A     -0.736683    21A     -0.697219
      22A     -0.680052    23A     -0.673823    24A     -0.638019
      25A     -0.607215    26A     -0.602616    27A     -0.586299
      28A     -0.575270    29A     -0.536498    30A     -0.519986
      31A     -0.508118    32A     -0.455688    33A     -0.435903
      34A     -0.420745    35A     -0.352789    36A     -0.303816

  @DF-RHF Final Energy:  -453.67927829119969

   => Energetics <=

    Nuclear Repulsion Energy =            499.2665093370021054
    One-Electron Energy =               -1607.0994707831612232
    Two-Electron Energy =                 654.1536831549593671
    Total Energy =                       -453.6792782911996937
  Basis Set: (AUG-CC-PVTZ AUX)
    Blend: AUG-CC-PVTZ-RI
    Molecular point group: c1

    Geometry (in Angstrom), charge = 0, multiplicity = 1:

       Center              X                  Y                   Z               Mass
    ------------   -----------------  -----------------  -----------------  -----------------
         O            2.328517261404     0.747314474274    -0.509377945307    15.994914619570
         N            0.086024261404     2.193134474274     0.256163054693    14.003074004430
         N            2.299278261404    -1.338032525726     0.399931054693    14.003074004430
         C            0.184979261404    -0.236940525726    -0.025211945307    12.000000000000
         C           -0.548427738596     0.969105474274     0.079814054693    12.000000000000
         C           -0.497231738596    -1.455927525726    -0.166850945307    12.000000000000
         C           -1.951430738596     0.888534474274     0.132046054693    12.000000000000
         C           -1.886978738596    -1.513319525726    -0.143115945307    12.000000000000
         C           -2.612155738596    -0.328114525726     0.006021054693    12.000000000000
         C            1.675047261404    -0.205180525726    -0.063149945307    12.000000000000
         H            0.077167261404    -2.366289525726    -0.321761945307     1.007825032230
         H           -2.524049738596     1.808484474274     0.239929054693     1.007825032230
         H           -2.398822738596    -2.463861525726    -0.265360945307     1.007825032230
         H           -3.799271238596    -0.352728925726     0.034641754693     1.007825032230
         H            1.014875261404     2.223681474274    -0.154694945307     1.007825032230
         H           -0.486546738596     2.992027474274     0.008621054693     1.007825032230
         H            1.823522261404    -1.916771525726     1.078358054693     1.007825032230
         H            3.304884261404    -1.259272525726     0.497023054693     1.007825032230

  Basis Set: AUG-CC-PVTZ
    Blend: AUG-CC-PVTZ
  Basis Set: (AUG-CC-PVTZ AUX)
    Blend: AUG-CC-PVTZ-JKFIT
	 Reference Energy          =    -453.6792782911996937 [Eh]
	 Singles Energy            =      -0.0000000000000000 [Eh]
	 Same-Spin Energy          =      -0.4864052125323594 [Eh]
	 Opposite-Spin Energy      =      -1.4798424967754560 [Eh]
	 Correlation Energy        =      -1.9662477093078152 [Eh]
	 Total Energy              =    -455.6455260005075161 [Eh]

	 ================> DF-SCS-MP2 Energies <==================
	-----------------------------------------------------------
	 SCS Same-Spin Scale       =       0.3333333333333333 [-]
	 SCS Opposite-Spin Scale   =       1.2000000000000000 [-]
	 SCS Same-Spin Energy      =      -0.1621350708441198 [Eh]
	 SCS Opposite-Spin Energy  =      -1.7758109961305470 [Eh]
	 SCS Correlation Energy    =      -1.9379460669746669 [Eh]
	 SCS Total Energy          =    -455.6172243581743828 [Eh]
	-----------------------------------------------------------

  Dipole Moment: [D]
     X:    -1.0773      Y:    -1.3522      Z:     1.0608     Total:     2.0284

*** Psi4 exiting successfully. Buy a developer a beer!
