                               Psi4 1.4a3.dev225

  ==> Input File <==

--------------------------------------------------------------------------
#psi4
#
memory 32 gb

molecule  {
0 1
  O        2.3476870     0.7564740    -0.5170070
  N        0.1051940     2.2022940     0.2485340
  N        2.3184480    -1.3288730     0.3923020
  C        0.2041490    -0.2277810    -0.0328410
  C       -0.5292580     0.9782650     0.0721850
  C       -0.4780620    -1.4467680    -0.1744800
  C       -1.9322610     0.8976940     0.1244170
  C       -1.8678090    -1.5041600    -0.1507450
  C       -2.6033647    -0.3019925     0.0005264
  C        1.6942170    -0.1960210    -0.0707790
  H        0.0963370    -2.3571300    -0.3293910
  H       -2.5048800     1.8176440     0.2323000
  H       -2.3796530    -2.4547020    -0.2729900
  H       -3.6801520    -0.3414970     0.0246030
  H        1.0340450     2.2328410    -0.1623240
  H       -0.4673770     3.0011870     0.0009920
  H        1.8426920    -1.9076120     1.0707290
  H        3.3240540    -1.2501130     0.4893940
units angstrom
no_reorient  #important for SAPT in psi4, default
symmetry c1  #important for SAPT in psi4, default
}

set PROPERTIES_ORIGIN ["COM"]
properties('MP2/aug-cc-pvtz', properties = ['dipole'])
--------------------------------------------------------------------------

    Molecular point group: c1
  Charge       = 0
  Multiplicity = 1
  Basis Set: AUG-CC-PVTZ
    Blend: AUG-CC-PVTZ
  Basis Set: (AUG-CC-PVTZ AUX)
    Blend: AUG-CC-PVTZ-JKFIT

    Orbital Energies [Eh]
    ---------------------

    Doubly Occupied:

       1A    -20.526183     2A    -15.587522     3A    -15.560711
       4A    -11.363437     5A    -11.297945     6A    -11.255220
       7A    -11.253748     8A    -11.243732     9A    -11.234581
      10A    -11.233762    11A     -1.379993    12A     -1.227584
      13A     -1.214043    14A     -1.135804    15A     -1.037521
      16A     -0.997341    17A     -0.877563    18A     -0.833186
      19A     -0.793282    20A     -0.736065    21A     -0.698929
      22A     -0.689482    23A     -0.673481    24A     -0.637550
      25A     -0.608046    26A     -0.604207    27A     -0.586679
      28A     -0.575250    29A     -0.542062    30A     -0.524729
      31A     -0.506982    32A     -0.454157    33A     -0.435621
      34A     -0.420301    35A     -0.353573    36A     -0.302104

  @DF-RHF Final Energy:  -453.68617298054170

   => Energetics <=

    Nuclear Repulsion Energy =            499.5806018441243737
    One-Electron Energy =               -1607.7287948206994770
    Two-Electron Energy =                 654.4620199960334048
    Total Energy =                       -453.6861729805416417
  Basis Set: (AUG-CC-PVTZ AUX)
    Blend: AUG-CC-PVTZ-RI
    Molecular point group: c1

    Geometry (in Angstrom), charge = 0, multiplicity = 1:

       Center              X                  Y                   Z               Mass
    ------------   -----------------  -----------------  -----------------  -----------------
         O            2.328692273537     0.745803133095    -0.509548337927    15.994914619570
         N            0.086199273537     2.191623133095     0.255992662073    14.003074004430
         N            2.299453273537    -1.339543866905     0.399760662073    14.003074004430
         C            0.185154273537    -0.238451866905    -0.025382337927    12.000000000000
         C           -0.548252726463     0.967594133095     0.079643662073    12.000000000000
         C           -0.497056726463    -1.457438866905    -0.167021337927    12.000000000000
         C           -1.951255726463     0.887023133095     0.131875662073    12.000000000000
         C           -1.886803726463    -1.514830866905    -0.143286337927    12.000000000000
         C           -2.622359426463    -0.312663366905     0.007985062073    12.000000000000
         C            1.675222273537    -0.206691866905    -0.063320337927    12.000000000000
         H            0.077342273537    -2.367800866905    -0.321932337927     1.007825032230
         H           -2.523874726463     1.806973133095     0.239758662073     1.007825032230
         H           -2.398647726463    -2.465372866905    -0.265531337927     1.007825032230
         H           -3.699146726463    -0.352167866905     0.032061662073     1.007825032230
         H            1.015050273537     2.222170133095    -0.154865337927     1.007825032230
         H           -0.486371726463     2.990516133095     0.008450662073     1.007825032230
         H            1.823697273537    -1.918282866905     1.078187662073     1.007825032230
         H            3.305059273537    -1.260783866905     0.496852662073     1.007825032230

  Basis Set: AUG-CC-PVTZ
    Blend: AUG-CC-PVTZ
  Basis Set: (AUG-CC-PVTZ AUX)
    Blend: AUG-CC-PVTZ-JKFIT
	 Reference Energy          =    -453.6861729805416985 [Eh]
	 Singles Energy            =      -0.0000000000000000 [Eh]
	 Same-Spin Energy          =      -0.4861325590737822 [Eh]
	 Opposite-Spin Energy      =      -1.4789403333206688 [Eh]
	 Correlation Energy        =      -1.9650728923944509 [Eh]
	 Total Energy              =    -455.6512458729361583 [Eh]

	 ================> DF-SCS-MP2 Energies <==================
	-----------------------------------------------------------
	 SCS Same-Spin Scale       =       0.3333333333333333 [-]
	 SCS Opposite-Spin Scale   =       1.2000000000000000 [-]
	 SCS Same-Spin Energy      =      -0.1620441863579274 [Eh]
	 SCS Opposite-Spin Energy  =      -1.7747283999848025 [Eh]
	 SCS Correlation Energy    =      -1.9367725863427299 [Eh]
	 SCS Total Energy          =    -455.6229455668844253 [Eh]
	-----------------------------------------------------------

  Dipole Moment: [D]
     X:    -1.1430      Y:    -1.3419      Z:     1.0636     Total:     2.0587

*** Psi4 exiting successfully. Buy a developer a beer!
