                               Psi4 1.4a3.dev225

  ==> Input File <==

--------------------------------------------------------------------------
#psi4
#
memory 32 gb

molecule  {
0 1
  O        2.3476870     0.7564740    -0.5170070
  N        0.1051940     2.2022940     0.2485340
  N        2.3184480    -1.3288730     0.3923020
  C        0.2041490    -0.2277810    -0.0328410
  C       -0.5292580     0.9782650     0.0721850
  C       -0.4780620    -1.4467680    -0.1744800
  C       -1.9322610     0.8976940     0.1244170
  C       -1.8678090    -1.5041600    -0.1507450
  C       -2.5670393    -0.3613613    -0.0069441
  C        1.6942170    -0.1960210    -0.0707790
  H        0.0963370    -2.3571300    -0.3293910
  H       -2.5048800     1.8176440     0.2323000
  H       -2.3796530    -2.4547020    -0.2729900
  H       -3.6801520    -0.3414970     0.0246030
  H        1.0340450     2.2328410    -0.1623240
  H       -0.4673770     3.0011870     0.0009920
  H        1.8426920    -1.9076120     1.0707290
  H        3.3240540    -1.2501130     0.4893940
units angstrom
no_reorient  #important for SAPT in psi4, default
symmetry c1  #important for SAPT in psi4, default
}

set PROPERTIES_ORIGIN ["COM"]
properties('MP2/aug-cc-pvtz', properties = ['dipole'])
--------------------------------------------------------------------------

    Molecular point group: c1
  Charge       = 0
  Multiplicity = 1
  Basis Set: AUG-CC-PVTZ
    Blend: AUG-CC-PVTZ
  Basis Set: (AUG-CC-PVTZ AUX)
    Blend: AUG-CC-PVTZ-JKFIT

    Orbital Energies [Eh]
    ---------------------

    Doubly Occupied:

       1A    -20.527226     2A    -15.588273     3A    -15.558552
       4A    -11.364531     5A    -11.295242     6A    -11.257760
       7A    -11.251766     8A    -11.246127     9A    -11.234639
      10A    -11.227588    11A     -1.380935    12A     -1.226241
      13A     -1.214802    14A     -1.140971    15A     -1.035570
      16A     -1.000813    17A     -0.877434    18A     -0.834740
      19A     -0.791644    20A     -0.737211    21A     -0.699041
      22A     -0.684302    23A     -0.673826    24A     -0.638972
      25A     -0.612156    26A     -0.603672    27A     -0.585978
      28A     -0.575393    29A     -0.534751    30A     -0.517718
      31A     -0.516131    32A     -0.457913    33A     -0.436010
      34A     -0.421020    35A     -0.349731    36A     -0.305768

  @DF-RHF Final Energy:  -453.68336750411657

   => Energetics <=

    Nuclear Repulsion Energy =            500.2152404352162307
    One-Electron Energy =               -1608.9883226366507643
    Two-Electron Energy =                 655.0897146973179588
    Total Energy =                       -453.6833675041166316
  Basis Set: (AUG-CC-PVTZ AUX)
    Blend: AUG-CC-PVTZ-RI
    Molecular point group: c1

    Geometry (in Angstrom), charge = 0, multiplicity = 1:

       Center              X                  Y                   Z               Mass
    ------------   -----------------  -----------------  -----------------  -----------------
         O            2.325488590859     0.751039105617    -0.508889484578    15.994914619570
         N            0.082995590859     2.196859105617     0.256651515422    14.003074004430
         N            2.296249590859    -1.334307894383     0.400419515422    14.003074004430
         C            0.181950590859    -0.233215894383    -0.024723484578    12.000000000000
         C           -0.551456409141     0.972830105617     0.080302515422    12.000000000000
         C           -0.500260409141    -1.452202894383    -0.166362484578    12.000000000000
         C           -1.954459409141     0.892259105617     0.132534515422    12.000000000000
         C           -1.890007409141    -1.509594894383    -0.142627484578    12.000000000000
         C           -2.589237709141    -0.366796194383     0.001173415422    12.000000000000
         C            1.672018590859    -0.201455894383    -0.062661484578    12.000000000000
         H            0.074138590859    -2.362564894383    -0.321273484578     1.007825032230
         H           -2.527078409141     1.812209105617     0.240417515422     1.007825032230
         H           -2.401851409141    -2.460136894383    -0.264872484578     1.007825032230
         H           -3.702350409141    -0.346931894383     0.032720515422     1.007825032230
         H            1.011846590859     2.227406105617    -0.154206484578     1.007825032230
         H           -0.489575409141     2.995752105617     0.009109515422     1.007825032230
         H            1.820493590859    -1.913046894383     1.078846515422     1.007825032230
         H            3.301855590859    -1.255547894383     0.497511515422     1.007825032230

  Basis Set: AUG-CC-PVTZ
    Blend: AUG-CC-PVTZ
  Basis Set: (AUG-CC-PVTZ AUX)
    Blend: AUG-CC-PVTZ-JKFIT
	 Reference Energy          =    -453.6833675041165748 [Eh]
	 Singles Energy            =      -0.0000000000000000 [Eh]
	 Same-Spin Energy          =      -0.4862637690694401 [Eh]
	 Opposite-Spin Energy      =      -1.4789643370639129 [Eh]
	 Correlation Energy        =      -1.9652281061333530 [Eh]
	 Total Energy              =    -455.6485956102499131 [Eh]

	 ================> DF-SCS-MP2 Energies <==================
	-----------------------------------------------------------
	 SCS Same-Spin Scale       =       0.3333333333333333 [-]
	 SCS Opposite-Spin Scale   =       1.2000000000000000 [-]
	 SCS Same-Spin Energy      =      -0.1620879230231467 [Eh]
	 SCS Opposite-Spin Energy  =      -1.7747572044766955 [Eh]
	 SCS Correlation Energy    =      -1.9368451274998422 [Eh]
	 SCS Total Energy          =    -455.6202126316164254 [Eh]
	-----------------------------------------------------------

  Dipole Moment: [D]
     X:    -1.0884      Y:    -1.3896      Z:     1.0559     Total:     2.0569

*** Psi4 exiting successfully. Buy a developer a beer!
