                               Psi4 1.4a3.dev225

  ==> Input File <==

--------------------------------------------------------------------------
#psi4
#
memory 32 gb

molecule  {
0 1
  O        2.3476870     0.7564740    -0.5170070
  N        0.1051940     2.2022940     0.2485340
  N        2.3184480    -1.3288730     0.3923020
  C        0.2041490    -0.2277810    -0.0328410
  C       -0.5292580     0.9782650     0.0721850
  C       -0.4780620    -1.4467680    -0.1744800
  C       -1.9322610     0.8976940     0.1244170
  C       -1.8678090    -1.5041600    -0.1507450
  C       -2.5826073    -0.3359175    -0.0037424
  C        1.6942170    -0.1960210    -0.0707790
  H        0.0963370    -2.3571300    -0.3293910
  H       -2.5048800     1.8176440     0.2323000
  H       -2.3796530    -2.4547020    -0.2729900
  H       -3.6801520    -0.3414970     0.0246030
  H        1.0340450     2.2328410    -0.1623240
  H       -0.4673770     3.0011870     0.0009920
  H        1.8426920    -1.9076120     1.0707290
  H        3.3240540    -1.2501130     0.4893940
units angstrom
no_reorient  #important for SAPT in psi4, default
symmetry c1  #important for SAPT in psi4, default
}

set PROPERTIES_ORIGIN ["COM"]
properties('MP2/aug-cc-pvtz', properties = ['dipole'])
--------------------------------------------------------------------------

    Molecular point group: c1
  Charge       = 0
  Multiplicity = 1
  Basis Set: AUG-CC-PVTZ
    Blend: AUG-CC-PVTZ
  Basis Set: (AUG-CC-PVTZ AUX)
    Blend: AUG-CC-PVTZ-JKFIT

    Orbital Energies [Eh]
    ---------------------

    Doubly Occupied:

       1A    -20.526765     2A    -15.587940     3A    -15.559473
       4A    -11.364047     5A    -11.296401     6A    -11.256650
       7A    -11.252733     8A    -11.245061     9A    -11.234623
      10A    -11.230387    11A     -1.380518    12A     -1.226798
      13A     -1.214468    14A     -1.138517    15A     -1.035972
      16A     -0.999643    17A     -0.877219    18A     -0.834275
      19A     -0.792426    20A     -0.736701    21A     -0.698886
      22A     -0.686421    23A     -0.673687    24A     -0.638313
      25A     -0.610212    26A     -0.603996    27A     -0.586131
      28A     -0.575343    29A     -0.537178    30A     -0.521674
      31A     -0.512792    32A     -0.456193    33A     -0.435860
      34A     -0.420710    35A     -0.351062    36A     -0.304320

  @DF-RHF Final Energy:  -453.68615774453860

   => Energetics <=

    Nuclear Repulsion Energy =            499.9354112082025381
    One-Electron Energy =               -1608.4363468343408385
    Two-Electron Energy =                 654.8147778815996389
    Total Energy =                       -453.6861577445386047
  Basis Set: (AUG-CC-PVTZ AUX)
    Blend: AUG-CC-PVTZ-RI
    Molecular point group: c1

    Geometry (in Angstrom), charge = 0, multiplicity = 1:

       Center              X                  Y                   Z               Mass
    ------------   -----------------  -----------------  -----------------  -----------------
         O            2.326861595201     0.748795114873    -0.509171855339    15.994914619570
         N            0.084368595201     2.194615114873     0.256369144661    14.003074004430
         N            2.297622595201    -1.336551885127     0.400137144661    14.003074004430
         C            0.183323595201    -0.235459885127    -0.025005855339    12.000000000000
         C           -0.550083404799     0.970586114873     0.080020144661    12.000000000000
         C           -0.498887404799    -1.454446885127    -0.166644855339    12.000000000000
         C           -1.953086404799     0.890015114873     0.132252144661    12.000000000000
         C           -1.888634404799    -1.511838885127    -0.142909855339    12.000000000000
         C           -2.603432704799    -0.343596385127     0.004092744661    12.000000000000
         C            1.673391595201    -0.203699885127    -0.062943855339    12.000000000000
         H            0.075511595201    -2.364808885127    -0.321555855339     1.007825032230
         H           -2.525705404799     1.809965114873     0.240135144661     1.007825032230
         H           -2.400478404799    -2.462380885127    -0.265154855339     1.007825032230
         H           -3.700977404799    -0.349175885127     0.032438144661     1.007825032230
         H            1.013219595201     2.225162114873    -0.154488855339     1.007825032230
         H           -0.488202404799     2.993508114873     0.008827144661     1.007825032230
         H            1.821866595201    -1.915290885127     1.078564144661     1.007825032230
         H            3.303228595201    -1.257791885127     0.497229144661     1.007825032230

  Basis Set: AUG-CC-PVTZ
    Blend: AUG-CC-PVTZ
  Basis Set: (AUG-CC-PVTZ AUX)
    Blend: AUG-CC-PVTZ-JKFIT
	 Reference Energy          =    -453.6861577445386047 [Eh]
	 Singles Energy            =      -0.0000000000000000 [Eh]
	 Same-Spin Energy          =      -0.4862260794799094 [Eh]
	 Opposite-Spin Energy      =      -1.4788868019646493 [Eh]
	 Correlation Energy        =      -1.9651128814445586 [Eh]
	 Total Energy              =    -455.6512706259831589 [Eh]

	 ================> DF-SCS-MP2 Energies <==================
	-----------------------------------------------------------
	 SCS Same-Spin Scale       =       0.3333333333333333 [-]
	 SCS Opposite-Spin Scale   =       1.2000000000000000 [-]
	 SCS Same-Spin Energy      =      -0.1620753598266365 [Eh]
	 SCS Opposite-Spin Energy  =      -1.7746641623575792 [Eh]
	 SCS Correlation Energy    =      -1.9367395221842156 [Eh]
	 SCS Total Energy          =    -455.6228972667228163 [Eh]
	-----------------------------------------------------------

  Dipole Moment: [D]
     X:    -1.1131      Y:    -1.3685      Z:     1.0593     Total:     2.0576

*** Psi4 exiting successfully. Buy a developer a beer!
