                               Psi4 1.4a3.dev225

  ==> Input File <==

--------------------------------------------------------------------------
#psi4
#
memory 32 gb

molecule  {
0 1
  O        2.3476870     0.7564740    -0.5170070
  N        0.1051940     2.2022940     0.2485340
  N        2.3184480    -1.3288730     0.3923020
  C        0.2041490    -0.2277810    -0.0328410
  C       -0.5292580     0.9782650     0.0721850
  C       -0.4780620    -1.4467680    -0.1744800
  C       -1.9322610     0.8976940     0.1244170
  C       -1.8678090    -1.5041600    -0.1507450
  C       -2.5929860    -0.3189550    -0.0016080
  C        1.6942170    -0.1960210    -0.0707790
  H        0.0963370    -2.3571300    -0.3293910
  H       -2.5048800     1.8176440     0.2323000
  H       -2.3796530    -2.4547020    -0.2729900
  H       -3.6601621    -0.3410825     0.0241211
  H        1.0340450     2.2328410    -0.1623240
  H       -0.4673770     3.0011870     0.0009920
  H        1.8426920    -1.9076120     1.0707290
  H        3.3240540    -1.2501130     0.4893940
units angstrom
no_reorient  #important for SAPT in psi4, default
symmetry c1  #important for SAPT in psi4, default
}

set PROPERTIES_ORIGIN ["COM"]
properties('MP2/aug-cc-pvtz', properties = ['dipole'])
--------------------------------------------------------------------------

    Molecular point group: c1
  Charge       = 0
  Multiplicity = 1
  Basis Set: AUG-CC-PVTZ
    Blend: AUG-CC-PVTZ
  Basis Set: (AUG-CC-PVTZ AUX)
    Blend: AUG-CC-PVTZ-JKFIT

    Orbital Energies [Eh]
    ---------------------

    Doubly Occupied:

       1A    -20.526423     2A    -15.587683     3A    -15.560015
       4A    -11.363687     5A    -11.297049     6A    -11.255798
       7A    -11.250942     8A    -11.244318     9A    -11.234441
      10A    -11.231952    11A     -1.380204    12A     -1.227107
      13A     -1.214206    14A     -1.137147    15A     -1.037092
      16A     -0.998475    17A     -0.878367    18A     -0.833700
      19A     -0.793183    20A     -0.736334    21A     -0.699763
      22A     -0.689313    23A     -0.673537    24A     -0.637904
      25A     -0.609647    26A     -0.604259    27A     -0.586364
      28A     -0.575312    29A     -0.540233    30A     -0.524047
      31A     -0.510143    32A     -0.455048    33A     -0.435721
      34A     -0.420467    35A     -0.352139    36A     -0.303144

  @DF-RHF Final Energy:  -453.68680047491603

   => Energetics <=

    Nuclear Repulsion Energy =            499.8603093883064616
    One-Electron Energy =               -1608.2838903404922348
    Two-Electron Energy =                 654.7367804772698037
    Total Energy =                       -453.6868004749160264
  Basis Set: (AUG-CC-PVTZ AUX)
    Blend: AUG-CC-PVTZ-RI
    Molecular point group: c1

    Geometry (in Angstrom), charge = 0, multiplicity = 1:

       Center              X                  Y                   Z               Mass
    ------------   -----------------  -----------------  -----------------  -----------------
         O            2.327628868962     0.747296053778    -0.509356527195    15.994914619570
         N            0.085135868962     2.193116053778     0.256184472805    14.003074004430
         N            2.298389868962    -1.338050946222     0.399952472805    14.003074004430
         C            0.184090868962    -0.236958946222    -0.025190527195    12.000000000000
         C           -0.549316131038     0.969087053778     0.079835472805    12.000000000000
         C           -0.498120131038    -1.455945946222    -0.166829527195    12.000000000000
         C           -1.952319131038     0.888516053778     0.132067472805    12.000000000000
         C           -1.887867131038    -1.513337946222    -0.143094527195    12.000000000000
         C           -2.613044131038    -0.328132946222     0.006042472805    12.000000000000
         C            1.674158868962    -0.205198946222    -0.063128527195    12.000000000000
         H            0.076278868962    -2.366307946222    -0.321740527195     1.007825032230
         H           -2.524938131038     1.808466053778     0.239950472805     1.007825032230
         H           -2.399711131038    -2.463879946222    -0.265339527195     1.007825032230
         H           -3.680220231038    -0.350260446222     0.031771572805     1.007825032230
         H            1.013986868962     2.223663053778    -0.154673527195     1.007825032230
         H           -0.487435131038     2.992009053778     0.008642472805     1.007825032230
         H            1.822633868962    -1.916789946222     1.078379472805     1.007825032230
         H            3.303995868962    -1.259290946222     0.497044472805     1.007825032230

  Basis Set: AUG-CC-PVTZ
    Blend: AUG-CC-PVTZ
  Basis Set: (AUG-CC-PVTZ AUX)
    Blend: AUG-CC-PVTZ-JKFIT
	 Reference Energy          =    -453.6868004749160264 [Eh]
	 Singles Energy            =      -0.0000000000000000 [Eh]
	 Same-Spin Energy          =      -0.4861498481230783 [Eh]
	 Opposite-Spin Energy      =      -1.4787525407453854 [Eh]
	 Correlation Energy        =      -1.9649023888684636 [Eh]
	 Total Energy              =    -455.6517028637844646 [Eh]

	 ================> DF-SCS-MP2 Energies <==================
	-----------------------------------------------------------
	 SCS Same-Spin Scale       =       0.3333333333333333 [-]
	 SCS Opposite-Spin Scale   =       1.2000000000000000 [-]
	 SCS Same-Spin Energy      =      -0.1620499493743594 [Eh]
	 SCS Opposite-Spin Energy  =      -1.7745030488944624 [Eh]
	 SCS Correlation Energy    =      -1.9365529982688219 [Eh]
	 SCS Total Energy          =    -455.6233534731848636 [Eh]
	-----------------------------------------------------------

  Dipole Moment: [D]
     X:    -1.1363      Y:    -1.3555      Z:     1.0616     Total:     2.0629

*** Psi4 exiting successfully. Buy a developer a beer!
