                               Psi4 1.4a3.dev225

  ==> Input File <==

--------------------------------------------------------------------------
#psi4
#
memory 32 gb

molecule  {
0 1
  O        2.3476870     0.7564740    -0.5170070
  N        0.1051940     2.2022940     0.2485340
  N        2.3184480    -1.3288730     0.3923020
  C        0.2041490    -0.2277810    -0.0328410
  C       -0.5292580     0.9782650     0.0721850
  C       -0.4780620    -1.4467680    -0.1744800
  C       -1.9322610     0.8976940     0.1244170
  C       -1.8678090    -1.5041600    -0.1507450
  C       -2.5929860    -0.3189550    -0.0016080
  C        1.6942170    -0.1960210    -0.0707790
  H        0.0963370    -2.3571300    -0.3293910
  H       -2.5048800     1.8176440     0.2323000
  H       -2.3796530    -2.4547020    -0.2729900
  H       -3.6801520    -0.3414970     0.0246030
  H        1.0378548     2.2174006    -0.1544761
  H       -0.4673770     3.0011870     0.0009920
  H        1.8426920    -1.9076120     1.0707290
  H        3.3240540    -1.2501130     0.4893940
units angstrom
no_reorient  #important for SAPT in psi4, default
symmetry c1  #important for SAPT in psi4, default
}

set PROPERTIES_ORIGIN ["COM"]
properties('MP2/aug-cc-pvtz', properties = ['dipole'])
--------------------------------------------------------------------------

    Molecular point group: c1
  Charge       = 0
  Multiplicity = 1
  Basis Set: AUG-CC-PVTZ
    Blend: AUG-CC-PVTZ
  Basis Set: (AUG-CC-PVTZ AUX)
    Blend: AUG-CC-PVTZ-JKFIT

    Orbital Energies [Eh]
    ---------------------

    Doubly Occupied:

       1A    -20.526831     2A    -15.587925     3A    -15.559899
       4A    -11.364023     5A    -11.297025     6A    -11.255959
       7A    -11.253253     8A    -11.244334     9A    -11.234444
      10A    -11.232017    11A     -1.380692    12A     -1.227210
      13A     -1.214489    14A     -1.137002    15A     -1.036630
      16A     -0.998379    17A     -0.877358    18A     -0.833694
      19A     -0.792981    20A     -0.736390    21A     -0.699097
      22A     -0.688060    23A     -0.674055    24A     -0.637906
      25A     -0.608955    26A     -0.604178    27A     -0.586676
      28A     -0.575508    29A     -0.539452    30A     -0.523550
      31A     -0.510019    32A     -0.455003    33A     -0.436000
      34A     -0.420786    35A     -0.352249    36A     -0.302995

  @DF-RHF Final Energy:  -453.68661166278633

   => Energetics <=

    Nuclear Repulsion Energy =            499.7991566156445060
    One-Electron Energy =               -1608.1614890797873159
    Two-Electron Energy =                 654.6757208013564195
    Total Energy =                       -453.6866116627863903
  Basis Set: (AUG-CC-PVTZ AUX)
    Blend: AUG-CC-PVTZ-RI
    Molecular point group: c1

    Geometry (in Angstrom), charge = 0, multiplicity = 1:

       Center              X                  Y                   Z               Mass
    ------------   -----------------  -----------------  -----------------  -----------------
         O            2.327748715139     0.747413491195    -0.509418226114    15.994914619570
         N            0.085255715139     2.193233491195     0.256122773886    14.003074004430
         N            2.298509715139    -1.337933508805     0.399890773886    14.003074004430
         C            0.184210715139    -0.236841508805    -0.025252226114    12.000000000000
         C           -0.549196284861     0.969204491195     0.079773773886    12.000000000000
         C           -0.498000284861    -1.455828508805    -0.166891226114    12.000000000000
         C           -1.952199284861     0.888633491195     0.132005773886    12.000000000000
         C           -1.887747284861    -1.513220508805    -0.143156226114    12.000000000000
         C           -2.612924284861    -0.328015508805     0.005980773886    12.000000000000
         C            1.674278715139    -0.205081508805    -0.063190226114    12.000000000000
         H            0.076398715139    -2.366190508805    -0.321802226114     1.007825032230
         H           -2.524818284861     1.808583491195     0.239888773886     1.007825032230
         H           -2.399591284861    -2.463762508805    -0.265401226114     1.007825032230
         H           -3.700090284861    -0.350557508805     0.032191773886     1.007825032230
         H            1.017916515139     2.208340091195    -0.146887326114     1.007825032230
         H           -0.487315284861     2.992126491195     0.008580773886     1.007825032230
         H            1.822753715139    -1.916672508805     1.078317773886     1.007825032230
         H            3.304115715139    -1.259173508805     0.496982773886     1.007825032230

  Basis Set: AUG-CC-PVTZ
    Blend: AUG-CC-PVTZ
  Basis Set: (AUG-CC-PVTZ AUX)
    Blend: AUG-CC-PVTZ-JKFIT
	 Reference Energy          =    -453.6866116627863335 [Eh]
	 Singles Energy            =      -0.0000000000000000 [Eh]
	 Same-Spin Energy          =      -0.4862230892613058 [Eh]
	 Opposite-Spin Energy      =      -1.4789191392674170 [Eh]
	 Correlation Energy        =      -1.9651422285287228 [Eh]
	 Total Energy              =    -455.6517538913150815 [Eh]

	 ================> DF-SCS-MP2 Energies <==================
	-----------------------------------------------------------
	 SCS Same-Spin Scale       =       0.3333333333333333 [-]
	 SCS Opposite-Spin Scale   =       1.2000000000000000 [-]
	 SCS Same-Spin Energy      =      -0.1620743630871019 [Eh]
	 SCS Opposite-Spin Energy  =      -1.7747029671209005 [Eh]
	 SCS Correlation Energy    =      -1.9367773302080025 [Eh]
	 SCS Total Energy          =    -455.6233889929943643 [Eh]
	-----------------------------------------------------------

  Dipole Moment: [D]
     X:    -1.1171      Y:    -1.3651      Z:     1.0710     Total:     2.0636

*** Psi4 exiting successfully. Buy a developer a beer!
