                               Psi4 1.4a3.dev225

  ==> Input File <==

--------------------------------------------------------------------------
#psi4
#
memory 32 gb

molecule  {
0 1
  O        2.3476870     0.7564740    -0.5170070
  N        0.1051940     2.2022940     0.2485340
  N        2.3184480    -1.3288730     0.3923020
  C        0.2041490    -0.2277810    -0.0328410
  C       -0.5292580     0.9782650     0.0721850
  C       -0.4780620    -1.4467680    -0.1744800
  C       -1.9322610     0.8976940     0.1244170
  C       -1.8678090    -1.5041600    -0.1507450
  C       -2.5929860    -0.3189550    -0.0016080
  C        1.6942170    -0.1960210    -0.0707790
  H        0.0963370    -2.3571300    -0.3293910
  H       -2.5048800     1.8176440     0.2323000
  H       -2.3796530    -2.4547020    -0.2729900
  H       -3.6801520    -0.3414970     0.0246030
  H        1.0340450     2.2328410    -0.1623240
  H       -0.4673770     3.0011870     0.0009920
  H        1.8426920    -1.9076120     1.0707290
  H        3.3240540    -1.2501130     0.4893940
units angstrom
no_reorient  #important for SAPT in psi4, default
symmetry c1  #important for SAPT in psi4, default
}

set PROPERTIES_ORIGIN ["COM"]
properties('MP2/aug-cc-pvtz', properties = ['dipole'])
--------------------------------------------------------------------------

    Molecular point group: c1
  Charge       = 0
  Multiplicity = 1
  Basis Set: AUG-CC-PVTZ
    Blend: AUG-CC-PVTZ
  Basis Set: (AUG-CC-PVTZ AUX)
    Blend: AUG-CC-PVTZ-JKFIT

    Orbital Energies [Eh]
    ---------------------

    Doubly Occupied:

       1A    -20.526469     2A    -15.587727     3A    -15.560092
       4A    -11.363737     5A    -11.297174     6A    -11.255927
       7A    -11.253277     8A    -11.244383     9A    -11.234604
      10A    -11.232126    11A     -1.380250    12A     -1.227186
      13A     -1.214252    14A     -1.137084    15A     -1.036624
      16A     -0.998575    17A     -0.877307    18A     -0.833790
      19A     -0.792880    20A     -0.736377    21A     -0.698854
      22A     -0.687934    23A     -0.673586    24A     -0.637915
      25A     -0.609037    26A     -0.604147    27A     -0.586360
      28A     -0.575301    29A     -0.539477    30A     -0.523508
      31A     -0.510022    32A     -0.455139    33A     -0.435745
      34A     -0.420504    35A     -0.352225    36A     -0.303242

  @DF-RHF Final Energy:  -453.68666760465254

   => Energetics <=

    Nuclear Repulsion Energy =            499.7555607222593039
    One-Electron Energy =               -1608.0787845036250019
    Two-Electron Energy =                 654.6365561767130430
    Total Energy =                       -453.6866676046525981
  Basis Set: (AUG-CC-PVTZ AUX)
    Blend: AUG-CC-PVTZ-RI
    Molecular point group: c1

    Geometry (in Angstrom), charge = 0, multiplicity = 1:

       Center              X                  Y                   Z               Mass
    ------------   -----------------  -----------------  -----------------  -----------------
         O            2.327776934369     0.747299123984    -0.509360096633    15.994914619570
         N            0.085283934369     2.193119123984     0.256180903367    14.003074004430
         N            2.298537934369    -1.338047876016     0.399948903367    14.003074004430
         C            0.184238934369    -0.236955876016    -0.025194096633    12.000000000000
         C           -0.549168065631     0.969090123984     0.079831903367    12.000000000000
         C           -0.497972065631    -1.455942876016    -0.166833096633    12.000000000000
         C           -1.952171065631     0.888519123984     0.132063903367    12.000000000000
         C           -1.887719065631    -1.513334876016    -0.143098096633    12.000000000000
         C           -2.612896065631    -0.328129876016     0.006038903367    12.000000000000
         C            1.674306934369    -0.205195876016    -0.063132096633    12.000000000000
         H            0.076426934369    -2.366304876016    -0.321744096633     1.007825032230
         H           -2.524790065631     1.808469123984     0.239946903367     1.007825032230
         H           -2.399563065631    -2.463876876016    -0.265343096633     1.007825032230
         H           -3.700062065631    -0.350671876016     0.032249903367     1.007825032230
         H            1.014134934369     2.223666123984    -0.154677096633     1.007825032230
         H           -0.487287065631     2.992012123984     0.008638903367     1.007825032230
         H            1.822781934369    -1.916786876016     1.078375903367     1.007825032230
         H            3.304143934369    -1.259287876016     0.497040903367     1.007825032230

  Basis Set: AUG-CC-PVTZ
    Blend: AUG-CC-PVTZ
  Basis Set: (AUG-CC-PVTZ AUX)
    Blend: AUG-CC-PVTZ-JKFIT
	 Reference Energy          =    -453.6866676046525413 [Eh]
	 Singles Energy            =      -0.0000000000000000 [Eh]
	 Same-Spin Energy          =      -0.4861847872612585 [Eh]
	 Opposite-Spin Energy      =      -1.4788906222369400 [Eh]
	 Correlation Energy        =      -1.9650754094981986 [Eh]
	 Total Energy              =    -455.6517430141507248 [Eh]

	 ================> DF-SCS-MP2 Energies <==================
	-----------------------------------------------------------
	 SCS Same-Spin Scale       =       0.3333333333333333 [-]
	 SCS Opposite-Spin Scale   =       1.2000000000000000 [-]
	 SCS Same-Spin Energy      =      -0.1620615957537528 [Eh]
	 SCS Opposite-Spin Energy  =      -1.7746687466843281 [Eh]
	 SCS Correlation Energy    =      -1.9367303424380808 [Eh]
	 SCS Total Energy          =    -455.6233979470906093 [Eh]
	-----------------------------------------------------------

  Dipole Moment: [D]
     X:    -1.1284      Y:    -1.3550      Z:     1.0615     Total:     2.0582

*** Psi4 exiting successfully. Buy a developer a beer!
