                               Psi4 1.4a3.dev225

  ==> Input File <==

--------------------------------------------------------------------------
#psi4
#
memory 32 gb

molecule  {
0 1
  O        2.3476870     0.7564740    -0.5170070
  N        0.1051940     2.2022940     0.2485340
  N        2.3184480    -1.3288730     0.3923020
  C        0.2041490    -0.2277810    -0.0328410
  C       -0.5292580     0.9782650     0.0721850
  C       -0.5752385    -1.6204046    -0.1946555
  C       -1.9322610     0.8976940     0.1244170
  C       -1.8678090    -1.5041600    -0.1507450
  C       -2.5929860    -0.3189550    -0.0016080
  C        1.6942170    -0.1960210    -0.0707790
  H        0.0963370    -2.3571300    -0.3293910
  H       -2.5048800     1.8176440     0.2323000
  H       -2.3796530    -2.4547020    -0.2729900
  H       -3.6801520    -0.3414970     0.0246030
  H        1.0340450     2.2328410    -0.1623240
  H       -0.4673770     3.0011870     0.0009920
  H        1.8426920    -1.9076120     1.0707290
  H        3.3240540    -1.2501130     0.4893940
units angstrom
no_reorient  #important for SAPT in psi4, default
symmetry c1  #important for SAPT in psi4, default
}

set PROPERTIES_ORIGIN ["COM"]
properties('MP2/aug-cc-pvtz', properties = ['dipole'])
--------------------------------------------------------------------------

    Molecular point group: c1
  Charge       = 0
  Multiplicity = 1
  Basis Set: AUG-CC-PVTZ
    Blend: AUG-CC-PVTZ
  Basis Set: (AUG-CC-PVTZ AUX)
    Blend: AUG-CC-PVTZ-JKFIT

    Orbital Energies [Eh]
    ---------------------

    Doubly Occupied:

       1A    -20.520698     2A    -15.584362     3A    -15.559920
       4A    -11.358477     5A    -11.297423     6A    -11.258859
       7A    -11.254774     8A    -11.247554     9A    -11.244835
      10A    -11.229736    11A     -1.374719    12A     -1.225433
      13A     -1.209490    14A     -1.137486    15A     -1.026566
      16A     -1.007337    17A     -0.885096    18A     -0.832772
      19A     -0.787751    20A     -0.728276    21A     -0.709588
      22A     -0.692894    23A     -0.670277    24A     -0.634416
      25A     -0.625574    26A     -0.607560    27A     -0.576783
      28A     -0.572186    29A     -0.539887    30A     -0.526678
      31A     -0.485866    32A     -0.460030    33A     -0.427005
      34A     -0.417502    35A     -0.341758    36A     -0.311677

  @DF-RHF Final Energy:  -453.64598983931580

   => Energetics <=

    Nuclear Repulsion Energy =            497.0704041252269008
    One-Electron Energy =               -1602.6902974699767128
    Two-Electron Energy =                 651.9739035054341230
    Total Energy =                       -453.6459898393158028
  Basis Set: (AUG-CC-PVTZ AUX)
    Blend: AUG-CC-PVTZ-RI
    Molecular point group: c1

    Geometry (in Angstrom), charge = 0, multiplicity = 1:

       Center              X                  Y                   Z               Mass
    ------------   -----------------  -----------------  -----------------  -----------------
         O            2.336347319550     0.762612831963    -0.507580738391    15.994914619570
         N            0.093854319550     2.208432831963     0.257960261609    14.003074004430
         N            2.307108319550    -1.322734168037     0.401728261609    14.003074004430
         C            0.192809319550    -0.221642168037    -0.023414738391    12.000000000000
         C           -0.540597680450     0.984403831963     0.081611261609    12.000000000000
         C           -0.586578180450    -1.614265768037    -0.185229238391    12.000000000000
         C           -1.943600680450     0.903832831963     0.133843261609    12.000000000000
         C           -1.879148680450    -1.498021168037    -0.141318738391    12.000000000000
         C           -2.604325680450    -0.312816168037     0.007818261609    12.000000000000
         C            1.682877319550    -0.189882168037    -0.061352738391    12.000000000000
         H            0.084997319550    -2.350991168037    -0.319964738391     1.007825032230
         H           -2.516219680450     1.823782831963     0.241726261609     1.007825032230
         H           -2.390992680450    -2.448563168037    -0.263563738391     1.007825032230
         H           -3.691491680450    -0.335358168037     0.034029261609     1.007825032230
         H            1.022705319550     2.238979831963    -0.152897738391     1.007825032230
         H           -0.478716680450     3.007325831963     0.010418261609     1.007825032230
         H            1.831352319550    -1.901473168037     1.080155261609     1.007825032230
         H            3.312714319550    -1.243974168037     0.498820261609     1.007825032230

  Basis Set: AUG-CC-PVTZ
    Blend: AUG-CC-PVTZ
  Basis Set: (AUG-CC-PVTZ AUX)
    Blend: AUG-CC-PVTZ-JKFIT
	 Reference Energy          =    -453.6459898393158028 [Eh]
	 Singles Energy            =      -0.0000000000000000 [Eh]
	 Same-Spin Energy          =      -0.4857265515958722 [Eh]
	 Opposite-Spin Energy      =      -1.4810666441907774 [Eh]
	 Correlation Energy        =      -1.9667931957866496 [Eh]
	 Total Energy              =    -455.6127830351024386 [Eh]

	 ================> DF-SCS-MP2 Energies <==================
	-----------------------------------------------------------
	 SCS Same-Spin Scale       =       0.3333333333333333 [-]
	 SCS Opposite-Spin Scale   =       1.2000000000000000 [-]
	 SCS Same-Spin Energy      =      -0.1619088505319574 [Eh]
	 SCS Opposite-Spin Energy  =      -1.7772799730289328 [Eh]
	 SCS Correlation Energy    =      -1.9391888235608903 [Eh]
	 SCS Total Energy          =    -455.5851786628766718 [Eh]
	-----------------------------------------------------------

  Dipole Moment: [D]
     X:    -1.3779      Y:    -1.3541      Z:     1.0605     Total:     2.2038

*** Psi4 exiting successfully. Buy a developer a beer!
