                               Psi4 1.4a3.dev225

  ==> Input File <==

--------------------------------------------------------------------------
#psi4
#
memory 32 gb

molecule  {
0 1
  O        2.3476870     0.7564740    -0.5170070
  N        0.1051940     2.2022940     0.2485340
  N        2.3184480    -1.3288730     0.3923020
  C        0.2041490    -0.2277810    -0.0328410
  C       -0.5292580     0.9782650     0.0721850
  C       -0.4780620    -1.4467680    -0.1744800
  C       -1.9322610     0.8976940     0.1244170
  C       -1.8678090    -1.5041600    -0.1507450
  C       -2.5929860    -0.3189550    -0.0016080
  C        1.6110917    -0.2434615    -0.0648533
  H        0.0963370    -2.3571300    -0.3293910
  H       -2.5048800     1.8176440     0.2323000
  H       -2.3796530    -2.4547020    -0.2729900
  H       -3.6801520    -0.3414970     0.0246030
  H        1.0340450     2.2328410    -0.1623240
  H       -0.4673770     3.0011870     0.0009920
  H        1.8426920    -1.9076120     1.0707290
  H        3.3240540    -1.2501130     0.4893940
units angstrom
no_reorient  #important for SAPT in psi4, default
symmetry c1  #important for SAPT in psi4, default
}

set PROPERTIES_ORIGIN ["COM"]
properties('MP2/aug-cc-pvtz', properties = ['dipole'])
--------------------------------------------------------------------------

    Molecular point group: c1
  Charge       = 0
  Multiplicity = 1
  Basis Set: AUG-CC-PVTZ
    Blend: AUG-CC-PVTZ
  Basis Set: (AUG-CC-PVTZ AUX)
    Blend: AUG-CC-PVTZ-JKFIT

    Orbital Energies [Eh]
    ---------------------

    Doubly Occupied:

       1A    -20.510325     2A    -15.590480     3A    -15.562383
       4A    -11.363795     5A    -11.305492     6A    -11.262637
       7A    -11.260639     8A    -11.243740     9A    -11.239168
      10A    -11.236386    11A     -1.333497    12A     -1.229830
      13A     -1.203555    14A     -1.143302    15A     -1.051506
      16A     -1.004809    17A     -0.892182    18A     -0.841037
      19A     -0.792817    20A     -0.733526    21A     -0.702648
      22A     -0.690571    23A     -0.683393    24A     -0.630251
      25A     -0.612206    26A     -0.608357    27A     -0.571776
      28A     -0.568368    29A     -0.534210    30A     -0.519923
      31A     -0.514827    32A     -0.458174    33A     -0.424732
      34A     -0.406876    35A     -0.357355    36A     -0.307736

  @DF-RHF Final Energy:  -453.66654441776126

   => Energetics <=

    Nuclear Repulsion Energy =            500.0456224384388975
    One-Electron Energy =               -1608.6393167400724451
    Two-Electron Energy =                 654.9271498838722891
    Total Energy =                       -453.6665444177613153
  Basis Set: (AUG-CC-PVTZ AUX)
    Blend: AUG-CC-PVTZ-RI
    Molecular point group: c1

    Geometry (in Angstrom), charge = 0, multiplicity = 1:

       Center              X                  Y                   Z               Mass
    ------------   -----------------  -----------------  -----------------  -----------------
         O            2.335108087881     0.751483091900    -0.509882707876    15.994914619570
         N            0.092615087881     2.197303091900     0.255658292124    14.003074004430
         N            2.305869087881    -1.333863908100     0.399426292124    14.003074004430
         C            0.191570087881    -0.232771908100    -0.025716707876    12.000000000000
         C           -0.541836912119     0.973274091900     0.079309292124    12.000000000000
         C           -0.490640912119    -1.451758908100    -0.167355707876    12.000000000000
         C           -1.944839912119     0.892703091900     0.131541292124    12.000000000000
         C           -1.880387912119    -1.509150908100    -0.143620707876    12.000000000000
         C           -2.605564912119    -0.323945908100     0.005516292124    12.000000000000
         C            1.598512787881    -0.248452408100    -0.057729007876    12.000000000000
         H            0.083758087881    -2.362120908100    -0.322266707876     1.007825032230
         H           -2.517458912119     1.812653091900     0.239424292124     1.007825032230
         H           -2.392231912119    -2.459692908100    -0.265865707876     1.007825032230
         H           -3.692730912119    -0.346487908100     0.031727292124     1.007825032230
         H            1.021466087881     2.227850091900    -0.155199707876     1.007825032230
         H           -0.479955912119     2.996196091900     0.008116292124     1.007825032230
         H            1.830113087881    -1.912602908100     1.077853292124     1.007825032230
         H            3.311475087881    -1.255103908100     0.496518292124     1.007825032230

  Basis Set: AUG-CC-PVTZ
    Blend: AUG-CC-PVTZ
  Basis Set: (AUG-CC-PVTZ AUX)
    Blend: AUG-CC-PVTZ-JKFIT
	 Reference Energy          =    -453.6665444177612585 [Eh]
	 Singles Energy            =      -0.0000000000000000 [Eh]
	 Same-Spin Energy          =      -0.4885415757080408 [Eh]
	 Opposite-Spin Energy      =      -1.4834443475055330 [Eh]
	 Correlation Energy        =      -1.9719859232135737 [Eh]
	 Total Energy              =    -455.6385303409748531 [Eh]

	 ================> DF-SCS-MP2 Energies <==================
	-----------------------------------------------------------
	 SCS Same-Spin Scale       =       0.3333333333333333 [-]
	 SCS Opposite-Spin Scale   =       1.2000000000000000 [-]
	 SCS Same-Spin Energy      =      -0.1628471919026803 [Eh]
	 SCS Opposite-Spin Energy  =      -1.7801332170066395 [Eh]
	 SCS Correlation Energy    =      -1.9429804089093197 [Eh]
	 SCS Total Energy          =    -455.6095248266705653 [Eh]
	-----------------------------------------------------------

  Dipole Moment: [D]
     X:    -1.7391      Y:    -1.5344      Z:     1.1872     Total:     2.6055

*** Psi4 exiting successfully. Buy a developer a beer!
