                               Psi4 1.4a3.dev225

  ==> Input File <==

--------------------------------------------------------------------------
#psi4
#
memory 32 gb

molecule  {
0 1
  O        2.3476870     0.7564740    -0.5170070
  N        0.1051940     2.2022940     0.2485340
  N        2.3184480    -1.3288730     0.3923020
  C        0.2041490    -0.2277810    -0.0328410
  C       -0.6328877     1.1486782     0.0870251
  C       -0.4780620    -1.4467680    -0.1744800
  C       -1.9322610     0.8976940     0.1244170
  C       -1.8678090    -1.5041600    -0.1507450
  C       -2.5929860    -0.3189550    -0.0016080
  C        1.6942170    -0.1960210    -0.0707790
  H        0.0963370    -2.3571300    -0.3293910
  H       -2.5048800     1.8176440     0.2323000
  H       -2.3796530    -2.4547020    -0.2729900
  H       -3.6801520    -0.3414970     0.0246030
  H        1.0340450     2.2328410    -0.1623240
  H       -0.4673770     3.0011870     0.0009920
  H        1.8426920    -1.9076120     1.0707290
  H        3.3240540    -1.2501130     0.4893940
units angstrom
no_reorient  #important for SAPT in psi4, default
symmetry c1  #important for SAPT in psi4, default
}

set PROPERTIES_ORIGIN ["COM"]
properties('MP2/aug-cc-pvtz', properties = ['dipole'])
--------------------------------------------------------------------------

    Molecular point group: c1
  Charge       = 0
  Multiplicity = 1
  Basis Set: AUG-CC-PVTZ
    Blend: AUG-CC-PVTZ
  Basis Set: (AUG-CC-PVTZ AUX)
    Blend: AUG-CC-PVTZ-JKFIT

    Orbital Energies [Eh]
    ---------------------

    Doubly Occupied:

       1A    -20.524612     2A    -15.584648     3A    -15.572491
       4A    -11.361099     5A    -11.303073     6A    -11.255855
       7A    -11.254708     8A    -11.251755     9A    -11.226810
      10A    -11.219064    11A     -1.378154    12A     -1.266299
      13A     -1.211232    14A     -1.134699    15A     -1.033620
      16A     -0.994444    17A     -0.883113    18A     -0.815757
      19A     -0.793954    20A     -0.732634    21A     -0.720152
      22A     -0.700811    23A     -0.675426    24A     -0.646346
      25A     -0.614725    26A     -0.589320    27A     -0.580737
      28A     -0.569498    29A     -0.549018    30A     -0.537055
      31A     -0.471794    32A     -0.464531    33A     -0.431997
      34A     -0.417881    35A     -0.352232    36A     -0.291823

  @DF-RHF Final Energy:  -453.64243373473164

   => Energetics <=

    Nuclear Repulsion Energy =            498.2965775086765348
    One-Electron Energy =               -1605.0552940399888939
    Two-Electron Energy =                 653.1162827965806628
    Total Energy =                       -453.6424337347316396
  Basis Set: (AUG-CC-PVTZ AUX)
    Blend: AUG-CC-PVTZ-RI
    Molecular point group: c1

    Geometry (in Angstrom), charge = 0, multiplicity = 1:

       Center              X                  Y                   Z               Mass
    ------------   -----------------  -----------------  -----------------  -----------------
         O            2.336916453133     0.732269700576    -0.510668904556    15.994914619570
         N            0.094423453133     2.178089700576     0.254872095444    14.003074004430
         N            2.307677453133    -1.353077299424     0.398640095444    14.003074004430
         C            0.193378453133    -0.251985299424    -0.026502904556    12.000000000000
         C           -0.643658246867     1.124473900576     0.093363195444    12.000000000000
         C           -0.488832546867    -1.470972299424    -0.168141904556    12.000000000000
         C           -1.943031546867     0.873489700576     0.130755095444    12.000000000000
         C           -1.878579546867    -1.528364299424    -0.144406904556    12.000000000000
         C           -2.603756546867    -0.343159299424     0.004730095444    12.000000000000
         C            1.683446453133    -0.220225299424    -0.064440904556    12.000000000000
         H            0.085566453133    -2.381334299424    -0.323052904556     1.007825032230
         H           -2.515650546867     1.793439700576     0.238638095444     1.007825032230
         H           -2.390423546867    -2.478906299424    -0.266651904556     1.007825032230
         H           -3.690922546867    -0.365701299424     0.030941095444     1.007825032230
         H            1.023274453133     2.208636700576    -0.155985904556     1.007825032230
         H           -0.478147546867     2.976982700576     0.007330095444     1.007825032230
         H            1.831921453133    -1.931816299424     1.077067095444     1.007825032230
         H            3.313283453133    -1.274317299424     0.495732095444     1.007825032230

  Basis Set: AUG-CC-PVTZ
    Blend: AUG-CC-PVTZ
  Basis Set: (AUG-CC-PVTZ AUX)
    Blend: AUG-CC-PVTZ-JKFIT
	 Reference Energy          =    -453.6424337347316396 [Eh]
	 Singles Energy            =      -0.0000000000000000 [Eh]
	 Same-Spin Energy          =      -0.4871839838007054 [Eh]
	 Opposite-Spin Energy      =      -1.4812393330086151 [Eh]
	 Correlation Energy        =      -1.9684233168093206 [Eh]
	 Total Energy              =    -455.6108570515409610 [Eh]

	 ================> DF-SCS-MP2 Energies <==================
	-----------------------------------------------------------
	 SCS Same-Spin Scale       =       0.3333333333333333 [-]
	 SCS Opposite-Spin Scale   =       1.2000000000000000 [-]
	 SCS Same-Spin Energy      =      -0.1623946612669018 [Eh]
	 SCS Opposite-Spin Energy  =      -1.7774871996103381 [Eh]
	 SCS Correlation Energy    =      -1.9398818608772399 [Eh]
	 SCS Total Energy          =    -455.5823155956088613 [Eh]
	-----------------------------------------------------------

  Dipole Moment: [D]
     X:    -0.8576      Y:    -0.8335      Z:     1.1320     Total:     1.6467

*** Psi4 exiting successfully. Buy a developer a beer!
