                               Psi4 1.4a3.dev225

  ==> Input File <==

--------------------------------------------------------------------------
#psi4
#
memory 32 gb

molecule  {
0 1
  O        2.3476870     0.7564740    -0.5170070
  N        0.1051940     2.2022940     0.2485340
  N        2.3184480    -1.3288730     0.3923020
  C        0.2041490    -0.2277810    -0.0328410
  C       -0.5292580     0.9782650     0.0721850
  C       -0.4780620    -1.4467680    -0.1744800
  C       -1.9322610     0.8976940     0.1244170
  C       -1.8678090    -1.5041600    -0.1507450
  C       -2.5929860    -0.3189550    -0.0016080
  C        1.6942170    -0.1960210    -0.0707790
  H        0.0963370    -2.3571300    -0.3293910
  H       -2.5048800     1.8176440     0.2323000
  H       -2.3796530    -2.4547020    -0.2729900
  H       -3.6801520    -0.3414970     0.0246030
  H        1.0340450     2.2328410    -0.1623240
  H       -0.4673770     3.0011870     0.0009920
  H        1.8426920    -1.9076120     1.0707290
  H        3.1255819    -1.2656575     0.4702314
units angstrom
no_reorient  #important for SAPT in psi4, default
symmetry c1  #important for SAPT in psi4, default
}

set PROPERTIES_ORIGIN ["COM"]
properties('MP2/aug-cc-pvtz', properties = ['dipole'])
--------------------------------------------------------------------------

    Molecular point group: c1
  Charge       = 0
  Multiplicity = 1
  Basis Set: AUG-CC-PVTZ
    Blend: AUG-CC-PVTZ
  Basis Set: (AUG-CC-PVTZ AUX)
    Blend: AUG-CC-PVTZ-JKFIT

    Orbital Energies [Eh]
    ---------------------

    Doubly Occupied:

       1A    -20.528672     2A    -15.567662     3A    -15.560752
       4A    -11.365143     5A    -11.297737     6A    -11.256621
       7A    -11.253876     8A    -11.244564     9A    -11.235135
      10A    -11.232732    11A     -1.385277    12A     -1.247818
      13A     -1.227825    14A     -1.138969    15A     -1.040994
      16A     -0.999456    17A     -0.889858    18A     -0.839765
      19A     -0.801785    20A     -0.753540    21A     -0.713149
      22A     -0.688641    23A     -0.684697    24A     -0.639291
      25A     -0.612256    26A     -0.605748    27A     -0.588030
      28A     -0.579011    29A     -0.540517    30A     -0.524592
      31A     -0.510851    32A     -0.455779    33A     -0.437795
      34A     -0.424651    35A     -0.352937    36A     -0.303856

  @DF-RHF Final Energy:  -453.64150167808822

   => Energetics <=

    Nuclear Repulsion Energy =            501.0939415940191566
    One-Electron Energy =               -1610.4109240386671900
    Two-Electron Energy =                 655.6754807665599856
    Total Energy =                       -453.6415016780881615
  Basis Set: (AUG-CC-PVTZ AUX)
    Blend: AUG-CC-PVTZ-RI
    Molecular point group: c1

    Geometry (in Angstrom), charge = 0, multiplicity = 1:

       Center              X                  Y                   Z               Mass
    ------------   -----------------  -----------------  -----------------  -----------------
         O            2.329247019375     0.747414262265    -0.509218159046    15.994914619570
         N            0.086754019375     2.193234262265     0.256322840954    14.003074004430
         N            2.300008019375    -1.337932737735     0.400090840954    14.003074004430
         C            0.185709019375    -0.236840737735    -0.025052159046    12.000000000000
         C           -0.547697980625     0.969205262265     0.079973840954    12.000000000000
         C           -0.496501980625    -1.455827737735    -0.166691159046    12.000000000000
         C           -1.950700980625     0.888634262265     0.132205840954    12.000000000000
         C           -1.886248980625    -1.513219737735    -0.142956159046    12.000000000000
         C           -2.611425980625    -0.328014737735     0.006180840954    12.000000000000
         C            1.675777019375    -0.205080737735    -0.062990159046    12.000000000000
         H            0.077897019375    -2.366189737735    -0.321602159046     1.007825032230
         H           -2.523319980625     1.808584262265     0.240088840954     1.007825032230
         H           -2.398092980625    -2.463761737735    -0.265201159046     1.007825032230
         H           -3.698591980625    -0.350556737735     0.032391840954     1.007825032230
         H            1.015605019375     2.223781262265    -0.154535159046     1.007825032230
         H           -0.485816980625     2.992127262265     0.008780840954     1.007825032230
         H            1.824252019375    -1.916671737735     1.078517840954     1.007825032230
         H            3.107141919375    -1.274717237735     0.478020240954     1.007825032230

  Basis Set: AUG-CC-PVTZ
    Blend: AUG-CC-PVTZ
  Basis Set: (AUG-CC-PVTZ AUX)
    Blend: AUG-CC-PVTZ-JKFIT
	 Reference Energy          =    -453.6415016780882183 [Eh]
	 Singles Energy            =      -0.0000000000000000 [Eh]
	 Same-Spin Energy          =      -0.4850849703435570 [Eh]
	 Opposite-Spin Energy      =      -1.4763996673332498 [Eh]
	 Correlation Energy        =      -1.9614846376768069 [Eh]
	 Total Energy              =    -455.6029863157650084 [Eh]

	 ================> DF-SCS-MP2 Energies <==================
	-----------------------------------------------------------
	 SCS Same-Spin Scale       =       0.3333333333333333 [-]
	 SCS Opposite-Spin Scale   =       1.2000000000000000 [-]
	 SCS Same-Spin Energy      =      -0.1616949901145190 [Eh]
	 SCS Opposite-Spin Energy  =      -1.7716796007998996 [Eh]
	 SCS Correlation Energy    =      -1.9333745909144187 [Eh]
	 SCS Total Energy          =    -455.5748762690026297 [Eh]
	-----------------------------------------------------------

  Dipole Moment: [D]
     X:    -1.3349      Y:    -1.3353      Z:     1.0449     Total:     2.1579

*** Psi4 exiting successfully. Buy a developer a beer!
