                               Psi4 1.4a3.dev225

  ==> Input File <==

--------------------------------------------------------------------------
#psi4
#
memory 32 gb

molecule  {
0 1
  O        2.3476870     0.7564740    -0.5170070
  N        0.1051940     2.2022940     0.2485340
  N        2.3184480    -1.3288730     0.3923020
  C        0.2041490    -0.2277810    -0.0328410
  C       -0.5292580     0.9782650     0.0721850
  C       -0.4780620    -1.4467680    -0.1744800
  C       -1.9322610     0.8976940     0.1244170
  C       -1.8678090    -1.5041600    -0.1507450
  C       -2.5929860    -0.3189550    -0.0016080
  C        1.6942170    -0.1960210    -0.0707790
  H        0.0963370    -2.3571300    -0.3293910
  H       -2.5048800     1.8176440     0.2323000
  H       -2.3796530    -2.4547020    -0.2729900
  H       -3.6801520    -0.3414970     0.0246030
  H        1.0299522     2.2482721    -0.1700467
  H       -0.4673770     3.0011870     0.0009920
  H        1.8426920    -1.9076120     1.0707290
  H        3.3240540    -1.2501130     0.4893940
units angstrom
no_reorient  #important for SAPT in psi4, default
symmetry c1  #important for SAPT in psi4, default
}

set PROPERTIES_ORIGIN ["COM"]
properties('MP2/aug-cc-pvtz', properties = ['dipole'])
--------------------------------------------------------------------------

    Molecular point group: c1
  Charge       = 0
  Multiplicity = 1
  Basis Set: AUG-CC-PVTZ
    Blend: AUG-CC-PVTZ
  Basis Set: (AUG-CC-PVTZ AUX)
    Blend: AUG-CC-PVTZ-JKFIT

    Orbital Energies [Eh]
    ---------------------

    Doubly Occupied:

       1A    -20.526111     2A    -15.587530     3A    -15.560279
       4A    -11.363452     5A    -11.297325     6A    -11.255897
       7A    -11.253300     8A    -11.244432     9A    -11.234763
      10A    -11.232236    11A     -1.379814    12A     -1.227171
      13A     -1.214017    14A     -1.137170    15A     -1.036620
      16A     -0.998772    17A     -0.877258    18A     -0.833896
      19A     -0.792777    20A     -0.736369    21A     -0.698699
      22A     -0.687760    23A     -0.673087    24A     -0.637919
      25A     -0.609155    26A     -0.604060    27A     -0.586025
      28A     -0.575096    29A     -0.539500    30A     -0.523465
      31A     -0.510024    32A     -0.455276    33A     -0.435483
      34A     -0.420223    35A     -0.352201    36A     -0.303490

  @DF-RHF Final Energy:  -453.68665042102083

   => Energetics <=

    Nuclear Repulsion Energy =            499.7123527004449670
    One-Electron Energy =               -1607.9966963732392742
    Two-Electron Energy =                 654.5976932517735349
    Total Energy =                       -453.6866504210208859
  Basis Set: (AUG-CC-PVTZ AUX)
    Blend: AUG-CC-PVTZ-RI
    Molecular point group: c1

    Geometry (in Angstrom), charge = 0, multiplicity = 1:

       Center              X                  Y                   Z               Mass
    ------------   -----------------  -----------------  -----------------  -----------------
         O            2.327807249783     0.747184825659    -0.509302894510    15.994914619570
         N            0.085314249783     2.193004825659     0.256238105490    14.003074004430
         N            2.298568249783    -1.338162174341     0.400006105490    14.003074004430
         C            0.184269249783    -0.237070174341    -0.025136894510    12.000000000000
         C           -0.549137750217     0.968975825659     0.079889105490    12.000000000000
         C           -0.497941750217    -1.456057174341    -0.166775894510    12.000000000000
         C           -1.952140750217     0.888404825659     0.132121105490    12.000000000000
         C           -1.887688750217    -1.513449174341    -0.143040894510    12.000000000000
         C           -2.612865750217    -0.328244174341     0.006096105490    12.000000000000
         C            1.674337249783    -0.205310174341    -0.063074894510    12.000000000000
         H            0.076457249783    -2.366419174341    -0.321686894510     1.007825032230
         H           -2.524759750217     1.808354825659     0.240004105490     1.007825032230
         H           -2.399532750217    -2.463991174341    -0.265285894510     1.007825032230
         H           -3.700031750217    -0.350786174341     0.032307105490     1.007825032230
         H            1.010072449783     2.238982925659    -0.162342594510     1.007825032230
         H           -0.487256750217     2.991897825659     0.008696105490     1.007825032230
         H            1.822812249783    -1.916901174341     1.078433105490     1.007825032230
         H            3.304174249783    -1.259402174341     0.497098105490     1.007825032230

  Basis Set: AUG-CC-PVTZ
    Blend: AUG-CC-PVTZ
  Basis Set: (AUG-CC-PVTZ AUX)
    Blend: AUG-CC-PVTZ-JKFIT
	 Reference Energy          =    -453.6866504210208291 [Eh]
	 Singles Energy            =      -0.0000000000000000 [Eh]
	 Same-Spin Energy          =      -0.4861502561338936 [Eh]
	 Opposite-Spin Energy      =      -1.4788687071798359 [Eh]
	 Correlation Energy        =      -1.9650189633137294 [Eh]
	 Total Energy              =    -455.6516693843345820 [Eh]

	 ================> DF-SCS-MP2 Energies <==================
	-----------------------------------------------------------
	 SCS Same-Spin Scale       =       0.3333333333333333 [-]
	 SCS Opposite-Spin Scale   =       1.2000000000000000 [-]
	 SCS Same-Spin Energy      =      -0.1620500853779645 [Eh]
	 SCS Opposite-Spin Energy  =      -1.7746424486158030 [Eh]
	 SCS Correlation Energy    =      -1.9366925339937675 [Eh]
	 SCS Total Energy          =    -455.6233429550146070 [Eh]
	-----------------------------------------------------------

  Dipole Moment: [D]
     X:    -1.1399      Y:    -1.3450      Z:     1.0520     Total:     2.0531

*** Psi4 exiting successfully. Buy a developer a beer!
