                               Psi4 1.4a3.dev225

  ==> Input File <==

--------------------------------------------------------------------------
#psi4
#
memory 32 gb

molecule  {
0 1
  O        2.3476870     0.7564740    -0.5170070
  N        0.1051940     2.2022940     0.2485340
  N        2.3184480    -1.3288730     0.3923020
  C        0.2041490    -0.2277810    -0.0328410
  C       -0.5749047     0.8902002     0.0594973
  C       -0.4780620    -1.4467680    -0.1744800
  C       -1.9322610     0.8976940     0.1244170
  C       -1.8678090    -1.5041600    -0.1507450
  C       -2.5929860    -0.3189550    -0.0016080
  C        1.6942170    -0.1960210    -0.0707790
  H        0.0963370    -2.3571300    -0.3293910
  H       -2.5048800     1.8176440     0.2323000
  H       -2.3796530    -2.4547020    -0.2729900
  H       -3.6801520    -0.3414970     0.0246030
  H        1.0340450     2.2328410    -0.1623240
  H       -0.4673770     3.0011870     0.0009920
  H        1.8426920    -1.9076120     1.0707290
  H        3.3240540    -1.2501130     0.4893940
units angstrom
no_reorient  #important for SAPT in psi4, default
symmetry c1  #important for SAPT in psi4, default
}

set PROPERTIES_ORIGIN ["COM"]
properties('MP2/aug-cc-pvtz', properties = ['dipole'])
--------------------------------------------------------------------------

    Molecular point group: c1
  Charge       = 0
  Multiplicity = 1
  Basis Set: AUG-CC-PVTZ
    Blend: AUG-CC-PVTZ
  Basis Set: (AUG-CC-PVTZ AUX)
    Blend: AUG-CC-PVTZ-JKFIT

    Orbital Energies [Eh]
    ---------------------

    Doubly Occupied:

       1A    -20.528383     2A    -15.590783     3A    -15.547403
       4A    -11.367982     5A    -11.288633     6A    -11.258305
       7A    -11.255571     8A    -11.245383     9A    -11.237609
      10A    -11.234747    11A     -1.381770    12A     -1.218137
      13A     -1.204536    14A     -1.132343    15A     -1.045451
      16A     -1.005616    17A     -0.882331    18A     -0.838858
      19A     -0.795065    20A     -0.740244    21A     -0.698149
      22A     -0.677608    23A     -0.664901    24A     -0.635503
      25A     -0.617621    26A     -0.598275    27A     -0.586072
      28A     -0.578364    29A     -0.538089    30A     -0.526427
      31A     -0.509939    32A     -0.440876    33A     -0.437828
      34A     -0.421816    35A     -0.355907    36A     -0.315427

  @DF-RHF Final Energy:  -453.67510213810993

   => Energetics <=

    Nuclear Repulsion Energy =            500.3263444945544052
    One-Electron Energy =               -1609.1989890391505469
    Two-Electron Energy =                 655.1975424064861500
    Total Energy =                       -453.6751021381099918
  Basis Set: (AUG-CC-PVTZ AUX)
    Blend: AUG-CC-PVTZ-RI
    Molecular point group: c1

    Geometry (in Angstrom), charge = 0, multiplicity = 1:

       Center              X                  Y                   Z               Mass
    ------------   -----------------  -----------------  -----------------  -----------------
         O            2.331802699870     0.755065911807    -0.508241117497    15.994914619570
         N            0.089309699870     2.200885911807     0.257299882503    14.003074004430
         N            2.302563699870    -1.330281088193     0.401067882503    14.003074004430
         C            0.188264699870    -0.229189088193    -0.024075117497    12.000000000000
         C           -0.590789000130     0.888792111807     0.068263182503    12.000000000000
         C           -0.493946300130    -1.448176088193    -0.165714117497    12.000000000000
         C           -1.948145300130     0.896285911807     0.133182882503    12.000000000000
         C           -1.883693300130    -1.505568088193    -0.141979117497    12.000000000000
         C           -2.608870300130    -0.320363088193     0.007157882503    12.000000000000
         C            1.678332699870    -0.197429088193    -0.062013117497    12.000000000000
         H            0.080452699870    -2.358538088193    -0.320625117497     1.007825032230
         H           -2.520764300130     1.816235911807     0.241065882503     1.007825032230
         H           -2.395537300130    -2.456110088193    -0.264224117497     1.007825032230
         H           -3.696036300130    -0.342905088193     0.033368882503     1.007825032230
         H            1.018160699870     2.231432911807    -0.153558117497     1.007825032230
         H           -0.483261300130     2.999778911807     0.009757882503     1.007825032230
         H            1.826807699870    -1.909020088193     1.079494882503     1.007825032230
         H            3.308169699870    -1.251521088193     0.498159882503     1.007825032230

  Basis Set: AUG-CC-PVTZ
    Blend: AUG-CC-PVTZ
  Basis Set: (AUG-CC-PVTZ AUX)
    Blend: AUG-CC-PVTZ-JKFIT
	 Reference Energy          =    -453.6751021381099349 [Eh]
	 Singles Energy            =      -0.0000000000000000 [Eh]
	 Same-Spin Energy          =      -0.4860177027977889 [Eh]
	 Opposite-Spin Energy      =      -1.4794910480931018 [Eh]
	 Correlation Energy        =      -1.9655087508908906 [Eh]
	 Total Energy              =    -455.6406108890008113 [Eh]

	 ================> DF-SCS-MP2 Energies <==================
	-----------------------------------------------------------
	 SCS Same-Spin Scale       =       0.3333333333333333 [-]
	 SCS Opposite-Spin Scale   =       1.2000000000000000 [-]
	 SCS Same-Spin Energy      =      -0.1620059009325963 [Eh]
	 SCS Opposite-Spin Energy  =      -1.7753892577117221 [Eh]
	 SCS Correlation Energy    =      -1.9373951586443183 [Eh]
	 SCS Total Energy          =    -455.6124972967542703 [Eh]
	-----------------------------------------------------------

  Dipole Moment: [D]
     X:    -1.3418      Y:    -1.9508      Z:     0.9857     Total:     2.5647

*** Psi4 exiting successfully. Buy a developer a beer!
