                               Psi4 1.4a3.dev225

  ==> Input File <==

--------------------------------------------------------------------------
#psi4
#
memory 32 gb

molecule  {
0 1
  O        2.3476870     0.7564740    -0.5170070
  N        0.1051940     2.2022940     0.2485340
  N        2.3184480    -1.3288730     0.3923020
  C        0.2041490    -0.2277810    -0.0328410
  C       -0.5292580     0.9782650     0.0721850
  C       -0.4780620    -1.4467680    -0.1744800
  C       -1.9322610     0.8976940     0.1244170
  C       -1.8678090    -1.5041600    -0.1507450
  C       -2.5929860    -0.3189550    -0.0016080
  C        1.6942170    -0.1960210    -0.0707790
  H        0.0963370    -2.3571300    -0.3293910
  H       -2.5048800     1.8176440     0.2323000
  H       -2.3796530    -2.4547020    -0.2729900
  H       -3.6801520    -0.3414970     0.0246030
  H        1.0340450     2.2328410    -0.1623240
  H       -0.4673770     3.0011870     0.0009920
  H        1.8426920    -1.9076120     1.0707290
  H        3.4232900    -1.2423407     0.4989753
units angstrom
no_reorient  #important for SAPT in psi4, default
symmetry c1  #important for SAPT in psi4, default
}

set PROPERTIES_ORIGIN ["COM"]
properties('MP2/aug-cc-pvtz', properties = ['dipole'])
--------------------------------------------------------------------------

    Molecular point group: c1
  Charge       = 0
  Multiplicity = 1
  Basis Set: AUG-CC-PVTZ
    Blend: AUG-CC-PVTZ
  Basis Set: (AUG-CC-PVTZ AUX)
    Blend: AUG-CC-PVTZ-JKFIT

    Orbital Energies [Eh]
    ---------------------

    Doubly Occupied:

       1A    -20.525473     2A    -15.595594     3A    -15.559813
       4A    -11.363161     5A    -11.296979     6A    -11.255654
       7A    -11.253040     8A    -11.244430     9A    -11.234400
      10A    -11.231877    11A     -1.378545    12A     -1.226922
      13A     -1.204138    14A     -1.136243    15A     -1.035064
      16A     -0.998237    17A     -0.874070    18A     -0.831962
      19A     -0.789905    20A     -0.731848    21A     -0.693862
      22A     -0.687637    23A     -0.660793    24A     -0.637240
      25A     -0.607257    26A     -0.602475    27A     -0.585295
      28A     -0.572375    29A     -0.538966    30A     -0.523026
      31A     -0.509629    32A     -0.454871    33A     -0.434823
      34A     -0.418668    35A     -0.351937    36A     -0.302998

  @DF-RHF Final Energy:  -453.67627706004754

   => Energetics <=

    Nuclear Repulsion Energy =            499.2178806426584856
    One-Electron Energy =               -1607.0898998935203963
    Two-Electron Energy =                 654.1957421908143715
    Total Energy =                       -453.6762770600475960
  Basis Set: (AUG-CC-PVTZ AUX)
    Blend: AUG-CC-PVTZ-RI
    Molecular point group: c1

    Geometry (in Angstrom), charge = 0, multiplicity = 1:

       Center              X                  Y                   Z               Mass
    ------------   -----------------  -----------------  -----------------  -----------------
         O            2.327041892237     0.747241554474    -0.509431065426    15.994914619570
         N            0.084548892237     2.193061554474     0.256109934574    14.003074004430
         N            2.297802892237    -1.338105445526     0.399877934574    14.003074004430
         C            0.183503892237    -0.237013445526    -0.025265065426    12.000000000000
         C           -0.549903107763     0.969032554474     0.079760934574    12.000000000000
         C           -0.498707107763    -1.456000445526    -0.166904065426    12.000000000000
         C           -1.952906107763     0.888461554474     0.131992934574    12.000000000000
         C           -1.888454107763    -1.513392445526    -0.143169065426    12.000000000000
         C           -2.613631107763    -0.328187445526     0.005967934574    12.000000000000
         C            1.673571892237    -0.205253445526    -0.063203065426    12.000000000000
         H            0.075691892237    -2.366362445526    -0.321815065426     1.007825032230
         H           -2.525525107763     1.808411554474     0.239875934574     1.007825032230
         H           -2.400298107763    -2.463934445526    -0.265414065426     1.007825032230
         H           -3.700797107763    -0.350729445526     0.032178934574     1.007825032230
         H            1.013399892237     2.223608554474    -0.154748065426     1.007825032230
         H           -0.488022107763     2.991954554474     0.008567934574     1.007825032230
         H            1.822046892237    -1.916844445526     1.078304934574     1.007825032230
         H            3.402644892237    -1.251573145526     0.506551234574     1.007825032230

  Basis Set: AUG-CC-PVTZ
    Blend: AUG-CC-PVTZ
  Basis Set: (AUG-CC-PVTZ AUX)
    Blend: AUG-CC-PVTZ-JKFIT
	 Reference Energy          =    -453.6762770600475392 [Eh]
	 Singles Energy            =      -0.0000000000000000 [Eh]
	 Same-Spin Energy          =      -0.4868632432328852 [Eh]
	 Opposite-Spin Energy      =      -1.4807053937524235 [Eh]
	 Correlation Energy        =      -1.9675686369853087 [Eh]
	 Total Energy              =    -455.6438456970328730 [Eh]

	 ================> DF-SCS-MP2 Energies <==================
	-----------------------------------------------------------
	 SCS Same-Spin Scale       =       0.3333333333333333 [-]
	 SCS Opposite-Spin Scale   =       1.2000000000000000 [-]
	 SCS Same-Spin Energy      =      -0.1622877477442951 [Eh]
	 SCS Opposite-Spin Energy  =      -1.7768464725029081 [Eh]
	 SCS Correlation Energy    =      -1.9391342202472031 [Eh]
	 SCS Total Energy          =    -455.6154112802947225 [Eh]
	-----------------------------------------------------------

  Dipole Moment: [D]
     X:    -1.0279      Y:    -1.3571      Z:     1.0691     Total:     2.0103

*** Psi4 exiting successfully. Buy a developer a beer!
