                               Psi4 1.4a3.dev225

  ==> Input File <==

--------------------------------------------------------------------------
#psi4
#
memory 32 gb

molecule  {
0 1
  O        2.3476870     0.7564740    -0.5170070
  N        0.1051940     2.2022940     0.2485340
  N        2.3184480    -1.3288730     0.3923020
  C        0.2041490    -0.2277810    -0.0328410
  C       -0.5292580     0.9782650     0.0721850
  C       -0.4780620    -1.4467680    -0.1744800
  C       -1.9322610     0.8976940     0.1244170
  C       -1.8678090    -1.5041600    -0.1507450
  C       -2.5929860    -0.3189550    -0.0016080
  C        1.6942170    -0.1960210    -0.0707790
  H        0.0963370    -2.3571300    -0.3293910
  H       -2.5048800     1.8176440     0.2323000
  H       -2.3796530    -2.4547020    -0.2729900
  H       -3.6801520    -0.3414970     0.0246030
  H        1.0052910     2.3251237    -0.2067021
  H       -0.4673770     3.0011870     0.0009920
  H        1.8426920    -1.9076120     1.0707290
  H        3.3240540    -1.2501130     0.4893940
units angstrom
no_reorient  #important for SAPT in psi4, default
symmetry c1  #important for SAPT in psi4, default
}

set PROPERTIES_ORIGIN ["COM"]
properties('MP2/aug-cc-pvtz', properties = ['dipole'])
--------------------------------------------------------------------------

    Molecular point group: c1
  Charge       = 0
  Multiplicity = 1
  Basis Set: AUG-CC-PVTZ
    Blend: AUG-CC-PVTZ
  Basis Set: (AUG-CC-PVTZ AUX)
    Blend: AUG-CC-PVTZ-JKFIT

    Orbital Energies [Eh]
    ---------------------

    Doubly Occupied:

       1A    -20.524389     2A    -15.586570     3A    -15.561120
       4A    -11.362059     5A    -11.298085     6A    -11.255756
       7A    -11.253413     8A    -11.244703     9A    -11.235551
      10A    -11.232809    11A     -1.377717    12A     -1.227205
      13A     -1.212877    14A     -1.137632    15A     -1.036626
      16A     -0.999789    17A     -0.877058    18A     -0.834579
      19A     -0.792259    20A     -0.736437    21A     -0.699016
      22A     -0.686404    23A     -0.670207    24A     -0.637838
      25A     -0.610079    26A     -0.603020    27A     -0.584028
      28A     -0.574095    29A     -0.539603    30A     -0.523231
      31A     -0.510019    32A     -0.455976    33A     -0.434119
      34A     -0.418835    35A     -0.352092    36A     -0.304734

  @DF-RHF Final Energy:  -453.68548368764425

   => Energetics <=

    Nuclear Repulsion Energy =            499.5028228469906253
    One-Electron Energy =               -1607.5967577359397183
    Two-Electron Energy =                 654.4084512013049562
    Total Energy =                       -453.6854836876442505
  Basis Set: (AUG-CC-PVTZ AUX)
    Blend: AUG-CC-PVTZ-RI
    Molecular point group: c1

    Geometry (in Angstrom), charge = 0, multiplicity = 1:

       Center              X                  Y                   Z               Mass
    ------------   -----------------  -----------------  -----------------  -----------------
         O            2.327989915560     0.746615585021    -0.509031387563    15.994914619570
         N            0.085496915560     2.192435585021     0.256509612437    14.003074004430
         N            2.298750915560    -1.338731414979     0.400277612437    14.003074004430
         C            0.184451915560    -0.237639414979    -0.024865387563    12.000000000000
         C           -0.548955084440     0.968406585021     0.080160612437    12.000000000000
         C           -0.497759084440    -1.456626414979    -0.166504387563    12.000000000000
         C           -1.951958084440     0.887835585021     0.132392612437    12.000000000000
         C           -1.887506084440    -1.514018414979    -0.142769387563    12.000000000000
         C           -2.612683084440    -0.328813414979     0.006367612437    12.000000000000
         C            1.674519915560    -0.205879414979    -0.062803387563    12.000000000000
         H            0.076639915560    -2.366988414979    -0.321415387563     1.007825032230
         H           -2.524577084440     1.807785585021     0.240275612437     1.007825032230
         H           -2.399350084440    -2.464560414979    -0.265014387563     1.007825032230
         H           -3.699849084440    -0.351355414979     0.032578612437     1.007825032230
         H            0.985593915560     2.315265285021    -0.198726487563     1.007825032230
         H           -0.487074084440     2.991328585021     0.008967612437     1.007825032230
         H            1.822994915560    -1.917470414979     1.078704612437     1.007825032230
         H            3.304356915560    -1.259971414979     0.497369612437     1.007825032230

  Basis Set: AUG-CC-PVTZ
    Blend: AUG-CC-PVTZ
  Basis Set: (AUG-CC-PVTZ AUX)
    Blend: AUG-CC-PVTZ-JKFIT
	 Reference Energy          =    -453.6854836876442505 [Eh]
	 Singles Energy            =      -0.0000000000000000 [Eh]
	 Same-Spin Energy          =      -0.4860347533019175 [Eh]
	 Opposite-Spin Energy      =      -1.4788569641333946 [Eh]
	 Correlation Energy        =      -1.9648917174353122 [Eh]
	 Total Energy              =    -455.6503754050795578 [Eh]

	 ================> DF-SCS-MP2 Energies <==================
	-----------------------------------------------------------
	 SCS Same-Spin Scale       =       0.3333333333333333 [-]
	 SCS Opposite-Spin Scale   =       1.2000000000000000 [-]
	 SCS Same-Spin Energy      =      -0.1620115844339725 [Eh]
	 SCS Opposite-Spin Energy  =      -1.7746283569600736 [Eh]
	 SCS Correlation Energy    =      -1.9366399413940460 [Eh]
	 SCS Total Energy          =    -455.6221236290382990 [Eh]
	-----------------------------------------------------------

  Dipole Moment: [D]
     X:    -1.2005      Y:    -1.2962      Z:     1.0048     Total:     2.0325

*** Psi4 exiting successfully. Buy a developer a beer!
