                               Psi4 1.4a3.dev225

  ==> Input File <==

--------------------------------------------------------------------------
#psi4
#
memory 32 gb

molecule  {
0 1
  O        2.3476870     0.7564740    -0.5170070
  N       -0.0273742     2.2600649     0.2644788
  N        2.3184480    -1.3288730     0.3923020
  C        0.2041490    -0.2277810    -0.0328410
  C       -0.5292580     0.9782650     0.0721850
  C       -0.4780620    -1.4467680    -0.1744800
  C       -1.9322610     0.8976940     0.1244170
  C       -1.8678090    -1.5041600    -0.1507450
  C       -2.5929860    -0.3189550    -0.0016080
  C        1.6942170    -0.1960210    -0.0707790
  H        0.0963370    -2.3571300    -0.3293910
  H       -2.5048800     1.8176440     0.2323000
  H       -2.3796530    -2.4547020    -0.2729900
  H       -3.6801520    -0.3414970     0.0246030
  H        1.0340450     2.2328410    -0.1623240
  H       -0.4673770     3.0011870     0.0009920
  H        1.8426920    -1.9076120     1.0707290
  H        3.3240540    -1.2501130     0.4893940
units angstrom
no_reorient  #important for SAPT in psi4, default
symmetry c1  #important for SAPT in psi4, default
}

set PROPERTIES_ORIGIN ["COM"]
properties('MP2/aug-cc-pvtz', properties = ['dipole'])
--------------------------------------------------------------------------

    Molecular point group: c1
  Charge       = 0
  Multiplicity = 1
  Basis Set: AUG-CC-PVTZ
    Blend: AUG-CC-PVTZ
  Basis Set: (AUG-CC-PVTZ AUX)
    Blend: AUG-CC-PVTZ-JKFIT

    Orbital Energies [Eh]
    ---------------------

    Doubly Occupied:

       1A    -20.529399     2A    -15.589291     3A    -15.557307
       4A    -11.365883     5A    -11.298721     6A    -11.256870
       7A    -11.251521     8A    -11.247775     9A    -11.232399
      10A    -11.231813    11A     -1.382412    12A     -1.230064
      13A     -1.215837    14A     -1.138560    15A     -1.037361
      16A     -1.000306    17A     -0.877317    18A     -0.840343
      19A     -0.791738    20A     -0.742447    21A     -0.712942
      22A     -0.683624    23A     -0.669651    24A     -0.634278
      25A     -0.619439    26A     -0.599198    27A     -0.576245
      28A     -0.571595    29A     -0.538408    30A     -0.519477
      31A     -0.513288    32A     -0.454973    33A     -0.434863
      34A     -0.422550    35A     -0.352440    36A     -0.302930

  @DF-RHF Final Energy:  -453.65654676463771

   => Energetics <=

    Nuclear Repulsion Energy =            498.9162690038750725
    One-Electron Energy =               -1606.2990982862033889
    Two-Electron Energy =                 653.7262825176904926
    Total Energy =                       -453.6565467646377101
  Basis Set: (AUG-CC-PVTZ AUX)
    Blend: AUG-CC-PVTZ-RI
    Molecular point group: c1

    Geometry (in Angstrom), charge = 0, multiplicity = 1:

       Center              X                  Y                   Z               Mass
    ------------   -----------------  -----------------  -----------------  -----------------
         O            2.341420270701     0.741353596936    -0.511001065351    15.994914619570
         N           -0.033640929299     2.244944496936     0.270484734649    14.003074004430
         N            2.312181270701    -1.343993403064     0.398307934649    14.003074004430
         C            0.197882270701    -0.242901403064    -0.026835065351    12.000000000000
         C           -0.535524729299     0.963144596936     0.078190934649    12.000000000000
         C           -0.484328729299    -1.461888403064    -0.168474065351    12.000000000000
         C           -1.938527729299     0.882573596936     0.130422934649    12.000000000000
         C           -1.874075729299    -1.519280403064    -0.144739065351    12.000000000000
         C           -2.599252729299    -0.334075403064     0.004397934649    12.000000000000
         C            1.687950270701    -0.211141403064    -0.064773065351    12.000000000000
         H            0.090070270701    -2.372250403064    -0.323385065351     1.007825032230
         H           -2.511146729299     1.802523596936     0.238305934649     1.007825032230
         H           -2.385919729299    -2.469822403064    -0.266984065351     1.007825032230
         H           -3.686418729299    -0.356617403064     0.030608934649     1.007825032230
         H            1.027778270701     2.217720596936    -0.156318065351     1.007825032230
         H           -0.473643729299     2.986066596936     0.006997934649     1.007825032230
         H            1.836425270701    -1.922732403064     1.076734934649     1.007825032230
         H            3.317787270701    -1.265233403064     0.495399934649     1.007825032230

  Basis Set: AUG-CC-PVTZ
    Blend: AUG-CC-PVTZ
  Basis Set: (AUG-CC-PVTZ AUX)
    Blend: AUG-CC-PVTZ-JKFIT
	 Reference Energy          =    -453.6565467646377101 [Eh]
	 Singles Energy            =      -0.0000000000000000 [Eh]
	 Same-Spin Energy          =      -0.4867036940504441 [Eh]
	 Opposite-Spin Energy      =      -1.4802794230337877 [Eh]
	 Correlation Energy        =      -1.9669831170842318 [Eh]
	 Total Energy              =    -455.6235298817219359 [Eh]

	 ================> DF-SCS-MP2 Energies <==================
	-----------------------------------------------------------
	 SCS Same-Spin Scale       =       0.3333333333333333 [-]
	 SCS Opposite-Spin Scale   =       1.2000000000000000 [-]
	 SCS Same-Spin Energy      =      -0.1622345646834814 [Eh]
	 SCS Opposite-Spin Energy  =      -1.7763353076405453 [Eh]
	 SCS Correlation Energy    =      -1.9385698723240266 [Eh]
	 SCS Total Energy          =    -455.5951166369617340 [Eh]
	-----------------------------------------------------------

  Dipole Moment: [D]
     X:    -0.9767      Y:    -1.4913      Z:     1.0232     Total:     2.0555

*** Psi4 exiting successfully. Buy a developer a beer!
