                               Psi4 1.4a3.dev225

  ==> Input File <==

--------------------------------------------------------------------------
#psi4
#
memory 32 gb

molecule  {
0 1
  O        2.3476870     0.7564740    -0.5170070
  N        0.1051940     2.2022940     0.2485340
  N        2.3184480    -1.3288730     0.3923020
  C        0.2041490    -0.2277810    -0.0328410
  C       -0.5292580     0.9782650     0.0721850
  C       -0.4780620    -1.4467680    -0.1744800
  C       -1.9322610     0.8976940     0.1244170
  C       -1.8678090    -1.5041600    -0.1507450
  C       -2.5929860    -0.3189550    -0.0016080
  C        1.6942170    -0.1960210    -0.0707790
  H        0.0963370    -2.3571300    -0.3293910
  H       -2.5048800     1.8176440     0.2323000
  H       -2.3796530    -2.4547020    -0.2729900
  H       -3.6801520    -0.3414970     0.0246030
  H        1.0340450     2.2328410    -0.1623240
  H       -0.4673770     3.0011870     0.0009920
  H        1.9376491    -1.9255159     1.1137972
  H        3.3240540    -1.2501130     0.4893940
units angstrom
no_reorient  #important for SAPT in psi4, default
symmetry c1  #important for SAPT in psi4, default
}

set PROPERTIES_ORIGIN ["COM"]
properties('MP2/aug-cc-pvtz', properties = ['dipole'])
--------------------------------------------------------------------------

    Molecular point group: c1
  Charge       = 0
  Multiplicity = 1
  Basis Set: AUG-CC-PVTZ
    Blend: AUG-CC-PVTZ
  Basis Set: (AUG-CC-PVTZ AUX)
    Blend: AUG-CC-PVTZ-JKFIT

    Orbital Energies [Eh]
    ---------------------

    Doubly Occupied:

       1A    -20.527764     2A    -15.587430     3A    -15.559956
       4A    -11.365707     5A    -11.296782     6A    -11.255162
       7A    -11.252846     8A    -11.243818     9A    -11.234045
      10A    -11.231397    11A     -1.381040    12A     -1.226936
      13A     -1.213658    14A     -1.136636    15A     -1.036370
      16A     -0.998078    17A     -0.878284    18A     -0.833824
      19A     -0.796400    20A     -0.733429    21A     -0.695894
      22A     -0.687615    23A     -0.671891    24A     -0.638443
      25A     -0.607956    26A     -0.603554    27A     -0.586399
      28A     -0.574305    29A     -0.538997    30A     -0.523379
      31A     -0.509359    32A     -0.454692    33A     -0.437423
      34A     -0.421074    35A     -0.351601    36A     -0.302836

  @DF-RHF Final Energy:  -453.68536914316019

   => Energetics <=

    Nuclear Repulsion Energy =            499.5422317659194960
    One-Electron Energy =               -1607.6652363872678961
    Two-Electron Energy =                 654.4376354781882128
    Total Energy =                       -453.6853691431601874
  Basis Set: (AUG-CC-PVTZ AUX)
    Blend: AUG-CC-PVTZ-RI
    Molecular point group: c1

    Geometry (in Angstrom), charge = 0, multiplicity = 1:

       Center              X                  Y                   Z               Mass
    ------------   -----------------  -----------------  -----------------  -----------------
         O            2.327073586096     0.747431738367    -0.509679103259    15.994914619570
         N            0.084580586096     2.193251738367     0.255861896741    14.003074004430
         N            2.297834586096    -1.337915261633     0.399629896741    14.003074004430
         C            0.183535586096    -0.236823261633    -0.025513103259    12.000000000000
         C           -0.549871413904     0.969222738367     0.079512896741    12.000000000000
         C           -0.498675413904    -1.455810261633    -0.167152103259    12.000000000000
         C           -1.952874413904     0.888651738367     0.131744896741    12.000000000000
         C           -1.888422413904    -1.513202261633    -0.143417103259    12.000000000000
         C           -2.613599413904    -0.327997261633     0.005719896741    12.000000000000
         C            1.673603586096    -0.205063261633    -0.063451103259    12.000000000000
         H            0.075723586096    -2.366172261633    -0.322063103259     1.007825032230
         H           -2.525493413904     1.808601738367     0.239627896741     1.007825032230
         H           -2.400266413904    -2.463744261633    -0.265662103259     1.007825032230
         H           -3.700765413904    -0.350539261633     0.031930896741     1.007825032230
         H            1.013431586096     2.223798738367    -0.154996103259     1.007825032230
         H           -0.487990413904     2.992144738367     0.008319896741     1.007825032230
         H            1.917035686096    -1.934558161633     1.121125096741     1.007825032230
         H            3.303440586096    -1.259155261633     0.496721896741     1.007825032230

  Basis Set: AUG-CC-PVTZ
    Blend: AUG-CC-PVTZ
  Basis Set: (AUG-CC-PVTZ AUX)
    Blend: AUG-CC-PVTZ-JKFIT
	 Reference Energy          =    -453.6853691431601874 [Eh]
	 Singles Energy            =      -0.0000000000000000 [Eh]
	 Same-Spin Energy          =      -0.4861135260142266 [Eh]
	 Opposite-Spin Energy      =      -1.4788905810922035 [Eh]
	 Correlation Energy        =      -1.9650041071064301 [Eh]
	 Total Energy              =    -455.6503732502666253 [Eh]

	 ================> DF-SCS-MP2 Energies <==================
	-----------------------------------------------------------
	 SCS Same-Spin Scale       =       0.3333333333333333 [-]
	 SCS Opposite-Spin Scale   =       1.2000000000000000 [-]
	 SCS Same-Spin Energy      =      -0.1620378420047422 [Eh]
	 SCS Opposite-Spin Energy  =      -1.7746686973106442 [Eh]
	 SCS Correlation Energy    =      -1.9367065393153864 [Eh]
	 SCS Total Energy          =    -455.6220756824755540 [Eh]
	-----------------------------------------------------------

  Dipole Moment: [D]
     X:    -1.0491      Y:    -1.3573      Z:     1.1141     Total:     2.0455

*** Psi4 exiting successfully. Buy a developer a beer!
