                               Psi4 1.4a3.dev225

  ==> Input File <==

--------------------------------------------------------------------------
#psi4
#
memory 32 gb

molecule  {
0 1
  O        2.3476870     0.7564740    -0.5170070
  N        0.1051940     2.2022940     0.2485340
  N        2.3184480    -1.3288730     0.3923020
  C        0.2041490    -0.2277810    -0.0328410
  C       -0.5292580     0.9782650     0.0721850
  C       -0.4780620    -1.4467680    -0.1744800
  C       -1.9322610     0.8976940     0.1244170
  C       -1.8678090    -1.5041600    -0.1507450
  C       -2.6137233    -0.3316840    -0.0032785
  C        1.6942170    -0.1960210    -0.0707790
  H        0.0963370    -2.3571300    -0.3293910
  H       -2.5048800     1.8176440     0.2323000
  H       -2.3796530    -2.4547020    -0.2729900
  H       -3.6801520    -0.3414970     0.0246030
  H        1.0340450     2.2328410    -0.1623240
  H       -0.4673770     3.0011870     0.0009920
  H        1.8426920    -1.9076120     1.0707290
  H        3.3240540    -1.2501130     0.4893940
units angstrom
no_reorient  #important for SAPT in psi4, default
symmetry c1  #important for SAPT in psi4, default
}

set PROPERTIES_ORIGIN ["COM"]
properties('MP2/aug-cc-pvtz', properties = ['dipole'])
--------------------------------------------------------------------------

    Molecular point group: c1
  Charge       = 0
  Multiplicity = 1
  Basis Set: AUG-CC-PVTZ
    Blend: AUG-CC-PVTZ
  Basis Set: (AUG-CC-PVTZ AUX)
    Blend: AUG-CC-PVTZ-JKFIT

    Orbital Energies [Eh]
    ---------------------

    Doubly Occupied:

       1A    -20.526824     2A    -15.587989     3A    -15.559456
       4A    -11.364054     5A    -11.296639     6A    -11.256367
       7A    -11.254094     8A    -11.245318     9A    -11.236356
      10A    -11.232832    11A     -1.380554    12A     -1.226448
      13A     -1.214503    14A     -1.135512    15A     -1.035312
      16A     -0.997786    17A     -0.879087    18A     -0.832826
      19A     -0.793030    20A     -0.736230    21A     -0.699822
      22A     -0.689003    23A     -0.673412    24A     -0.637380
      25A     -0.610533    26A     -0.604414    27A     -0.584959
      28A     -0.575414    29A     -0.539721    30A     -0.524495
      31A     -0.509187    32A     -0.454560    33A     -0.436075
      34A     -0.420782    35A     -0.350000    36A     -0.303459

  @DF-RHF Final Energy:  -453.68544143266655

   => Energetics <=

    Nuclear Repulsion Energy =            499.3236441426407737
    One-Electron Energy =               -1607.2093011119075072
    Two-Electron Energy =                 654.2002155366000125
    Total Energy =                       -453.6854414326666074
  Basis Set: (AUG-CC-PVTZ AUX)
    Blend: AUG-CC-PVTZ-RI
    Molecular point group: c1

    Geometry (in Angstrom), charge = 0, multiplicity = 1:

       Center              X                  Y                   Z               Mass
    ------------   -----------------  -----------------  -----------------  -----------------
         O            2.329605840006     0.748421745533    -0.509212768540    15.994914619570
         N            0.087112840006     2.194241745533     0.256328231460    14.003074004430
         N            2.300366840006    -1.336925254467     0.400096231460    14.003074004430
         C            0.186067840006    -0.235833254467    -0.025046768540    12.000000000000
         C           -0.547339159994     0.970212745533     0.079979231460    12.000000000000
         C           -0.496143159994    -1.454820254467    -0.166685768540    12.000000000000
         C           -1.950342159994     0.889641745533     0.132211231460    12.000000000000
         C           -1.885890159994    -1.512212254467    -0.142950768540    12.000000000000
         C           -2.631804459994    -0.339736254467     0.004515731460    12.000000000000
         C            1.676135840006    -0.204073254467    -0.062984768540    12.000000000000
         H            0.078255840006    -2.365182254467    -0.321596768540     1.007825032230
         H           -2.522961159994     1.809591745533     0.240094231460     1.007825032230
         H           -2.397734159994    -2.462754254467    -0.265195768540     1.007825032230
         H           -3.698233159994    -0.349549254467     0.032397231460     1.007825032230
         H            1.015963840006     2.224788745533    -0.154529768540     1.007825032230
         H           -0.485458159994     2.993134745533     0.008786231460     1.007825032230
         H            1.824610840006    -1.915664254467     1.078523231460     1.007825032230
         H            3.305972840006    -1.258165254467     0.497188231460     1.007825032230

  Basis Set: AUG-CC-PVTZ
    Blend: AUG-CC-PVTZ
  Basis Set: (AUG-CC-PVTZ AUX)
    Blend: AUG-CC-PVTZ-JKFIT
	 Reference Energy          =    -453.6854414326665506 [Eh]
	 Singles Energy            =      -0.0000000000000000 [Eh]
	 Same-Spin Energy          =      -0.4862739088699390 [Eh]
	 Opposite-Spin Energy      =      -1.4791827981623948 [Eh]
	 Correlation Energy        =      -1.9654567070323339 [Eh]
	 Total Energy              =    -455.6508981396988816 [Eh]

	 ================> DF-SCS-MP2 Energies <==================
	-----------------------------------------------------------
	 SCS Same-Spin Scale       =       0.3333333333333333 [-]
	 SCS Opposite-Spin Scale   =       1.2000000000000000 [-]
	 SCS Same-Spin Energy      =      -0.1620913029566463 [Eh]
	 SCS Opposite-Spin Energy  =      -1.7750193577948739 [Eh]
	 SCS Correlation Energy    =      -1.9371106607515203 [Eh]
	 SCS Total Energy          =    -455.6225520934180508 [Eh]
	-----------------------------------------------------------

  Dipole Moment: [D]
     X:    -1.1252      Y:    -1.3697      Z:     1.0601     Total:     2.0655

*** Psi4 exiting successfully. Buy a developer a beer!
