                               Psi4 1.4a3.dev225

  ==> Input File <==

--------------------------------------------------------------------------
#psi4
#
memory 32 gb

molecule  {
0 1
  O        2.3476870     0.7564740    -0.5170070
  N        0.1051940     2.2022940     0.2485340
  N        2.3184480    -1.3288730     0.3923020
  C        0.2041490    -0.2277810    -0.0328410
  C       -0.5292580     0.9782650     0.0721850
  C       -0.4294738    -1.3599497    -0.1643922
  C       -1.9322610     0.8976940     0.1244170
  C       -1.8678090    -1.5041600    -0.1507450
  C       -2.5929860    -0.3189550    -0.0016080
  C        1.6942170    -0.1960210    -0.0707790
  H        0.0963370    -2.3571300    -0.3293910
  H       -2.5048800     1.8176440     0.2323000
  H       -2.3796530    -2.4547020    -0.2729900
  H       -3.6801520    -0.3414970     0.0246030
  H        1.0340450     2.2328410    -0.1623240
  H       -0.4673770     3.0011870     0.0009920
  H        1.8426920    -1.9076120     1.0707290
  H        3.3240540    -1.2501130     0.4893940
units angstrom
no_reorient  #important for SAPT in psi4, default
symmetry c1  #important for SAPT in psi4, default
}

set PROPERTIES_ORIGIN ["COM"]
properties('MP2/aug-cc-pvtz', properties = ['dipole'])
--------------------------------------------------------------------------

    Molecular point group: c1
  Charge       = 0
  Multiplicity = 1
  Basis Set: AUG-CC-PVTZ
    Blend: AUG-CC-PVTZ
  Basis Set: (AUG-CC-PVTZ AUX)
    Blend: AUG-CC-PVTZ-JKFIT

    Orbital Energies [Eh]
    ---------------------

    Doubly Occupied:

       1A    -20.529746     2A    -15.589555     3A    -15.560529
       4A    -11.366529     5A    -11.296969     6A    -11.255077
       7A    -11.249975     8A    -11.239090     9A    -11.233900
      10A    -11.229319    11A     -1.383377    12A     -1.229241
      13A     -1.216922    14A     -1.141637    15A     -1.048917
      16A     -0.988559    17A     -0.873929    18A     -0.836462
      19A     -0.796198    20A     -0.740794    21A     -0.695383
      22A     -0.688349    23A     -0.674595    24A     -0.640710
      25A     -0.607903    26A     -0.597276    27A     -0.591790
      28A     -0.574505    29A     -0.542075    30A     -0.525807
      31A     -0.501302    32A     -0.454681    33A     -0.437621
      34A     -0.420815    35A     -0.364941    36A     -0.295850

  @DF-RHF Final Energy:  -453.67339559637082

   => Energetics <=

    Nuclear Repulsion Energy =            501.2966892899677873
    One-Electron Energy =               -1611.0995174246879742
    Two-Electron Energy =                 656.1294325383493060
    Total Energy =                       -453.6733955963708240
  Basis Set: (AUG-CC-PVTZ AUX)
    Blend: AUG-CC-PVTZ-RI
    Molecular point group: c1

    Geometry (in Angstrom), charge = 0, multiplicity = 1:

       Center              X                  Y                   Z               Mass
    ------------   -----------------  -----------------  -----------------  -----------------
         O            2.323491746189     0.739642269995    -0.510249780164    15.994914619570
         N            0.080998746189     2.185462269995     0.255291219836    14.003074004430
         N            2.294252746189    -1.345704730005     0.399059219836    14.003074004430
         C            0.179953746189    -0.244612730005    -0.026083780164    12.000000000000
         C           -0.553453253811     0.961433269995     0.078942219836    12.000000000000
         C           -0.453669053811    -1.376781430005    -0.157634980164    12.000000000000
         C           -1.956456253811     0.880862269995     0.131174219836    12.000000000000
         C           -1.892004253811    -1.520991730005    -0.143987780164    12.000000000000
         C           -2.617181253811    -0.335786730005     0.005149219836    12.000000000000
         C            1.670021746189    -0.212852730005    -0.064021780164    12.000000000000
         H            0.072141746189    -2.373961730005    -0.322633780164     1.007825032230
         H           -2.529075253811     1.800812269995     0.239057219836     1.007825032230
         H           -2.403848253811    -2.471533730005    -0.266232780164     1.007825032230
         H           -3.704347253811    -0.358328730005     0.031360219836     1.007825032230
         H            1.009849746189     2.216009269995    -0.155566780164     1.007825032230
         H           -0.491572253811     2.984355269995     0.007749219836     1.007825032230
         H            1.818496746189    -1.924443730005     1.077486219836     1.007825032230
         H            3.299858746189    -1.266944730005     0.496151219836     1.007825032230

  Basis Set: AUG-CC-PVTZ
    Blend: AUG-CC-PVTZ
  Basis Set: (AUG-CC-PVTZ AUX)
    Blend: AUG-CC-PVTZ-JKFIT
	 Reference Energy          =    -453.6733955963708240 [Eh]
	 Singles Energy            =      -0.0000000000000000 [Eh]
	 Same-Spin Energy          =      -0.4861942884052960 [Eh]
	 Opposite-Spin Energy      =      -1.4793677738371076 [Eh]
	 Correlation Energy        =      -1.9655620622424035 [Eh]
	 Total Energy              =    -455.6389576586132080 [Eh]

	 ================> DF-SCS-MP2 Energies <==================
	-----------------------------------------------------------
	 SCS Same-Spin Scale       =       0.3333333333333333 [-]
	 SCS Opposite-Spin Scale   =       1.2000000000000000 [-]
	 SCS Same-Spin Energy      =      -0.1620647628017653 [Eh]
	 SCS Opposite-Spin Energy  =      -1.7752413286045290 [Eh]
	 SCS Correlation Energy    =      -1.9373060914062943 [Eh]
	 SCS Total Energy          =    -455.6107016877771230 [Eh]
	-----------------------------------------------------------

  Dipole Moment: [D]
     X:    -0.9794      Y:    -1.3712      Z:     1.0605     Total:     1.9910

*** Psi4 exiting successfully. Buy a developer a beer!
