                               Psi4 1.4a3.dev225

  ==> Input File <==

--------------------------------------------------------------------------
#psi4
#
memory 32 gb

molecule  {
0 1
  O        2.3476870     0.7564740    -0.5170070
  N        0.1051940     2.2022940     0.2485340
  N        2.3184480    -1.3288730     0.3923020
  C        0.2041490    -0.2277810    -0.0328410
  C       -0.5292580     0.9782650     0.0721850
  C       -0.4780620    -1.4467680    -0.1744800
  C       -1.9322610     0.8976940     0.1244170
  C       -1.8678090    -1.5041600    -0.1507450
  C       -2.5929860    -0.3189550    -0.0016080
  C        1.7803835    -0.1540996    -0.0744486
  H        0.0963370    -2.3571300    -0.3293910
  H       -2.5048800     1.8176440     0.2323000
  H       -2.3796530    -2.4547020    -0.2729900
  H       -3.6801520    -0.3414970     0.0246030
  H        1.0340450     2.2328410    -0.1623240
  H       -0.4673770     3.0011870     0.0009920
  H        1.8426920    -1.9076120     1.0707290
  H        3.3240540    -1.2501130     0.4893940
units angstrom
no_reorient  #important for SAPT in psi4, default
symmetry c1  #important for SAPT in psi4, default
}

set PROPERTIES_ORIGIN ["COM"]
properties('MP2/aug-cc-pvtz', properties = ['dipole'])
--------------------------------------------------------------------------

    Molecular point group: c1
  Charge       = 0
  Multiplicity = 1
  Basis Set: AUG-CC-PVTZ
    Blend: AUG-CC-PVTZ
  Basis Set: (AUG-CC-PVTZ AUX)
    Blend: AUG-CC-PVTZ-JKFIT

    Orbital Energies [Eh]
    ---------------------

    Doubly Occupied:

       1A    -20.541457     2A    -15.586050     3A    -15.558154
       4A    -11.362752     5A    -11.289246     6A    -11.249056
       7A    -11.246308     8A    -11.241547     9A    -11.229982
      10A    -11.227693    11A     -1.436814    12A     -1.224831
      13A     -1.219859    14A     -1.131104    15A     -1.023916
      16A     -0.991963    17A     -0.862437    18A     -0.826471
      19A     -0.794498    20A     -0.739066    21A     -0.694946
      22A     -0.686226    23A     -0.677901    24A     -0.649217
      25A     -0.610058    26A     -0.603880    27A     -0.591826
      28A     -0.585055    29A     -0.541172    30A     -0.525099
      31A     -0.505705    32A     -0.452046    33A     -0.441487
      34A     -0.422970    35A     -0.345872    36A     -0.298476

  @DF-RHF Final Energy:  -453.67983545937881

   => Energetics <=

    Nuclear Repulsion Energy =            499.5796797244123013
    One-Electron Energy =               -1607.6887428970949259
    Two-Electron Energy =                 654.4292277133038169
    Total Energy =                       -453.6798354593788645
  Basis Set: (AUG-CC-PVTZ AUX)
    Blend: AUG-CC-PVTZ-RI
    Molecular point group: c1

    Geometry (in Angstrom), charge = 0, multiplicity = 1:

       Center              X                  Y                   Z               Mass
    ------------   -----------------  -----------------  -----------------  -----------------
         O            2.320177565235     0.743601907628    -0.509036459895    15.994914619570
         N            0.077684565235     2.189421907628     0.256504540105    14.003074004430
         N            2.290938565235    -1.341745092372     0.400272540105    14.003074004430
         C            0.176639565235    -0.240653092372    -0.024870459895    12.000000000000
         C           -0.556767434765     0.965392907628     0.080155540105    12.000000000000
         C           -0.505571434765    -1.459640092372    -0.166509459895    12.000000000000
         C           -1.959770434765     0.884821907628     0.132387540105    12.000000000000
         C           -1.895318434765    -1.517032092372    -0.142774459895    12.000000000000
         C           -2.620495434765    -0.331827092372     0.006362540105    12.000000000000
         C            1.752874065235    -0.166971692372    -0.066478059895    12.000000000000
         H            0.068827565235    -2.370002092372    -0.321420459895     1.007825032230
         H           -2.532389434765     1.804771907628     0.240270540105     1.007825032230
         H           -2.407162434765    -2.467574092372    -0.265019459895     1.007825032230
         H           -3.707661434765    -0.354369092372     0.032573540105     1.007825032230
         H            1.006535565235     2.219968907628    -0.154353459895     1.007825032230
         H           -0.494886434765     2.988314907628     0.008962540105     1.007825032230
         H            1.815182565235    -1.920484092372     1.078699540105     1.007825032230
         H            3.296544565235    -1.262985092372     0.497364540105     1.007825032230

  Basis Set: AUG-CC-PVTZ
    Blend: AUG-CC-PVTZ
  Basis Set: (AUG-CC-PVTZ AUX)
    Blend: AUG-CC-PVTZ-JKFIT
	 Reference Energy          =    -453.6798354593788076 [Eh]
	 Singles Energy            =      -0.0000000000000000 [Eh]
	 Same-Spin Energy          =      -0.4845312469321669 [Eh]
	 Opposite-Spin Energy      =      -1.4755944866788582 [Eh]
	 Correlation Energy        =      -1.9601257336110252 [Eh]
	 Total Energy              =    -455.6399611929898583 [Eh]

	 ================> DF-SCS-MP2 Energies <==================
	-----------------------------------------------------------
	 SCS Same-Spin Scale       =       0.3333333333333333 [-]
	 SCS Opposite-Spin Scale   =       1.2000000000000000 [-]
	 SCS Same-Spin Energy      =      -0.1615104156440556 [Eh]
	 SCS Opposite-Spin Energy  =      -1.7707133840146299 [Eh]
	 SCS Correlation Energy    =      -1.9322237996586855 [Eh]
	 SCS Total Energy          =    -455.6120592590374940 [Eh]
	-----------------------------------------------------------

  Dipole Moment: [D]
     X:    -0.4637      Y:    -1.1457      Z:     0.9385     Total:     1.5519

*** Psi4 exiting successfully. Buy a developer a beer!
