                               Psi4 1.4a3.dev225

  ==> Input File <==

--------------------------------------------------------------------------
#psi4
#
memory 32 gb

molecule  {
0 1
  O        2.3476870     0.7564740    -0.5170070
  N        0.1051940     2.2022940     0.2485340
  N        2.3184480    -1.3288730     0.3923020
  C        0.2041490    -0.2277810    -0.0328410
  C       -0.5033506     0.9356617     0.0684750
  C       -0.4780620    -1.4467680    -0.1744800
  C       -1.9322610     0.8976940     0.1244170
  C       -1.8678090    -1.5041600    -0.1507450
  C       -2.5929860    -0.3189550    -0.0016080
  C        1.6942170    -0.1960210    -0.0707790
  H        0.0963370    -2.3571300    -0.3293910
  H       -2.5048800     1.8176440     0.2323000
  H       -2.3796530    -2.4547020    -0.2729900
  H       -3.6801520    -0.3414970     0.0246030
  H        1.0340450     2.2328410    -0.1623240
  H       -0.4673770     3.0011870     0.0009920
  H        1.8426920    -1.9076120     1.0707290
  H        3.3240540    -1.2501130     0.4893940
units angstrom
no_reorient  #important for SAPT in psi4, default
symmetry c1  #important for SAPT in psi4, default
}

set PROPERTIES_ORIGIN ["COM"]
properties('MP2/aug-cc-pvtz', properties = ['dipole'])
--------------------------------------------------------------------------

    Molecular point group: c1
  Charge       = 0
  Multiplicity = 1
  Basis Set: AUG-CC-PVTZ
    Blend: AUG-CC-PVTZ
  Basis Set: (AUG-CC-PVTZ AUX)
    Blend: AUG-CC-PVTZ-JKFIT

    Orbital Energies [Eh]
    ---------------------

    Doubly Occupied:

       1A    -20.527208     2A    -15.588693     3A    -15.556822
       4A    -11.364581     5A    -11.294917     6A    -11.256006
       7A    -11.252444     8A    -11.240919     9A    -11.239031
      10A    -11.234078    11A     -1.381020    12A     -1.220087
      13A     -1.214452    14A     -1.137076    15A     -1.040608
      16A     -0.998677    17A     -0.875938    18A     -0.839942
      19A     -0.791467    20A     -0.737629    21A     -0.697952
      22A     -0.683074    23A     -0.672109    24A     -0.637745
      25A     -0.613814    26A     -0.601607    27A     -0.586055
      28A     -0.576365    29A     -0.536876    30A     -0.520513
      31A     -0.515912    32A     -0.451244    33A     -0.435774
      34A     -0.420976    35A     -0.353960    36A     -0.306324

  @DF-RHF Final Energy:  -453.68367420455229

   => Energetics <=

    Nuclear Repulsion Energy =            500.1809691268453548
    One-Electron Energy =               -1608.9254999010308893
    Two-Electron Energy =                 655.0608565696331880
    Total Energy =                       -453.6836742045522897
  Basis Set: (AUG-CC-PVTZ AUX)
    Blend: AUG-CC-PVTZ-RI
    Molecular point group: c1

    Geometry (in Angstrom), charge = 0, multiplicity = 1:

       Center              X                  Y                   Z               Mass
    ------------   -----------------  -----------------  -----------------  -----------------
         O            2.325492056883     0.751056479836    -0.509032896857    15.994914619570
         N            0.082999056883     2.196876479836     0.256508103143    14.003074004430
         N            2.296253056883    -1.334290520164     0.400276103143    14.003074004430
         C            0.181954056883    -0.233198520164    -0.024866896857    12.000000000000
         C           -0.525545543117     0.930244179836     0.076449103143    12.000000000000
         C           -0.500256943117    -1.452185520164    -0.166505896857    12.000000000000
         C           -1.954455943117     0.892276479836     0.132391103143    12.000000000000
         C           -1.890003943117    -1.509577520164    -0.142770896857    12.000000000000
         C           -2.615180943117    -0.324372520164     0.006366103143    12.000000000000
         C            1.672022056883    -0.201438520164    -0.062804896857    12.000000000000
         H            0.074142056883    -2.362547520164    -0.321416896857     1.007825032230
         H           -2.527074943117     1.812226479836     0.240274103143     1.007825032230
         H           -2.401847943117    -2.460119520164    -0.265015896857     1.007825032230
         H           -3.702346943117    -0.346914520164     0.032577103143     1.007825032230
         H            1.011850056883     2.227423479836    -0.154349896857     1.007825032230
         H           -0.489571943117     2.995769479836     0.008966103143     1.007825032230
         H            1.820497056883    -1.913029520164     1.078703103143     1.007825032230
         H            3.301859056883    -1.255530520164     0.497368103143     1.007825032230

  Basis Set: AUG-CC-PVTZ
    Blend: AUG-CC-PVTZ
  Basis Set: (AUG-CC-PVTZ AUX)
    Blend: AUG-CC-PVTZ-JKFIT
	 Reference Energy          =    -453.6836742045522897 [Eh]
	 Singles Energy            =      -0.0000000000000000 [Eh]
	 Same-Spin Energy          =      -0.4859538228333147 [Eh]
	 Opposite-Spin Energy      =      -1.4790854874919046 [Eh]
	 Correlation Energy        =      -1.9650393103252193 [Eh]
	 Total Energy              =    -455.6487135148774996 [Eh]

	 ================> DF-SCS-MP2 Energies <==================
	-----------------------------------------------------------
	 SCS Same-Spin Scale       =       0.3333333333333333 [-]
	 SCS Opposite-Spin Scale   =       1.2000000000000000 [-]
	 SCS Same-Spin Energy      =      -0.1619846076111049 [Eh]
	 SCS Opposite-Spin Energy  =      -1.7749025849902855 [Eh]
	 SCS Correlation Energy    =      -1.9368871926013904 [Eh]
	 SCS Total Energy          =    -455.6205613971536650 [Eh]
	-----------------------------------------------------------

  Dipole Moment: [D]
     X:    -1.1913      Y:    -1.5065      Z:     1.0405     Total:     2.1844

*** Psi4 exiting successfully. Buy a developer a beer!
