                               Psi4 1.4a3.dev225

  ==> Input File <==

--------------------------------------------------------------------------
#psi4
#
memory 32 gb

molecule  {
0 1
  O        2.2341756     0.8140253    -0.5415661
  N        0.1051940     2.2022940     0.2485340
  N        2.3184480    -1.3288730     0.3923020
  C        0.2041490    -0.2277810    -0.0328410
  C       -0.5292580     0.9782650     0.0721850
  C       -0.4780620    -1.4467680    -0.1744800
  C       -1.9322610     0.8976940     0.1244170
  C       -1.8678090    -1.5041600    -0.1507450
  C       -2.5929860    -0.3189550    -0.0016080
  C        1.6942170    -0.1960210    -0.0707790
  H        0.0963370    -2.3571300    -0.3293910
  H       -2.5048800     1.8176440     0.2323000
  H       -2.3796530    -2.4547020    -0.2729900
  H       -3.6801520    -0.3414970     0.0246030
  H        1.0340450     2.2328410    -0.1623240
  H       -0.4673770     3.0011870     0.0009920
  H        1.8426920    -1.9076120     1.0707290
  H        3.3240540    -1.2501130     0.4893940
units angstrom
no_reorient  #important for SAPT in psi4, default
symmetry c1  #important for SAPT in psi4, default
}

set PROPERTIES_ORIGIN ["COM"]
properties('MP2/aug-cc-pvtz', properties = ['dipole'])
--------------------------------------------------------------------------

    Molecular point group: c1
  Charge       = 0
  Multiplicity = 1
  Basis Set: AUG-CC-PVTZ
    Blend: AUG-CC-PVTZ
  Basis Set: (AUG-CC-PVTZ AUX)
    Blend: AUG-CC-PVTZ-JKFIT

    Orbital Energies [Eh]
    ---------------------

    Doubly Occupied:

       1A    -20.529160     2A    -15.596011     3A    -15.554406
       4A    -11.366303     5A    -11.293281     6A    -11.252259
       7A    -11.249989     8A    -11.239660     9A    -11.231725
      10A    -11.229252    11A     -1.382521    12A     -1.223632
      13A     -1.222121    14A     -1.133903    15A     -1.033133
      16A     -0.995315    17A     -0.874635    18A     -0.831301
      19A     -0.795606    20A     -0.738522    21A     -0.698026
      22A     -0.684564    23A     -0.677127    24A     -0.640519
      25A     -0.606685    26A     -0.602144    27A     -0.582975
      28A     -0.575109    29A     -0.538506    30A     -0.520424
      31A     -0.507086    32A     -0.451664    33A     -0.436072
      34A     -0.425736    35A     -0.348629    36A     -0.299452

  @DF-RHF Final Energy:  -453.68254829402588

   => Energetics <=

    Nuclear Repulsion Energy =            501.0490575685275871
    One-Electron Energy =               -1610.7283086941197325
    Two-Electron Energy =                 655.9967028315662674
    Total Energy =                       -453.6825482940258780
  Basis Set: (AUG-CC-PVTZ AUX)
    Blend: AUG-CC-PVTZ-RI
    Molecular point group: c1

    Geometry (in Angstrom), charge = 0, multiplicity = 1:

       Center              X                  Y                   Z               Mass
    ------------   -----------------  -----------------  -----------------  -----------------
         O            2.227609325892     0.798085001753    -0.531032160526    15.994914619570
         N            0.098627725892     2.186353701753     0.259067939474    14.003074004430
         N            2.311881725892    -1.344813298247     0.402835939474    14.003074004430
         C            0.197582725892    -0.243721298247    -0.022307060526    12.000000000000
         C           -0.535824274108     0.962324701753     0.082718939474    12.000000000000
         C           -0.484628274108    -1.462708298247    -0.163946060526    12.000000000000
         C           -1.938827274108     0.881753701753     0.134950939474    12.000000000000
         C           -1.874375274108    -1.520100298247    -0.140211060526    12.000000000000
         C           -2.599552274108    -0.334895298247     0.008925939474    12.000000000000
         C            1.687650725892    -0.211961298247    -0.060245060526    12.000000000000
         H            0.089770725892    -2.373070298247    -0.318857060526     1.007825032230
         H           -2.511446274108     1.801703701753     0.242833939474     1.007825032230
         H           -2.386219274108    -2.470642298247    -0.262456060526     1.007825032230
         H           -3.686718274108    -0.357437298247     0.035136939474     1.007825032230
         H            1.027478725892     2.216900701753    -0.151790060526     1.007825032230
         H           -0.473943274108     2.985246701753     0.011525939474     1.007825032230
         H            1.836125725892    -1.923552298247     1.081262939474     1.007825032230
         H            3.317487725892    -1.266053298247     0.499927939474     1.007825032230

  Basis Set: AUG-CC-PVTZ
    Blend: AUG-CC-PVTZ
  Basis Set: (AUG-CC-PVTZ AUX)
    Blend: AUG-CC-PVTZ-JKFIT
	 Reference Energy          =    -453.6825482940258780 [Eh]
	 Singles Energy            =      -0.0000000000000000 [Eh]
	 Same-Spin Energy          =      -0.4867851405647476 [Eh]
	 Opposite-Spin Energy      =      -1.4796008932771476 [Eh]
	 Correlation Energy        =      -1.9663860338418953 [Eh]
	 Total Energy              =    -455.6489343278677779 [Eh]

	 ================> DF-SCS-MP2 Energies <==================
	-----------------------------------------------------------
	 SCS Same-Spin Scale       =       0.3333333333333333 [-]
	 SCS Opposite-Spin Scale   =       1.2000000000000000 [-]
	 SCS Same-Spin Energy      =      -0.1622617135215825 [Eh]
	 SCS Opposite-Spin Energy  =      -1.7755210719325771 [Eh]
	 SCS Correlation Energy    =      -1.9377827854541596 [Eh]
	 SCS Total Energy          =    -455.6203310794800245 [Eh]
	-----------------------------------------------------------

  Dipole Moment: [D]
     X:    -0.6530      Y:    -1.5150      Z:     1.1065     Total:     1.9865

*** Psi4 exiting successfully. Buy a developer a beer!
