                               Psi4 1.4a3.dev225

  ==> Input File <==

--------------------------------------------------------------------------
#psi4
#
memory 32 gb

molecule  {
0 1
  O        2.3476870     0.7564740    -0.5170070
  N        0.1051940     2.2022940     0.2485340
  N        2.3184480    -1.3288730     0.3923020
  C        0.2041490    -0.2277810    -0.0328410
  C       -0.5292580     0.9782650     0.0721850
  C       -0.4780620    -1.4467680    -0.1744800
  C       -1.9322610     0.8976940     0.1244170
  C       -1.8678090    -1.5041600    -0.1507450
  C       -2.6745469    -0.3719979    -0.0085574
  C        1.6942170    -0.1960210    -0.0707790
  H        0.0963370    -2.3571300    -0.3293910
  H       -2.5048800     1.8176440     0.2323000
  H       -2.3796530    -2.4547020    -0.2729900
  H       -3.6801520    -0.3414970     0.0246030
  H        1.0340450     2.2328410    -0.1623240
  H       -0.4673770     3.0011870     0.0009920
  H        1.8426920    -1.9076120     1.0707290
  H        3.3240540    -1.2501130     0.4893940
units angstrom
no_reorient  #important for SAPT in psi4, default
symmetry c1  #important for SAPT in psi4, default
}

set PROPERTIES_ORIGIN ["COM"]
properties('MP2/aug-cc-pvtz', properties = ['dipole'])
--------------------------------------------------------------------------

    Molecular point group: c1
  Charge       = 0
  Multiplicity = 1
  Basis Set: AUG-CC-PVTZ
    Blend: AUG-CC-PVTZ
  Basis Set: (AUG-CC-PVTZ AUX)
    Blend: AUG-CC-PVTZ-JKFIT

    Orbital Energies [Eh]
    ---------------------

    Doubly Occupied:

       1A    -20.527996     2A    -15.588862     3A    -15.557646
       4A    -11.365124     5A    -11.295104     6A    -11.257856
       7A    -11.256646     8A    -11.248314     9A    -11.241249
      10A    -11.235538    11A     -1.381570    12A     -1.224511
      13A     -1.215340    14A     -1.131654    15A     -1.032715
      16A     -0.995032    17A     -0.885010    18A     -0.830178
      19A     -0.794432    20A     -0.736010    21A     -0.706924
      22A     -0.688990    23A     -0.672898    24A     -0.635829
      25A     -0.616872    26A     -0.604833    27A     -0.581699
      28A     -0.575582    29A     -0.543412    30A     -0.525688
      31A     -0.500390    32A     -0.453162    33A     -0.437040
      34A     -0.421664    35A     -0.344085    36A     -0.304017

  @DF-RHF Final Energy:  -453.67230294693945

   => Energetics <=

    Nuclear Repulsion Energy =            498.0857998573450232
    One-Electron Energy =               -1604.6884613682912004
    Two-Electron Energy =                 652.9303585640068377
    Total Energy =                       -453.6723029469394532
  Basis Set: (AUG-CC-PVTZ AUX)
    Blend: AUG-CC-PVTZ-RI
    Molecular point group: c1

    Geometry (in Angstrom), charge = 0, multiplicity = 1:

       Center              X                  Y                   Z               Mass
    ------------   -----------------  -----------------  -----------------  -----------------
         O            2.334970117172     0.751977190020    -0.508747201182    15.994914619570
         N            0.092477117172     2.197797190020     0.256793798818    14.003074004430
         N            2.305731117172    -1.333369809980     0.400561798818    14.003074004430
         C            0.191432117172    -0.232277809980    -0.024581201182    12.000000000000
         C           -0.541974882828     0.973768190020     0.080444798818    12.000000000000
         C           -0.490778882828    -1.451264809980    -0.166220201182    12.000000000000
         C           -1.944977882828     0.893197190020     0.132676798818    12.000000000000
         C           -1.880525882828    -1.508656809980    -0.142485201182    12.000000000000
         C           -2.687263782828    -0.376494709980    -0.000297601182    12.000000000000
         C            1.681500117172    -0.200517809980    -0.062519201182    12.000000000000
         H            0.083620117172    -2.361626809980    -0.321131201182     1.007825032230
         H           -2.517596882828     1.813147190020     0.240559798818     1.007825032230
         H           -2.392369882828    -2.459198809980    -0.264730201182     1.007825032230
         H           -3.692868882828    -0.345993809980     0.032862798818     1.007825032230
         H            1.021328117172     2.228344190020    -0.154064201182     1.007825032230
         H           -0.480093882828     2.996690190020     0.009251798818     1.007825032230
         H            1.829975117172    -1.912108809980     1.078988798818     1.007825032230
         H            3.311337117172    -1.254609809980     0.497653798818     1.007825032230

  Basis Set: AUG-CC-PVTZ
    Blend: AUG-CC-PVTZ
  Basis Set: (AUG-CC-PVTZ AUX)
    Blend: AUG-CC-PVTZ-JKFIT
	 Reference Energy          =    -453.6723029469394532 [Eh]
	 Singles Energy            =      -0.0000000000000000 [Eh]
	 Same-Spin Energy          =      -0.4866440420460235 [Eh]
	 Opposite-Spin Energy      =      -1.4806075977051474 [Eh]
	 Correlation Energy        =      -1.9672516397511708 [Eh]
	 Total Energy              =    -455.6395545866906218 [Eh]

	 ================> DF-SCS-MP2 Energies <==================
	-----------------------------------------------------------
	 SCS Same-Spin Scale       =       0.3333333333333333 [-]
	 SCS Opposite-Spin Scale   =       1.2000000000000000 [-]
	 SCS Same-Spin Energy      =      -0.1622146806820078 [Eh]
	 SCS Opposite-Spin Energy  =      -1.7767291172461768 [Eh]
	 SCS Correlation Energy    =      -1.9389437979281845 [Eh]
	 SCS Total Energy          =    -455.6112467448676284 [Eh]
	-----------------------------------------------------------

  Dipole Moment: [D]
     X:    -1.0992      Y:    -1.4133      Z:     1.0557     Total:     2.0785

*** Psi4 exiting successfully. Buy a developer a beer!
