                               Psi4 1.4a3.dev225

  ==> Input File <==

--------------------------------------------------------------------------
#psi4
#
memory 32 gb

molecule  {
0 1
  O        2.3476870     0.7564740    -0.5170070
  N        0.1051940     2.2022940     0.2485340
  N        2.3184480    -1.3288730     0.3923020
  C        0.2041490    -0.2277810    -0.0328410
  C       -0.5097776     0.9701298     0.0602350
  C       -0.4780620    -1.4467680    -0.1744800
  C       -1.9322610     0.8976940     0.1244170
  C       -1.8678090    -1.5041600    -0.1507450
  C       -2.5929860    -0.3189550    -0.0016080
  C        1.6942170    -0.1960210    -0.0707790
  H        0.0963370    -2.3571300    -0.3293910
  H       -2.5048800     1.8176440     0.2323000
  H       -2.3796530    -2.4547020    -0.2729900
  H       -3.6801520    -0.3414970     0.0246030
  H        1.0340450     2.2328410    -0.1623240
  H       -0.4673770     3.0011870     0.0009920
  H        1.8426920    -1.9076120     1.0707290
  H        3.3240540    -1.2501130     0.4893940
units angstrom
no_reorient  #important for SAPT in psi4, default
symmetry c1  #important for SAPT in psi4, default
}

set PROPERTIES_ORIGIN ["COM"]
properties('MP2/aug-cc-pvtz', properties = ['dipole'])
--------------------------------------------------------------------------

    Molecular point group: c1
  Charge       = 0
  Multiplicity = 1
  Basis Set: AUG-CC-PVTZ
    Blend: AUG-CC-PVTZ
  Basis Set: (AUG-CC-PVTZ AUX)
    Blend: AUG-CC-PVTZ-JKFIT

    Orbital Energies [Eh]
    ---------------------

    Doubly Occupied:

       1A    -20.526481     2A    -15.587720     3A    -15.560449
       4A    -11.363487     5A    -11.297377     6A    -11.255652
       7A    -11.252553     8A    -11.242609     9A    -11.236883
      10A    -11.232279    11A     -1.380365    12A     -1.227452
      13A     -1.214282    14A     -1.137128    15A     -1.037283
      16A     -0.997543    17A     -0.875794    18A     -0.836229
      19A     -0.791942    20A     -0.736466    21A     -0.698947
      22A     -0.687121    23A     -0.673956    24A     -0.638052
      25A     -0.610926    26A     -0.602385    27A     -0.586192
      28A     -0.575380    29A     -0.538589    30A     -0.521962
      31A     -0.512135    32A     -0.455353    33A     -0.435361
      34A     -0.420495    35A     -0.352421    36A     -0.303149

  @DF-RHF Final Energy:  -453.68589327875225

   => Energetics <=

    Nuclear Repulsion Energy =            499.8881168767919689
    One-Electron Energy =               -1608.3432243824743182
    Two-Electron Energy =                 654.7692142269302167
    Total Energy =                       -453.6858932787522463
  Basis Set: (AUG-CC-PVTZ AUX)
    Blend: AUG-CC-PVTZ-RI
    Molecular point group: c1

    Geometry (in Angstrom), charge = 0, multiplicity = 1:

       Center              X                  Y                   Z               Mass
    ------------   -----------------  -----------------  -----------------  -----------------
         O            2.326058879783     0.748016599892    -0.508306178218    15.994914619570
         N            0.083565879783     2.193836599892     0.257234821782    14.003074004430
         N            2.296819879783    -1.337330400108     0.401002821782    14.003074004430
         C            0.182520879783    -0.236238400108    -0.024140178218    12.000000000000
         C           -0.531405720217     0.961672399892     0.068935821782    12.000000000000
         C           -0.499690120217    -1.455225400108    -0.165779178218    12.000000000000
         C           -1.953889120217     0.889236599892     0.133117821782    12.000000000000
         C           -1.889437120217    -1.512617400108    -0.142044178218    12.000000000000
         C           -2.614614120217    -0.327412400108     0.007092821782    12.000000000000
         C            1.672588879783    -0.204478400108    -0.062078178218    12.000000000000
         H            0.074708879783    -2.365587400108    -0.320690178218     1.007825032230
         H           -2.526508120217     1.809186599892     0.241000821782     1.007825032230
         H           -2.401281120217    -2.463159400108    -0.264289178218     1.007825032230
         H           -3.701780120217    -0.349954400108     0.033303821782     1.007825032230
         H            1.012416879783     2.224383599892    -0.153623178218     1.007825032230
         H           -0.489005120217     2.992729599892     0.009692821782     1.007825032230
         H            1.821063879783    -1.916069400108     1.079429821782     1.007825032230
         H            3.302425879783    -1.258570400108     0.498094821782     1.007825032230

  Basis Set: AUG-CC-PVTZ
    Blend: AUG-CC-PVTZ
  Basis Set: (AUG-CC-PVTZ AUX)
    Blend: AUG-CC-PVTZ-JKFIT
	 Reference Energy          =    -453.6858932787522463 [Eh]
	 Singles Energy            =      -0.0000000000000000 [Eh]
	 Same-Spin Energy          =      -0.4861517937611780 [Eh]
	 Opposite-Spin Energy      =      -1.4789800420559747 [Eh]
	 Correlation Energy        =      -1.9651318358171528 [Eh]
	 Total Energy              =    -455.6510251145693928 [Eh]

	 ================> DF-SCS-MP2 Energies <==================
	-----------------------------------------------------------
	 SCS Same-Spin Scale       =       0.3333333333333333 [-]
	 SCS Opposite-Spin Scale   =       1.2000000000000000 [-]
	 SCS Same-Spin Energy      =      -0.1620505979203927 [Eh]
	 SCS Opposite-Spin Energy  =      -1.7747760504671695 [Eh]
	 SCS Correlation Energy    =      -1.9368266483875620 [Eh]
	 SCS Total Energy          =    -455.6227199271398263 [Eh]
	-----------------------------------------------------------

  Dipole Moment: [D]
     X:    -1.1333      Y:    -1.3439      Z:     1.0606     Total:     2.0531

*** Psi4 exiting successfully. Buy a developer a beer!
