                               Psi4 1.4a3.dev225

  ==> Input File <==

--------------------------------------------------------------------------
#psi4
#
memory 32 gb

molecule  {
0 1
  O        2.3476870     0.7564740    -0.5170070
  N        0.1051940     2.2022940     0.2485340
  N        2.3184480    -1.3288730     0.3923020
  C        0.2041490    -0.2277810    -0.0328410
  C       -0.5292580     0.9782650     0.0721850
  C       -0.4780620    -1.4467680    -0.1744800
  C       -1.9322610     0.8976940     0.1244170
  C       -1.8678090    -1.5041600    -0.1507450
  C       -2.5929860    -0.3189550    -0.0016080
  C        1.6942170    -0.1960210    -0.0707790
  H        0.0963370    -2.3571300    -0.3293910
  H       -2.5048800     1.8176440     0.2323000
  H       -2.3796530    -2.4547020    -0.2729900
  H       -3.6801520    -0.3414970     0.0246030
  H        0.9883393     2.2313379    -0.1421070
  H       -0.4673770     3.0011870     0.0009920
  H        1.8426920    -1.9076120     1.0707290
  H        3.3240540    -1.2501130     0.4893940
units angstrom
no_reorient  #important for SAPT in psi4, default
symmetry c1  #important for SAPT in psi4, default
}

set PROPERTIES_ORIGIN ["COM"]
properties('MP2/aug-cc-pvtz', properties = ['dipole'])
--------------------------------------------------------------------------

    Molecular point group: c1
  Charge       = 0
  Multiplicity = 1
  Basis Set: AUG-CC-PVTZ
    Blend: AUG-CC-PVTZ
  Basis Set: (AUG-CC-PVTZ AUX)
    Blend: AUG-CC-PVTZ-JKFIT

    Orbital Energies [Eh]
    ---------------------

    Doubly Occupied:

       1A    -20.525757     2A    -15.587310     3A    -15.556716
       4A    -11.363099     5A    -11.297465     6A    -11.256062
       7A    -11.253475     8A    -11.244728     9A    -11.235006
      10A    -11.232497    11A     -1.379384    12A     -1.232687
      13A     -1.213873    14A     -1.139185    15A     -1.036817
      16A     -1.000876    17A     -0.878136    18A     -0.834364
      19A     -0.794260    20A     -0.736770    21A     -0.699696
      22A     -0.694583    23A     -0.674292    24A     -0.638696
      25A     -0.609496    26A     -0.605892    27A     -0.588553
      28A     -0.575086    29A     -0.539538    30A     -0.523975
      31A     -0.510295    32A     -0.456275    33A     -0.435910
      34A     -0.419904    35A     -0.352354    36A     -0.304154

  @DF-RHF Final Energy:  -453.68623105894068

   => Energetics <=

    Nuclear Repulsion Energy =            499.9788338900215194
    One-Electron Energy =               -1608.4757975796926530
    Two-Electron Energy =                 654.8107326307306266
    Total Energy =                       -453.6862310589406206
  Basis Set: (AUG-CC-PVTZ AUX)
    Blend: AUG-CC-PVTZ-RI
    Molecular point group: c1

    Geometry (in Angstrom), charge = 0, multiplicity = 1:

       Center              X                  Y                   Z               Mass
    ------------   -----------------  -----------------  -----------------  -----------------
         O            2.328115476987     0.747310257462    -0.509509844172    15.994914619570
         N            0.085622476987     2.193130257462     0.256031155828    14.003074004430
         N            2.298876476987    -1.338036742538     0.399799155828    14.003074004430
         C            0.184577476987    -0.236944742538    -0.025343844172    12.000000000000
         C           -0.548829523013     0.969101257462     0.079682155828    12.000000000000
         C           -0.497633523013    -1.455931742538    -0.166982844172    12.000000000000
         C           -1.951832523013     0.888530257462     0.131914155828    12.000000000000
         C           -1.887380523013    -1.513323742538    -0.143247844172    12.000000000000
         C           -2.612557523013    -0.328118742538     0.005889155828    12.000000000000
         C            1.674645476987    -0.205184742538    -0.063281844172    12.000000000000
         H            0.076765476987    -2.366293742538    -0.321893844172     1.007825032230
         H           -2.524451523013     1.808480257462     0.239797155828     1.007825032230
         H           -2.399224523013    -2.463865742538    -0.265492844172     1.007825032230
         H           -3.699723523013    -0.350660742538     0.032100155828     1.007825032230
         H            0.968767776987     2.222174157462    -0.134609844172     1.007825032230
         H           -0.486948523013     2.992023257462     0.008489155828     1.007825032230
         H            1.823120476987    -1.916775742538     1.078226155828     1.007825032230
         H            3.304482476987    -1.259276742538     0.496891155828     1.007825032230

  Basis Set: AUG-CC-PVTZ
    Blend: AUG-CC-PVTZ
  Basis Set: (AUG-CC-PVTZ AUX)
    Blend: AUG-CC-PVTZ-JKFIT
	 Reference Energy          =    -453.6862310589406775 [Eh]
	 Singles Energy            =      -0.0000000000000000 [Eh]
	 Same-Spin Energy          =      -0.4857385599219813 [Eh]
	 Opposite-Spin Energy      =      -1.4780250851452192 [Eh]
	 Correlation Energy        =      -1.9637636450672005 [Eh]
	 Total Energy              =    -455.6499947040078951 [Eh]

	 ================> DF-SCS-MP2 Energies <==================
	-----------------------------------------------------------
	 SCS Same-Spin Scale       =       0.3333333333333333 [-]
	 SCS Opposite-Spin Scale   =       1.2000000000000000 [-]
	 SCS Same-Spin Energy      =      -0.1619128533073271 [Eh]
	 SCS Opposite-Spin Energy  =      -1.7736301021742631 [Eh]
	 SCS Correlation Energy    =      -1.9355429554815902 [Eh]
	 SCS Total Energy          =    -455.6217740144222716 [Eh]
	-----------------------------------------------------------

  Dipole Moment: [D]
     X:    -1.1970      Y:    -1.3440      Z:     1.0768     Total:     2.0974

*** Psi4 exiting successfully. Buy a developer a beer!
