                               Psi4 1.4a3.dev225

  ==> Input File <==

--------------------------------------------------------------------------
#psi4
#
memory 32 gb

molecule  {
0 1
  O        2.3476870     0.7564740    -0.5170070
  N        0.1051940     2.2022940     0.2485340
  N        2.3184480    -1.3288730     0.3923020
  C        0.2041490    -0.2277810    -0.0328410
  C       -0.5292580     0.9782650     0.0721850
  C       -0.4780620    -1.4467680    -0.1744800
  C       -1.9322610     0.8976940     0.1244170
  C       -1.8678090    -1.5041600    -0.1507450
  C       -2.5929860    -0.3189550    -0.0016080
  C        1.6942170    -0.1960210    -0.0707790
  H        0.0963370    -2.3571300    -0.3293910
  H       -2.5048800     1.8176440     0.2323000
  H       -2.3796530    -2.4547020    -0.2729900
  H       -3.6801520    -0.3414970     0.0246030
  H        1.0526223     2.1402236    -0.1134445
  H       -0.4673770     3.0011870     0.0009920
  H        1.8426920    -1.9076120     1.0707290
  H        3.3240540    -1.2501130     0.4893940
units angstrom
no_reorient  #important for SAPT in psi4, default
symmetry c1  #important for SAPT in psi4, default
}

set PROPERTIES_ORIGIN ["COM"]
properties('MP2/aug-cc-pvtz', properties = ['dipole'])
--------------------------------------------------------------------------

    Molecular point group: c1
  Charge       = 0
  Multiplicity = 1
  Basis Set: AUG-CC-PVTZ
    Blend: AUG-CC-PVTZ
  Basis Set: (AUG-CC-PVTZ AUX)
    Blend: AUG-CC-PVTZ-JKFIT

    Orbital Energies [Eh]
    ---------------------

    Doubly Occupied:

       1A    -20.528669     2A    -15.588915     3A    -15.558866
       4A    -11.365456     5A    -11.296303     6A    -11.256132
       7A    -11.253133     8A    -11.244117     9A    -11.233648
      10A    -11.231505    11A     -1.382946    12A     -1.227455
      13A     -1.215681    14A     -1.136624    15A     -1.036686
      16A     -0.997432    17A     -0.877660    18A     -0.833383
      19A     -0.793451    20A     -0.736553    21A     -0.701575
      22A     -0.687963    23A     -0.675978    24A     -0.637776
      25A     -0.609145    26A     -0.603485    27A     -0.587976
      28A     -0.576540    29A     -0.539301    30A     -0.523744
      31A     -0.509998    32A     -0.454363    33A     -0.437164
      34A     -0.422184    35A     -0.352380    36A     -0.301773

  @DF-RHF Final Energy:  -453.68521625358488

   => Energetics <=

    Nuclear Repulsion Energy =            500.0221626690967582
    One-Electron Energy =               -1608.5828317012346815
    Two-Electron Energy =                 654.8754527785530399
    Total Energy =                       -453.6852162535848265
  Basis Set: (AUG-CC-PVTZ AUX)
    Blend: AUG-CC-PVTZ-RI
    Molecular point group: c1

    Geometry (in Angstrom), charge = 0, multiplicity = 1:

       Center              X                  Y                   Z               Mass
    ------------   -----------------  -----------------  -----------------  -----------------
         O            2.327639332106     0.747985142074    -0.509722147622    15.994914619570
         N            0.085146332106     2.193805142074     0.255818852378    14.003074004430
         N            2.298400332106    -1.337361857926     0.399586852378    14.003074004430
         C            0.184101332106    -0.236269857926    -0.025556147622    12.000000000000
         C           -0.549305667894     0.969776142074     0.079469852378    12.000000000000
         C           -0.498109667894    -1.455256857926    -0.167195147622    12.000000000000
         C           -1.952308667894     0.889205142074     0.131701852378    12.000000000000
         C           -1.887856667894    -1.512648857926    -0.143460147622    12.000000000000
         C           -2.613033667894    -0.327443857926     0.005676852378    12.000000000000
         C            1.674169332106    -0.204509857926    -0.063494147622    12.000000000000
         H            0.076289332106    -2.365618857926    -0.322106147622     1.007825032230
         H           -2.524927667894     1.809155142074     0.239584852378     1.007825032230
         H           -2.399700667894    -2.463190857926    -0.265705147622     1.007825032230
         H           -3.700199667894    -0.349985857926     0.031887852378     1.007825032230
         H            1.032574632106     2.131734742074    -0.106159647622     1.007825032230
         H           -0.487424667894     2.992698142074     0.008276852378     1.007825032230
         H            1.822644332106    -1.916100857926     1.078013852378     1.007825032230
         H            3.304006332106    -1.258601857926     0.496678852378     1.007825032230

  Basis Set: AUG-CC-PVTZ
    Blend: AUG-CC-PVTZ
  Basis Set: (AUG-CC-PVTZ AUX)
    Blend: AUG-CC-PVTZ-JKFIT
	 Reference Energy          =    -453.6852162535848834 [Eh]
	 Singles Energy            =      -0.0000000000000000 [Eh]
	 Same-Spin Energy          =      -0.4864705809375659 [Eh]
	 Opposite-Spin Energy      =      -1.4791617466425229 [Eh]
	 Correlation Energy        =      -1.9656323275800887 [Eh]
	 Total Energy              =    -455.6508485811649507 [Eh]

	 ================> DF-SCS-MP2 Energies <==================
	-----------------------------------------------------------
	 SCS Same-Spin Scale       =       0.3333333333333333 [-]
	 SCS Opposite-Spin Scale   =       1.2000000000000000 [-]
	 SCS Same-Spin Energy      =      -0.1621568603125220 [Eh]
	 SCS Opposite-Spin Energy  =      -1.7749940959710273 [Eh]
	 SCS Correlation Energy    =      -1.9371509562835492 [Eh]
	 SCS Total Energy          =    -455.6223672098684574 [Eh]
	-----------------------------------------------------------

  Dipole Moment: [D]
     X:    -1.0645      Y:    -1.4158      Z:     1.1187     Total:     2.0950

*** Psi4 exiting successfully. Buy a developer a beer!
