                               Psi4 1.4a3.dev225

  ==> Input File <==

--------------------------------------------------------------------------
#psi4
#
memory 32 gb

molecule  {
0 1
  O        2.3476870     0.7564740    -0.5170070
  N        0.0175203     2.2438272     0.2489930
  N        2.3184480    -1.3288730     0.3923020
  C        0.2041490    -0.2277810    -0.0328410
  C       -0.5292580     0.9782650     0.0721850
  C       -0.4780620    -1.4467680    -0.1744800
  C       -1.9322610     0.8976940     0.1244170
  C       -1.8678090    -1.5041600    -0.1507450
  C       -2.5929860    -0.3189550    -0.0016080
  C        1.6942170    -0.1960210    -0.0707790
  H        0.0963370    -2.3571300    -0.3293910
  H       -2.5048800     1.8176440     0.2323000
  H       -2.3796530    -2.4547020    -0.2729900
  H       -3.6801520    -0.3414970     0.0246030
  H        1.0340450     2.2328410    -0.1623240
  H       -0.4673770     3.0011870     0.0009920
  H        1.8426920    -1.9076120     1.0707290
  H        3.3240540    -1.2501130     0.4893940
units angstrom
no_reorient  #important for SAPT in psi4, default
symmetry c1  #important for SAPT in psi4, default
}

set PROPERTIES_ORIGIN ["COM"]
properties('MP2/aug-cc-pvtz', properties = ['dipole'])
--------------------------------------------------------------------------

    Molecular point group: c1
  Charge       = 0
  Multiplicity = 1
  Basis Set: AUG-CC-PVTZ
    Blend: AUG-CC-PVTZ
  Basis Set: (AUG-CC-PVTZ AUX)
    Blend: AUG-CC-PVTZ-JKFIT

    Orbital Energies [Eh]
    ---------------------

    Doubly Occupied:

       1A    -20.528303     2A    -15.588671     3A    -15.557669
       4A    -11.365054     5A    -11.298049     6A    -11.256467
       7A    -11.252033     8A    -11.246393     9A    -11.232513
      10A    -11.232011    11A     -1.381576    12A     -1.228847
      13A     -1.215204    14A     -1.137874    15A     -1.036980
      16A     -0.999367    17A     -0.876938    18A     -0.838131
      19A     -0.791545    20A     -0.739649    21A     -0.709245
      22A     -0.681755    23A     -0.674920    24A     -0.634994
      25A     -0.616768    26A     -0.600057    27A     -0.579560
      28A     -0.575865    29A     -0.538404    30A     -0.521601
      31A     -0.512345    32A     -0.454528    33A     -0.435495
      34A     -0.421811    35A     -0.352266    36A     -0.302507

  @DF-RHF Final Energy:  -453.67330736466840

   => Energetics <=

    Nuclear Repulsion Energy =            499.1837599760767716
    One-Electron Energy =               -1606.8833431333030148
    Two-Electron Energy =                 654.0262757925578398
    Total Energy =                       -453.6733073646684034
  Basis Set: (AUG-CC-PVTZ AUX)
    Blend: AUG-CC-PVTZ-RI
    Molecular point group: c1

    Geometry (in Angstrom), charge = 0, multiplicity = 1:

       Center              X                  Y                   Z               Mass
    ------------   -----------------  -----------------  -----------------  -----------------
         O            2.336799926131     0.743024709634    -0.509407334895    15.994914619570
         N            0.006633226131     2.230377909634     0.256592665105    14.003074004430
         N            2.307560926131    -1.342322290366     0.399901665105    14.003074004430
         C            0.193261926131    -0.241230290366    -0.025241334895    12.000000000000
         C           -0.540145073869     0.964815709634     0.079784665105    12.000000000000
         C           -0.488949073869    -1.460217290366    -0.166880334895    12.000000000000
         C           -1.943148073869     0.884244709634     0.132016665105    12.000000000000
         C           -1.878696073869    -1.517609290366    -0.143145334895    12.000000000000
         C           -2.603873073869    -0.332404290366     0.005991665105    12.000000000000
         C            1.683329926131    -0.209470290366    -0.063179334895    12.000000000000
         H            0.085449926131    -2.370579290366    -0.321791334895     1.007825032230
         H           -2.515767073869     1.804194709634     0.239899665105     1.007825032230
         H           -2.390540073869    -2.468151290366    -0.265390334895     1.007825032230
         H           -3.691039073869    -0.354946290366     0.032202665105     1.007825032230
         H            1.023157926131     2.219391709634    -0.154724334895     1.007825032230
         H           -0.478264073869     2.987737709634     0.008591665105     1.007825032230
         H            1.831804926131    -1.921061290366     1.078328665105     1.007825032230
         H            3.313166926131    -1.263562290366     0.496993665105     1.007825032230

  Basis Set: AUG-CC-PVTZ
    Blend: AUG-CC-PVTZ
  Basis Set: (AUG-CC-PVTZ AUX)
    Blend: AUG-CC-PVTZ-JKFIT
	 Reference Energy          =    -453.6733073646684034 [Eh]
	 Singles Energy            =      -0.0000000000000000 [Eh]
	 Same-Spin Energy          =      -0.4863630987860923 [Eh]
	 Opposite-Spin Energy      =      -1.4793243875827620 [Eh]
	 Correlation Energy        =      -1.9656874863688543 [Eh]
	 Total Energy              =    -455.6389948510372392 [Eh]

	 ================> DF-SCS-MP2 Energies <==================
	-----------------------------------------------------------
	 SCS Same-Spin Scale       =       0.3333333333333333 [-]
	 SCS Opposite-Spin Scale   =       1.2000000000000000 [-]
	 SCS Same-Spin Energy      =      -0.1621210329286974 [Eh]
	 SCS Opposite-Spin Energy  =      -1.7751892650993144 [Eh]
	 SCS Correlation Energy    =      -1.9373102980280119 [Eh]
	 SCS Total Energy          =    -455.6106176626964270 [Eh]
	-----------------------------------------------------------

  Dipole Moment: [D]
     X:    -1.0216      Y:    -1.4197      Z:     1.0594     Total:     2.0449

*** Psi4 exiting successfully. Buy a developer a beer!
