                               Psi4 1.4a3.dev225

  ==> Input File <==

--------------------------------------------------------------------------
#psi4
#
memory 32 gb

molecule  {
0 1
  O        2.3476870     0.7564740    -0.5170070
  N        0.1051940     2.2022940     0.2485340
  N        2.3184480    -1.3288730     0.3923020
  C        0.2041490    -0.2277810    -0.0328410
  C       -0.5292580     0.9782650     0.0721850
  C       -0.4780620    -1.4467680    -0.1744800
  C       -1.9322610     0.8976940     0.1244170
  C       -1.8678090    -1.5041600    -0.1507450
  C       -2.4891994    -0.4885804    -0.0229523
  C        1.6942170    -0.1960210    -0.0707790
  H        0.0963370    -2.3571300    -0.3293910
  H       -2.5048800     1.8176440     0.2323000
  H       -2.3796530    -2.4547020    -0.2729900
  H       -3.6801520    -0.3414970     0.0246030
  H        1.0340450     2.2328410    -0.1623240
  H       -0.4673770     3.0011870     0.0009920
  H        1.8426920    -1.9076120     1.0707290
  H        3.3240540    -1.2501130     0.4893940
units angstrom
no_reorient  #important for SAPT in psi4, default
symmetry c1  #important for SAPT in psi4, default
}

set PROPERTIES_ORIGIN ["COM"]
properties('MP2/aug-cc-pvtz', properties = ['dipole'])
--------------------------------------------------------------------------

    Molecular point group: c1
  Charge       = 0
  Multiplicity = 1
  Basis Set: AUG-CC-PVTZ
    Blend: AUG-CC-PVTZ
  Basis Set: (AUG-CC-PVTZ AUX)
    Blend: AUG-CC-PVTZ-JKFIT

    Orbital Energies [Eh]
    ---------------------

    Doubly Occupied:

       1A    -20.529732     2A    -15.590095     3A    -15.554459
       4A    -11.367163     5A    -11.289853     6A    -11.263618
       7A    -11.252018     8A    -11.243991     9A    -11.234546
      10A    -11.210533    11A     -1.383221    12A     -1.224544
      13A     -1.216502    14A     -1.159714    15A     -1.045047
      16A     -0.996962    17A     -0.884237    18A     -0.832385
      19A     -0.785654    20A     -0.740286    21A     -0.699824
      22A     -0.679106    23A     -0.672641    24A     -0.643503
      25A     -0.621138    26A     -0.601397    27A     -0.587726
      28A     -0.575749    29A     -0.536012    30A     -0.528367
      31A     -0.482217    32A     -0.466131    33A     -0.435079
      34A     -0.422338    35A     -0.352708    36A     -0.307623

  @DF-RHF Final Energy:  -453.62332863314913

   => Energetics <=

    Nuclear Repulsion Energy =            501.8439066005003042
    One-Electron Energy =               -1612.1022330375617457
    Two-Electron Energy =                 656.6349978039123698
    Total Energy =                       -453.6233286331490717
  Basis Set: (AUG-CC-PVTZ AUX)
    Blend: AUG-CC-PVTZ-RI
    Molecular point group: c1

    Geometry (in Angstrom), charge = 0, multiplicity = 1:

       Center              X                  Y                   Z               Mass
    ------------   -----------------  -----------------  -----------------  -----------------
         O            2.318623577966     0.762259068152    -0.507477657233    15.994914619570
         N            0.076130577966     2.208079068152     0.258063342767    14.003074004430
         N            2.289384577966    -1.323087931848     0.401831342767    14.003074004430
         C            0.175085577966    -0.221995931848    -0.023311657233    12.000000000000
         C           -0.558321422034     0.984050068152     0.081714342767    12.000000000000
         C           -0.507125422034    -1.440982931848    -0.164950657233    12.000000000000
         C           -1.961324422034     0.903479068152     0.133946342767    12.000000000000
         C           -1.896872422034    -1.498374931848    -0.141215657233    12.000000000000
         C           -2.518262822034    -0.482795331848    -0.013422957233    12.000000000000
         C            1.665153577966    -0.190235931848    -0.061249657233    12.000000000000
         H            0.067273577966    -2.351344931848    -0.319861657233     1.007825032230
         H           -2.533943422034     1.823429068152     0.241829342767     1.007825032230
         H           -2.408716422034    -2.448916931848    -0.263460657233     1.007825032230
         H           -3.709215422034    -0.335711931848     0.034132342767     1.007825032230
         H            1.004981577966     2.238626068152    -0.152794657233     1.007825032230
         H           -0.496440422034     3.006972068152     0.010521342767     1.007825032230
         H            1.813628577966    -1.901826931848     1.080258342767     1.007825032230
         H            3.294990577966    -1.244327931848     0.498923342767     1.007825032230

  Basis Set: AUG-CC-PVTZ
    Blend: AUG-CC-PVTZ
  Basis Set: (AUG-CC-PVTZ AUX)
    Blend: AUG-CC-PVTZ-JKFIT
	 Reference Energy          =    -453.6233286331491286 [Eh]
	 Singles Energy            =      -0.0000000000000000 [Eh]
	 Same-Spin Energy          =      -0.4860579237855065 [Eh]
	 Opposite-Spin Energy      =      -1.4806608040292875 [Eh]
	 Correlation Energy        =      -1.9667187278147940 [Eh]
	 Total Energy              =    -455.5900473609639221 [Eh]

	 ================> DF-SCS-MP2 Energies <==================
	-----------------------------------------------------------
	 SCS Same-Spin Scale       =       0.3333333333333333 [-]
	 SCS Opposite-Spin Scale   =       1.2000000000000000 [-]
	 SCS Same-Spin Energy      =      -0.1620193079285022 [Eh]
	 SCS Opposite-Spin Energy  =      -1.7767929648351448 [Eh]
	 SCS Correlation Energy    =      -1.9388122727636470 [Eh]
	 SCS Total Energy          =    -455.5621409059127700 [Eh]
	-----------------------------------------------------------

  Dipole Moment: [D]
     X:    -0.9228      Y:    -1.5235      Z:     1.0355     Total:     2.0603

*** Psi4 exiting successfully. Buy a developer a beer!
