                               Psi4 1.4a3.dev225

  ==> Input File <==

--------------------------------------------------------------------------
#psi4
#
memory 32 gb

molecule  {
0 1
  O        2.3476870     0.7564740    -0.5170070
  N        0.1051940     2.2022940     0.2485340
  N        2.3184480    -1.3288730     0.3923020
  C        0.2041490    -0.2277810    -0.0328410
  C       -0.5292580     0.9782650     0.0721850
  C       -0.4780620    -1.4467680    -0.1744800
  C       -1.9322610     0.8976940     0.1244170
  C       -1.8678090    -1.5041600    -0.1507450
  C       -2.5929860    -0.3189550    -0.0016080
  C        1.6942170    -0.1960210    -0.0707790
  H        0.0963370    -2.3571300    -0.3293910
  H       -2.5048800     1.8176440     0.2323000
  H       -2.3796530    -2.4547020    -0.2729900
  H       -3.6801520    -0.3414970     0.0246030
  H        0.8512221     2.2268285    -0.0814561
  H       -0.4673770     3.0011870     0.0009920
  H        1.8426920    -1.9076120     1.0707290
  H        3.3240540    -1.2501130     0.4893940
units angstrom
no_reorient  #important for SAPT in psi4, default
symmetry c1  #important for SAPT in psi4, default
}

set PROPERTIES_ORIGIN ["COM"]
properties('MP2/aug-cc-pvtz', properties = ['dipole'])
--------------------------------------------------------------------------

    Molecular point group: c1
  Charge       = 0
  Multiplicity = 1
  Basis Set: AUG-CC-PVTZ
    Blend: AUG-CC-PVTZ
  Basis Set: (AUG-CC-PVTZ AUX)
    Blend: AUG-CC-PVTZ-JKFIT

    Orbital Energies [Eh]
    ---------------------

    Doubly Occupied:

       1A    -20.524225     2A    -15.586353     3A    -15.543690
       4A    -11.361603     5A    -11.298239     6A    -11.256479
       7A    -11.254041     8A    -11.245771     9A    -11.236158
      10A    -11.233577    11A     -1.377362    12A     -1.256746
      13A     -1.212890    14A     -1.145950    15A     -1.037392
      16A     -1.009146    17A     -0.881635    18A     -0.836421
      19A     -0.801009    20A     -0.740380    21A     -0.717781
      22A     -0.699936    23A     -0.675232    24A     -0.641139
      25A     -0.611750    26A     -0.609312    27A     -0.591449
      28A     -0.574575    29A     -0.539802    30A     -0.525314
      31A     -0.511085    32A     -0.459598    33A     -0.435907
      34A     -0.418452    35A     -0.352753    36A     -0.306725

  @DF-RHF Final Energy:  -453.64283105644569

   => Energetics <=

    Nuclear Repulsion Energy =            500.7930354182846031
    One-Electron Energy =               -1609.8519788388480265
    Two-Electron Energy =                 655.4161123641177937
    Total Energy =                       -453.6428310564457433
  Basis Set: (AUG-CC-PVTZ AUX)
    Blend: AUG-CC-PVTZ-RI
    Molecular point group: c1

    Geometry (in Angstrom), charge = 0, multiplicity = 1:

       Center              X                  Y                   Z               Mass
    ------------   -----------------  -----------------  -----------------  -----------------
         O            2.329131105580     0.747343658637    -0.509959086049    15.994914619570
         N            0.086638105580     2.193163658637     0.255581913951    14.003074004430
         N            2.299892105580    -1.338003341363     0.399349913951    14.003074004430
         C            0.185593105580    -0.236911341363    -0.025793086049    12.000000000000
         C           -0.547813894420     0.969134658637     0.079232913951    12.000000000000
         C           -0.496617894420    -1.455898341363    -0.167432086049    12.000000000000
         C           -1.950816894420     0.888563658637     0.131464913951    12.000000000000
         C           -1.886364894420    -1.513290341363    -0.143697086049    12.000000000000
         C           -2.611541894420    -0.328085341363     0.005439913951    12.000000000000
         C            1.675661105580    -0.205151341363    -0.063731086049    12.000000000000
         H            0.077781105580    -2.366260341363    -0.322343086049     1.007825032230
         H           -2.523435894420     1.808513658637     0.239347913951     1.007825032230
         H           -2.398208894420    -2.463832341363    -0.265942086049     1.007825032230
         H           -3.698707894420    -0.350627341363     0.031650913951     1.007825032230
         H            0.832666205580     2.217698158637    -0.074408186049     1.007825032230
         H           -0.485932894420     2.992056658637     0.008039913951     1.007825032230
         H            1.824136105580    -1.916742341363     1.077776913951     1.007825032230
         H            3.305498105580    -1.259243341363     0.496441913951     1.007825032230

  Basis Set: AUG-CC-PVTZ
    Blend: AUG-CC-PVTZ
  Basis Set: (AUG-CC-PVTZ AUX)
    Blend: AUG-CC-PVTZ-JKFIT
	 Reference Energy          =    -453.6428310564456865 [Eh]
	 Singles Energy            =      -0.0000000000000000 [Eh]
	 Same-Spin Energy          =      -0.4846561314771897 [Eh]
	 Opposite-Spin Energy      =      -1.4760564161159087 [Eh]
	 Correlation Energy        =      -1.9607125475930984 [Eh]
	 Total Energy              =    -455.6035436040388049 [Eh]

	 ================> DF-SCS-MP2 Energies <==================
	-----------------------------------------------------------
	 SCS Same-Spin Scale       =       0.3333333333333333 [-]
	 SCS Opposite-Spin Scale   =       1.2000000000000000 [-]
	 SCS Same-Spin Energy      =      -0.1615520438257299 [Eh]
	 SCS Opposite-Spin Energy  =      -1.7712676993390903 [Eh]
	 SCS Correlation Energy    =      -1.9328197431648202 [Eh]
	 SCS Total Energy          =    -455.5756507996105142 [Eh]
	-----------------------------------------------------------

  Dipole Moment: [D]
     X:    -1.3790      Y:    -1.3342      Z:     1.1148     Total:     2.2191

*** Psi4 exiting successfully. Buy a developer a beer!
