                               Psi4 1.4a3.dev225

  ==> Input File <==

--------------------------------------------------------------------------
#psi4
#
memory 32 gb

molecule  {
0 1
  O        2.3476870     0.7564740    -0.5170070
  N        0.1051940     2.2022940     0.2485340
  N        2.3184480    -1.3288730     0.3923020
  C        0.2041490    -0.2277810    -0.0328410
  C       -0.5292580     0.9782650     0.0721850
  C       -0.4780620    -1.4467680    -0.1744800
  C       -1.9322610     0.8976940     0.1244170
  C       -1.8678090    -1.5041600    -0.1507450
  C       -2.5929860    -0.3189550    -0.0016080
  C        1.6942170    -0.1960210    -0.0707790
  H        0.0963370    -2.3571300    -0.3293910
  H       -2.5048800     1.8176440     0.2323000
  H       -2.3796530    -2.4547020    -0.2729900
  H       -3.6801520    -0.3414970     0.0246030
  H        1.0340450     2.2328410    -0.1623240
  H       -0.4956220     3.0405965    -0.0112193
  H        1.8426920    -1.9076120     1.0707290
  H        3.3240540    -1.2501130     0.4893940
units angstrom
no_reorient  #important for SAPT in psi4, default
symmetry c1  #important for SAPT in psi4, default
}

set PROPERTIES_ORIGIN ["COM"]
properties('MP2/aug-cc-pvtz', properties = ['dipole'])
--------------------------------------------------------------------------

    Molecular point group: c1
  Charge       = 0
  Multiplicity = 1
  Basis Set: AUG-CC-PVTZ
    Blend: AUG-CC-PVTZ
  Basis Set: (AUG-CC-PVTZ AUX)
    Blend: AUG-CC-PVTZ-JKFIT

    Orbital Energies [Eh]
    ---------------------

    Doubly Occupied:

       1A    -20.526466     2A    -15.587698     3A    -15.564990
       4A    -11.363715     5A    -11.297189     6A    -11.255873
       7A    -11.253147     8A    -11.244386     9A    -11.234431
      10A    -11.231996    11A     -1.380231    12A     -1.223244
      13A     -1.214089    14A     -1.135345    15A     -1.036443
      16A     -0.996853    17A     -0.877160    18A     -0.831855
      19A     -0.792773    20A     -0.735854    21A     -0.695766
      22A     -0.686980    23A     -0.669242    24A     -0.637808
      25A     -0.607407    26A     -0.603121    27A     -0.584205
      28A     -0.575210    29A     -0.539297    30A     -0.523294
      31A     -0.509731    32A     -0.454610    33A     -0.435604
      34A     -0.420470    35A     -0.352155    36A     -0.302865

  @DF-RHF Final Energy:  -453.68302410766717

   => Energetics <=

    Nuclear Repulsion Energy =            499.4777098942091698
    One-Electron Energy =               -1607.5584580244128574
    Two-Electron Energy =                 654.3977240225364085
    Total Energy =                       -453.6830241076671655
  Basis Set: (AUG-CC-PVTZ AUX)
    Blend: AUG-CC-PVTZ-RI
    Molecular point group: c1

    Geometry (in Angstrom), charge = 0, multiplicity = 1:

       Center              X                  Y                   Z               Mass
    ------------   -----------------  -----------------  -----------------  -----------------
         O            2.327986145392     0.747007217389    -0.509269647401    15.994914619570
         N            0.085493145392     2.192827217389     0.256271352599    14.003074004430
         N            2.298747145392    -1.338339782611     0.400039352599    14.003074004430
         C            0.184448145392    -0.237247782611    -0.025103647401    12.000000000000
         C           -0.548958854608     0.968798217389     0.079922352599    12.000000000000
         C           -0.497762854608    -1.456234782611    -0.166742647401    12.000000000000
         C           -1.951961854608     0.888227217389     0.132154352599    12.000000000000
         C           -1.887509854608    -1.513626782611    -0.143007647401    12.000000000000
         C           -2.612686854608    -0.328421782611     0.006129352599    12.000000000000
         C            1.674516145392    -0.205487782611    -0.063041647401    12.000000000000
         H            0.076636145392    -2.366596782611    -0.321653647401     1.007825032230
         H           -2.524580854608     1.808177217389     0.240037352599     1.007825032230
         H           -2.399353854608    -2.464168782611    -0.265252647401     1.007825032230
         H           -3.699852854608    -0.350963782611     0.032340352599     1.007825032230
         H            1.014344145392     2.223374217389    -0.154586647401     1.007825032230
         H           -0.515322854608     3.031129717389    -0.003481947401     1.007825032230
         H            1.822991145392    -1.917078782611     1.078466352599     1.007825032230
         H            3.304353145392    -1.259579782611     0.497131352599     1.007825032230

  Basis Set: AUG-CC-PVTZ
    Blend: AUG-CC-PVTZ
  Basis Set: (AUG-CC-PVTZ AUX)
    Blend: AUG-CC-PVTZ-JKFIT
	 Reference Energy          =    -453.6830241076671655 [Eh]
	 Singles Energy            =      -0.0000000000000000 [Eh]
	 Same-Spin Energy          =      -0.4864959221884634 [Eh]
	 Opposite-Spin Energy      =      -1.4798109768447159 [Eh]
	 Correlation Energy        =      -1.9663068990331793 [Eh]
	 Total Energy              =    -455.6493310067003222 [Eh]

	 ================> DF-SCS-MP2 Energies <==================
	-----------------------------------------------------------
	 SCS Same-Spin Scale       =       0.3333333333333333 [-]
	 SCS Opposite-Spin Scale   =       1.2000000000000000 [-]
	 SCS Same-Spin Energy      =      -0.1621653073961545 [Eh]
	 SCS Opposite-Spin Energy  =      -1.7757731722136589 [Eh]
	 SCS Correlation Energy    =      -1.9379384796098134 [Eh]
	 SCS Total Energy          =    -455.6209625872770062 [Eh]
	-----------------------------------------------------------

  Dipole Moment: [D]
     X:    -1.1403      Y:    -1.3297      Z:     1.0566     Total:     2.0457

*** Psi4 exiting successfully. Buy a developer a beer!
