                               Psi4 1.4a3.dev225

  ==> Input File <==

--------------------------------------------------------------------------
#psi4
#
memory 32 gb

molecule  {
0 1
  O        2.3476870     0.7564740    -0.5170070
  N        0.1051940     2.2022940     0.2485340
  N        2.3184480    -1.3288730     0.3923020
  C        0.2041490    -0.2277810    -0.0328410
  C       -0.5292580     0.9782650     0.0721850
  C       -0.4780620    -1.4467680    -0.1744800
  C       -1.9322610     0.8976940     0.1244170
  C       -1.8678090    -1.5041600    -0.1507450
  C       -2.5929860    -0.3189550    -0.0016080
  C        1.8941068    -0.1917605    -0.0758683
  H        0.0963370    -2.3571300    -0.3293910
  H       -2.5048800     1.8176440     0.2323000
  H       -2.3796530    -2.4547020    -0.2729900
  H       -3.6801520    -0.3414970     0.0246030
  H        1.0340450     2.2328410    -0.1623240
  H       -0.4673770     3.0011870     0.0009920
  H        1.8426920    -1.9076120     1.0707290
  H        3.3240540    -1.2501130     0.4893940
units angstrom
no_reorient  #important for SAPT in psi4, default
symmetry c1  #important for SAPT in psi4, default
}

set PROPERTIES_ORIGIN ["COM"]
properties('MP2/aug-cc-pvtz', properties = ['dipole'])
--------------------------------------------------------------------------

    Molecular point group: c1
  Charge       = 0
  Multiplicity = 1
  Basis Set: AUG-CC-PVTZ
    Blend: AUG-CC-PVTZ
  Basis Set: (AUG-CC-PVTZ AUX)
    Blend: AUG-CC-PVTZ-JKFIT

    Orbital Energies [Eh]
    ---------------------

    Doubly Occupied:

       1A    -20.545778     2A    -15.601985     3A    -15.552222
       4A    -11.366768     5A    -11.280186     6A    -11.239572
       7A    -11.237698     8A    -11.233686     9A    -11.223880
      10A    -11.221392    11A     -1.455430    12A     -1.263037
      13A     -1.216497    14A     -1.123344    15A     -1.011319
      16A     -0.982397    17A     -0.851083    18A     -0.821546
      19A     -0.810217    20A     -0.750603    21A     -0.697297
      22A     -0.688827    23A     -0.679407    24A     -0.643760
      25A     -0.623790    26A     -0.597927    27A     -0.588087
      28A     -0.581607    29A     -0.536980    30A     -0.520959
      31A     -0.499250    32A     -0.456924    33A     -0.444683
      34A     -0.403370    35A     -0.337133    36A     -0.290791

  @DF-RHF Final Energy:  -453.65011916196988

   => Energetics <=

    Nuclear Repulsion Energy =            498.9186237694040074
    One-Electron Energy =               -1606.3786192259142354
    Two-Electron Energy =                 653.8098762945402314
    Total Energy =                       -453.6501191619698830
  Basis Set: (AUG-CC-PVTZ AUX)
    Blend: AUG-CC-PVTZ-RI
    Molecular point group: c1

    Geometry (in Angstrom), charge = 0, multiplicity = 1:

       Center              X                  Y                   Z               Mass
    ------------   -----------------  -----------------  -----------------  -----------------
         O            2.310147851416     0.746923373406    -0.508911250860    15.994914619570
         N            0.067654851416     2.192743373406     0.256629749140    14.003074004430
         N            2.280908851416    -1.338423626594     0.400397749140    14.003074004430
         C            0.166609851416    -0.237331626594    -0.024745250860    12.000000000000
         C           -0.566797148584     0.968714373406     0.080280749140    12.000000000000
         C           -0.515601148584    -1.456318626594    -0.166384250860    12.000000000000
         C           -1.969800148584     0.888143373406     0.132512749140    12.000000000000
         C           -1.905348148584    -1.513710626594    -0.142649250860    12.000000000000
         C           -2.630525148584    -0.328505626594     0.006487749140    12.000000000000
         C            1.856567651416    -0.201311126594    -0.067772550860    12.000000000000
         H            0.058797851416    -2.366680626594    -0.321295250860     1.007825032230
         H           -2.542419148584     1.808093373406     0.240395749140     1.007825032230
         H           -2.417192148584    -2.464252626594    -0.264894250860     1.007825032230
         H           -3.717691148584    -0.351047626594     0.032698749140     1.007825032230
         H            0.996505851416     2.223290373406    -0.154228250860     1.007825032230
         H           -0.504916148584     2.991636373406     0.009087749140     1.007825032230
         H            1.805152851416    -1.917162626594     1.078824749140     1.007825032230
         H            3.286514851416    -1.259663626594     0.497489749140     1.007825032230

  Basis Set: AUG-CC-PVTZ
    Blend: AUG-CC-PVTZ
  Basis Set: (AUG-CC-PVTZ AUX)
    Blend: AUG-CC-PVTZ-JKFIT
	 Reference Energy          =    -453.6501191619698830 [Eh]
	 Singles Energy            =      -0.0000000000000000 [Eh]
	 Same-Spin Energy          =      -0.4850933789411485 [Eh]
	 Opposite-Spin Energy      =      -1.4759116946830670 [Eh]
	 Correlation Energy        =      -1.9610050736242155 [Eh]
	 Total Energy              =    -455.6111242355941044 [Eh]

	 ================> DF-SCS-MP2 Energies <==================
	-----------------------------------------------------------
	 SCS Same-Spin Scale       =       0.3333333333333333 [-]
	 SCS Opposite-Spin Scale   =       1.2000000000000000 [-]
	 SCS Same-Spin Energy      =      -0.1616977929803828 [Eh]
	 SCS Opposite-Spin Energy  =      -1.7710940336196803 [Eh]
	 SCS Correlation Energy    =      -1.9327918266000632 [Eh]
	 SCS Total Energy          =    -455.5829109885699495 [Eh]
	-----------------------------------------------------------

  Dipole Moment: [D]
     X:     0.5135      Y:    -1.4778      Z:     1.0485     Total:     1.8834

*** Psi4 exiting successfully. Buy a developer a beer!
