                               Psi4 1.4a3.dev225

  ==> Input File <==

--------------------------------------------------------------------------
#psi4
#
memory 32 gb

molecule  {
0 1
  O        2.3659420     0.7458488    -0.5124304
  N        0.1051940     2.2022940     0.2485340
  N        2.3184480    -1.3288730     0.3923020
  C        0.2041490    -0.2277810    -0.0328410
  C       -0.5292580     0.9782650     0.0721850
  C       -0.4780620    -1.4467680    -0.1744800
  C       -1.9322610     0.8976940     0.1244170
  C       -1.8678090    -1.5041600    -0.1507450
  C       -2.5929860    -0.3189550    -0.0016080
  C        1.6942170    -0.1960210    -0.0707790
  H        0.0963370    -2.3571300    -0.3293910
  H       -2.5048800     1.8176440     0.2323000
  H       -2.3796530    -2.4547020    -0.2729900
  H       -3.6801520    -0.3414970     0.0246030
  H        1.0340450     2.2328410    -0.1623240
  H       -0.4673770     3.0011870     0.0009920
  H        1.8426920    -1.9076120     1.0707290
  H        3.3240540    -1.2501130     0.4893940
units angstrom
no_reorient  #important for SAPT in psi4, default
symmetry c1  #important for SAPT in psi4, default
}

set PROPERTIES_ORIGIN ["COM"]
properties('MP2/aug-cc-pvtz', properties = ['dipole'])
--------------------------------------------------------------------------

    Molecular point group: c1
  Charge       = 0
  Multiplicity = 1
  Basis Set: AUG-CC-PVTZ
    Blend: AUG-CC-PVTZ
  Basis Set: (AUG-CC-PVTZ AUX)
    Blend: AUG-CC-PVTZ-JKFIT

    Orbital Energies [Eh]
    ---------------------

    Doubly Occupied:

       1A    -20.525969     2A    -15.586316     3A    -15.561009
       4A    -11.363348     5A    -11.297797     6A    -11.256507
       7A    -11.253801     8A    -11.245178     9A    -11.235068
      10A    -11.232585    11A     -1.380023    12A     -1.227997
      13A     -1.212623    14A     -1.137591    15A     -1.037179
      16A     -0.999107    17A     -0.877751    18A     -0.834205
      19A     -0.792457    20A     -0.736027    21A     -0.699026
      22A     -0.688508    23A     -0.673045    24A     -0.637457
      25A     -0.609455    26A     -0.604438    27A     -0.586929
      28A     -0.575231    29A     -0.539623    30A     -0.523976
      31A     -0.510483    32A     -0.455712    33A     -0.435677
      34A     -0.419361    35A     -0.352792    36A     -0.303850

  @DF-RHF Final Energy:  -453.68664840501168

   => Energetics <=

    Nuclear Repulsion Energy =            499.5661684056009335
    One-Electron Energy =               -1607.6894245973419402
    Two-Electron Energy =                 654.4366077867291551
    Total Energy =                       -453.6866484050117379
  Basis Set: (AUG-CC-PVTZ AUX)
    Blend: AUG-CC-PVTZ-RI
    Molecular point group: c1

    Geometry (in Angstrom), charge = 0, multiplicity = 1:

       Center              X                  Y                   Z               Mass
    ------------   -----------------  -----------------  -----------------  -----------------
         O            2.343885974455     0.737922965523    -0.505321497189    15.994914619570
         N            0.083137974455     2.194368165523     0.255642902811    14.003074004430
         N            2.296391974455    -1.336798834477     0.399410902811    14.003074004430
         C            0.182092974455    -0.235706834477    -0.025732097189    12.000000000000
         C           -0.551314025545     0.970339165523     0.079293902811    12.000000000000
         C           -0.500118025545    -1.454693834477    -0.167371097189    12.000000000000
         C           -1.954317025545     0.889768165523     0.131525902811    12.000000000000
         C           -1.889865025545    -1.512085834477    -0.143636097189    12.000000000000
         C           -2.615042025545    -0.326880834477     0.005500902811    12.000000000000
         C            1.672160974455    -0.203946834477    -0.063670097189    12.000000000000
         H            0.074280974455    -2.365055834477    -0.322282097189     1.007825032230
         H           -2.526936025545     1.809718165523     0.239408902811     1.007825032230
         H           -2.401709025545    -2.462627834477    -0.265881097189     1.007825032230
         H           -3.702208025545    -0.349422834477     0.031711902811     1.007825032230
         H            1.011988974455     2.224915165523    -0.155215097189     1.007825032230
         H           -0.489433025545     2.993261165523     0.008100902811     1.007825032230
         H            1.820635974455    -1.915537834477     1.077837902811     1.007825032230
         H            3.301997974455    -1.258038834477     0.496502902811     1.007825032230

  Basis Set: AUG-CC-PVTZ
    Blend: AUG-CC-PVTZ
  Basis Set: (AUG-CC-PVTZ AUX)
    Blend: AUG-CC-PVTZ-JKFIT
	 Reference Energy          =    -453.6866484050116810 [Eh]
	 Singles Energy            =      -0.0000000000000000 [Eh]
	 Same-Spin Energy          =      -0.4861161140179621 [Eh]
	 Opposite-Spin Energy      =      -1.4788268614391933 [Eh]
	 Correlation Energy        =      -1.9649429754571552 [Eh]
	 Total Energy              =    -455.6515913804688580 [Eh]

	 ================> DF-SCS-MP2 Energies <==================
	-----------------------------------------------------------
	 SCS Same-Spin Scale       =       0.3333333333333333 [-]
	 SCS Opposite-Spin Scale   =       1.2000000000000000 [-]
	 SCS Same-Spin Energy      =      -0.1620387046726540 [Eh]
	 SCS Opposite-Spin Energy  =      -1.7745922337270319 [Eh]
	 SCS Correlation Energy    =      -1.9366309383996858 [Eh]
	 SCS Total Energy          =    -455.6232793434113546 [Eh]
	-----------------------------------------------------------

  Dipole Moment: [D]
     X:    -1.2051      Y:    -1.3258      Z:     1.0522     Total:     2.0778

*** Psi4 exiting successfully. Buy a developer a beer!
