                               Psi4 1.4a3.dev225

  ==> Input File <==

--------------------------------------------------------------------------
#psi4
#
memory 32 gb

molecule  {
0 1
  O        2.3476870     0.7564740    -0.5170070
  N        0.1051940     2.2022940     0.2485340
  N        2.3184480    -1.3288730     0.3923020
  C        0.2041490    -0.2277810    -0.0328410
  C       -0.4836113     1.0663298     0.0848727
  C       -0.4780620    -1.4467680    -0.1744800
  C       -1.9322610     0.8976940     0.1244170
  C       -1.8678090    -1.5041600    -0.1507450
  C       -2.5929860    -0.3189550    -0.0016080
  C        1.6942170    -0.1960210    -0.0707790
  H        0.0963370    -2.3571300    -0.3293910
  H       -2.5048800     1.8176440     0.2323000
  H       -2.3796530    -2.4547020    -0.2729900
  H       -3.6801520    -0.3414970     0.0246030
  H        1.0340450     2.2328410    -0.1623240
  H       -0.4673770     3.0011870     0.0009920
  H        1.8426920    -1.9076120     1.0707290
  H        3.3240540    -1.2501130     0.4893940
units angstrom
no_reorient  #important for SAPT in psi4, default
symmetry c1  #important for SAPT in psi4, default
}

set PROPERTIES_ORIGIN ["COM"]
properties('MP2/aug-cc-pvtz', properties = ['dipole'])
--------------------------------------------------------------------------

    Molecular point group: c1
  Charge       = 0
  Multiplicity = 1
  Basis Set: AUG-CC-PVTZ
    Blend: AUG-CC-PVTZ
  Basis Set: (AUG-CC-PVTZ AUX)
    Blend: AUG-CC-PVTZ-JKFIT

    Orbital Energies [Eh]
    ---------------------

    Doubly Occupied:

       1A    -20.524314     2A    -15.584251     3A    -15.575379
       4A    -11.359176     5A    -11.306912     6A    -11.253402
       7A    -11.250856     8A    -11.242540     9A    -11.234079
      10A    -11.224504    11A     -1.378662    12A     -1.270263
      13A     -1.211145    14A     -1.132380    15A     -1.028343
      16A     -0.989305    17A     -0.871840    18A     -0.832239
      19A     -0.792526    20A     -0.734274    21A     -0.712827
      22A     -0.703231    23A     -0.676351    24A     -0.640622
      25A     -0.611165    26A     -0.594043    27A     -0.584897
      28A     -0.571443    29A     -0.544723    30A     -0.528634
      31A     -0.497415    32A     -0.464645    33A     -0.431946
      34A     -0.418215    35A     -0.348672    36A     -0.289533

  @DF-RHF Final Energy:  -453.67201338758167

   => Energetics <=

    Nuclear Repulsion Energy =            499.3588121500965258
    One-Electron Energy =               -1607.2321496339668556
    Two-Electron Energy =                 654.2013240962886584
    Total Energy =                       -453.6720133875816146
  Basis Set: (AUG-CC-PVTZ AUX)
    Blend: AUG-CC-PVTZ-RI
    Molecular point group: c1

    Geometry (in Angstrom), charge = 0, multiplicity = 1:

       Center              X                  Y                   Z               Mass
    ------------   -----------------  -----------------  -----------------  -----------------
         O            2.323751168868     0.739532336162    -0.510479075770    15.994914619570
         N            0.081258168868     2.185352336162     0.255061924230    14.003074004430
         N            2.294512168868    -1.345814663838     0.398829924230    14.003074004430
         C            0.180213168868    -0.244722663838    -0.026313075770    12.000000000000
         C           -0.507547131132     1.049388136162     0.091400624230    12.000000000000
         C           -0.501997831132    -1.463709663838    -0.167952075770    12.000000000000
         C           -1.956196831132     0.880752336162     0.130944924230    12.000000000000
         C           -1.891744831132    -1.521101663838    -0.144217075770    12.000000000000
         C           -2.616921831132    -0.335896663838     0.004919924230    12.000000000000
         C            1.670281168868    -0.212962663838    -0.064251075770    12.000000000000
         H            0.072401168868    -2.374071663838    -0.322863075770     1.007825032230
         H           -2.528815831132     1.800702336162     0.238827924230     1.007825032230
         H           -2.403588831132    -2.471643663838    -0.266462075770     1.007825032230
         H           -3.704087831132    -0.358438663838     0.031130924230     1.007825032230
         H            1.010109168868     2.215899336162    -0.155796075770     1.007825032230
         H           -0.491312831132     2.984245336162     0.007519924230     1.007825032230
         H            1.818756168868    -1.924553663838     1.077256924230     1.007825032230
         H            3.300118168868    -1.267054663838     0.495921924230     1.007825032230

  Basis Set: AUG-CC-PVTZ
    Blend: AUG-CC-PVTZ
  Basis Set: (AUG-CC-PVTZ AUX)
    Blend: AUG-CC-PVTZ-JKFIT
	 Reference Energy          =    -453.6720133875816714 [Eh]
	 Singles Energy            =      -0.0000000000000000 [Eh]
	 Same-Spin Energy          =      -0.4867919327542493 [Eh]
	 Opposite-Spin Energy      =      -1.4792419016331797 [Eh]
	 Correlation Energy        =      -1.9660338343874291 [Eh]
	 Total Energy              =    -455.6380472219690887 [Eh]

	 ================> DF-SCS-MP2 Energies <==================
	-----------------------------------------------------------
	 SCS Same-Spin Scale       =       0.3333333333333333 [-]
	 SCS Opposite-Spin Scale   =       1.2000000000000000 [-]
	 SCS Same-Spin Energy      =      -0.1622639775847498 [Eh]
	 SCS Opposite-Spin Energy  =      -1.7750902819598156 [Eh]
	 SCS Correlation Energy    =      -1.9373542595445654 [Eh]
	 SCS Total Energy          =    -455.6093676471262484 [Eh]
	-----------------------------------------------------------

  Dipole Moment: [D]
     X:    -0.8798      Y:    -0.6710      Z:     1.1507     Total:     1.5964

*** Psi4 exiting successfully. Buy a developer a beer!
