                               Psi4 1.4a3.dev225

  ==> Input File <==

--------------------------------------------------------------------------
#psi4
#
memory 32 gb

molecule  {
0 1
  O        2.3476870     0.7564740    -0.5170070
  N        0.1051940     2.2022940     0.2485340
  N        2.3184480    -1.3288730     0.3923020
  C        0.2041490    -0.2277810    -0.0328410
  C       -0.4901100     0.9623699     0.0483424
  C       -0.4780620    -1.4467680    -0.1744800
  C       -1.9322610     0.8976940     0.1244170
  C       -1.8678090    -1.5041600    -0.1507450
  C       -2.5929860    -0.3189550    -0.0016080
  C        1.6942170    -0.1960210    -0.0707790
  H        0.0963370    -2.3571300    -0.3293910
  H       -2.5048800     1.8176440     0.2323000
  H       -2.3796530    -2.4547020    -0.2729900
  H       -3.6801520    -0.3414970     0.0246030
  H        1.0340450     2.2328410    -0.1623240
  H       -0.4673770     3.0011870     0.0009920
  H        1.8426920    -1.9076120     1.0707290
  H        3.3240540    -1.2501130     0.4893940
units angstrom
no_reorient  #important for SAPT in psi4, default
symmetry c1  #important for SAPT in psi4, default
}

set PROPERTIES_ORIGIN ["COM"]
properties('MP2/aug-cc-pvtz', properties = ['dipole'])
--------------------------------------------------------------------------

    Molecular point group: c1
  Charge       = 0
  Multiplicity = 1
  Basis Set: AUG-CC-PVTZ
    Blend: AUG-CC-PVTZ
  Basis Set: (AUG-CC-PVTZ AUX)
    Blend: AUG-CC-PVTZ-JKFIT

    Orbital Energies [Eh]
    ---------------------

    Doubly Occupied:

       1A    -20.526502     2A    -15.587713     3A    -15.560786
       4A    -11.363233     5A    -11.297474     6A    -11.255361
       7A    -11.251810     8A    -11.240823     9A    -11.239084
      10A    -11.232510    11A     -1.380496    12A     -1.227719
      13A     -1.214312    14A     -1.137221    15A     -1.038240
      16A     -0.996429    17A     -0.874279    18A     -0.838572
      19A     -0.790932    20A     -0.736569    21A     -0.699089
      22A     -0.686282    23A     -0.674393    24A     -0.638350
      25A     -0.613103    26A     -0.600353    27A     -0.585958
      28A     -0.575329    29A     -0.537758    30A     -0.520398
      31A     -0.513775    32A     -0.455553    33A     -0.434909
      34A     -0.420472    35A     -0.352810    36A     -0.303025

  @DF-RHF Final Energy:  -453.68386419316266

   => Energetics <=

    Nuclear Repulsion Energy =            500.0208288948551285
    One-Electron Energy =               -1608.6061454088212486
    Two-Electron Energy =                 654.9014523208034007
    Total Energy =                       -453.6838641931626626
  Basis Set: (AUG-CC-PVTZ AUX)
    Blend: AUG-CC-PVTZ-RI
    Molecular point group: c1

    Geometry (in Angstrom), charge = 0, multiplicity = 1:

       Center              X                  Y                   Z               Mass
    ------------   -----------------  -----------------  -----------------  -----------------
         O            2.324324315279     0.748700976587    -0.507257322138    15.994914619570
         N            0.081831315279     2.194520976587     0.258283677862    14.003074004430
         N            2.295085315279    -1.336646023413     0.402051677862    14.003074004430
         C            0.180786315279    -0.235554023413    -0.023091322138    12.000000000000
         C           -0.513472684721     0.954596876587     0.058092077862    12.000000000000
         C           -0.501424684721    -1.454541023413    -0.164730322138    12.000000000000
         C           -1.955623684721     0.889920976587     0.134166677862    12.000000000000
         C           -1.891171684721    -1.511933023413    -0.140995322138    12.000000000000
         C           -2.616348684721    -0.326728023413     0.008141677862    12.000000000000
         C            1.670854315279    -0.203794023413    -0.061029322138    12.000000000000
         H            0.072974315279    -2.364903023413    -0.319641322138     1.007825032230
         H           -2.528242684721     1.809870976587     0.242049677862     1.007825032230
         H           -2.403015684721    -2.462475023413    -0.263240322138     1.007825032230
         H           -3.703514684721    -0.349270023413     0.034352677862     1.007825032230
         H            1.010682315279     2.225067976587    -0.152574322138     1.007825032230
         H           -0.490739684721     2.993413976587     0.010741677862     1.007825032230
         H            1.819329315279    -1.915385023413     1.080478677862     1.007825032230
         H            3.300691315279    -1.257886023413     0.499143677862     1.007825032230

  Basis Set: AUG-CC-PVTZ
    Blend: AUG-CC-PVTZ
  Basis Set: (AUG-CC-PVTZ AUX)
    Blend: AUG-CC-PVTZ-JKFIT
	 Reference Energy          =    -453.6838641931626626 [Eh]
	 Singles Energy            =      -0.0000000000000000 [Eh]
	 Same-Spin Energy          =      -0.4861067978332246 [Eh]
	 Opposite-Spin Energy      =      -1.4791415750056252 [Eh]
	 Correlation Energy        =      -1.9652483728388497 [Eh]
	 Total Energy              =    -455.6491125660015200 [Eh]

	 ================> DF-SCS-MP2 Energies <==================
	-----------------------------------------------------------
	 SCS Same-Spin Scale       =       0.3333333333333333 [-]
	 SCS Opposite-Spin Scale   =       1.2000000000000000 [-]
	 SCS Same-Spin Energy      =      -0.1620355992777415 [Eh]
	 SCS Opposite-Spin Energy  =      -1.7749698900067501 [Eh]
	 SCS Correlation Energy    =      -1.9370054892844917 [Eh]
	 SCS Total Energy          =    -455.6208696824471645 [Eh]
	-----------------------------------------------------------

  Dipole Moment: [D]
     X:    -1.1377      Y:    -1.3342      Z:     1.0595     Total:     2.0487

*** Psi4 exiting successfully. Buy a developer a beer!
