                               Psi4 1.4a3.dev225

  ==> Input File <==

--------------------------------------------------------------------------
#psi4
#
memory 32 gb

molecule  {
0 1
  O        2.3476870     0.7564740    -0.5170070
  N        0.1266511     2.1913424     0.2456837
  N        2.3184480    -1.3288730     0.3923020
  C        0.2041490    -0.2277810    -0.0328410
  C       -0.5292580     0.9782650     0.0721850
  C       -0.4780620    -1.4467680    -0.1744800
  C       -1.9322610     0.8976940     0.1244170
  C       -1.8678090    -1.5041600    -0.1507450
  C       -2.5929860    -0.3189550    -0.0016080
  C        1.6942170    -0.1960210    -0.0707790
  H        0.0963370    -2.3571300    -0.3293910
  H       -2.5048800     1.8176440     0.2323000
  H       -2.3796530    -2.4547020    -0.2729900
  H       -3.6801520    -0.3414970     0.0246030
  H        1.0340450     2.2328410    -0.1623240
  H       -0.4673770     3.0011870     0.0009920
  H        1.8426920    -1.9076120     1.0707290
  H        3.3240540    -1.2501130     0.4893940
units angstrom
no_reorient  #important for SAPT in psi4, default
symmetry c1  #important for SAPT in psi4, default
}

set PROPERTIES_ORIGIN ["COM"]
properties('MP2/aug-cc-pvtz', properties = ['dipole'])
--------------------------------------------------------------------------

    Molecular point group: c1
  Charge       = 0
  Multiplicity = 1
  Basis Set: AUG-CC-PVTZ
    Blend: AUG-CC-PVTZ
  Basis Set: (AUG-CC-PVTZ AUX)
    Blend: AUG-CC-PVTZ-JKFIT

    Orbital Energies [Eh]
    ---------------------

    Doubly Occupied:

       1A    -20.526046     2A    -15.587515     3A    -15.560443
       4A    -11.363432     5A    -11.297255     6A    -11.255816
       7A    -11.253604     8A    -11.243939     9A    -11.235186
      10A    -11.232181    11A     -1.379967    12A     -1.227286
      13A     -1.214057    14A     -1.137150    15A     -1.036573
      16A     -0.998825    17A     -0.877579    18A     -0.833114
      19A     -0.793550    20A     -0.736129    21A     -0.697224
      22A     -0.691358    23A     -0.671168    24A     -0.638915
      25A     -0.608176    26A     -0.604185    27A     -0.586594
      28A     -0.575218    29A     -0.539651    30A     -0.523898
      31A     -0.509333    32A     -0.455293    33A     -0.435718
      34A     -0.420188    35A     -0.352256    36A     -0.303410

  @DF-RHF Final Energy:  -453.68578078244383

   => Energetics <=

    Nuclear Repulsion Energy =            499.9329571562599313
    One-Electron Energy =               -1608.4330113568180423
    Two-Electron Energy =                 654.8142734181143396
    Total Energy =                       -453.6857807824438851
  Basis Set: (AUG-CC-PVTZ AUX)
    Blend: AUG-CC-PVTZ-RI
    Molecular point group: c1

    Geometry (in Angstrom), charge = 0, multiplicity = 1:

       Center              X                  Y                   Z               Mass
    ------------   -----------------  -----------------  -----------------  -----------------
         O            2.325568663970     0.748426214510    -0.509066756288    15.994914619570
         N            0.104532763970     2.183294614510     0.253623943712    14.003074004430
         N            2.296329663970    -1.336920785490     0.400242243712    14.003074004430
         C            0.182030663970    -0.235828785490    -0.024900756288    12.000000000000
         C           -0.551376336030     0.970217214510     0.080125243712    12.000000000000
         C           -0.500180336030    -1.454815785490    -0.166539756288    12.000000000000
         C           -1.954379336030     0.889646214510     0.132357243712    12.000000000000
         C           -1.889927336030    -1.512207785490    -0.142804756288    12.000000000000
         C           -2.615104336030    -0.327002785490     0.006332243712    12.000000000000
         C            1.672098663970    -0.204068785490    -0.062838756288    12.000000000000
         H            0.074218663970    -2.365177785490    -0.321450756288     1.007825032230
         H           -2.526998336030     1.809596214510     0.240240243712     1.007825032230
         H           -2.401771336030    -2.462749785490    -0.265049756288     1.007825032230
         H           -3.702270336030    -0.349544785490     0.032543243712     1.007825032230
         H            1.011926663970     2.224793214510    -0.154383756288     1.007825032230
         H           -0.489495336030     2.993139214510     0.008932243712     1.007825032230
         H            1.820573663970    -1.915659785490     1.078669243712     1.007825032230
         H            3.301935663970    -1.258160785490     0.497334243712     1.007825032230

  Basis Set: AUG-CC-PVTZ
    Blend: AUG-CC-PVTZ
  Basis Set: (AUG-CC-PVTZ AUX)
    Blend: AUG-CC-PVTZ-JKFIT
	 Reference Energy          =    -453.6857807824438282 [Eh]
	 Singles Energy            =      -0.0000000000000000 [Eh]
	 Same-Spin Energy          =      -0.4861930393209976 [Eh]
	 Opposite-Spin Energy      =      -1.4789497756956345 [Eh]
	 Correlation Energy        =      -1.9651428150166321 [Eh]
	 Total Energy              =    -455.6509235974604621 [Eh]

	 ================> DF-SCS-MP2 Energies <==================
	-----------------------------------------------------------
	 SCS Same-Spin Scale       =       0.3333333333333333 [-]
	 SCS Opposite-Spin Scale   =       1.2000000000000000 [-]
	 SCS Same-Spin Energy      =      -0.1620643464403325 [Eh]
	 SCS Opposite-Spin Energy  =      -1.7747397308347612 [Eh]
	 SCS Correlation Energy    =      -1.9368040772750938 [Eh]
	 SCS Total Energy          =    -455.6225848597189270 [Eh]
	-----------------------------------------------------------

  Dipole Moment: [D]
     X:    -1.1545      Y:    -1.3427      Z:     1.0661     Total:     2.0670

*** Psi4 exiting successfully. Buy a developer a beer!
