                               Psi4 1.4a3.dev225

  ==> Input File <==

--------------------------------------------------------------------------
#psi4
#
memory 32 gb

molecule  {
0 1
  O        2.3476870     0.7564740    -0.5170070
  N        0.1051940     2.2022940     0.2485340
  N        2.3184480    -1.3288730     0.3923020
  C        0.2041490    -0.2277810    -0.0328410
  C       -0.5292580     0.9782650     0.0721850
  C       -0.4780620    -1.4467680    -0.1744800
  C       -1.9322610     0.8976940     0.1244170
  C       -1.8678090    -1.5041600    -0.1507450
  C       -2.5929860    -0.3189550    -0.0016080
  C        1.6942170    -0.1960210    -0.0707790
  H        0.0963370    -2.3571300    -0.3293910
  H       -2.5048800     1.8176440     0.2323000
  H       -2.3796530    -2.4547020    -0.2729900
  H       -3.6801520    -0.3414970     0.0246030
  H        1.0475755     2.1710706    -0.1302057
  H       -0.4673770     3.0011870     0.0009920
  H        1.8426920    -1.9076120     1.0707290
  H        3.3240540    -1.2501130     0.4893940
units angstrom
no_reorient  #important for SAPT in psi4, default
symmetry c1  #important for SAPT in psi4, default
}

set PROPERTIES_ORIGIN ["COM"]
properties('MP2/aug-cc-pvtz', properties = ['dipole'])
--------------------------------------------------------------------------

    Molecular point group: c1
  Charge       = 0
  Multiplicity = 1
  Basis Set: AUG-CC-PVTZ
    Blend: AUG-CC-PVTZ
  Basis Set: (AUG-CC-PVTZ AUX)
    Blend: AUG-CC-PVTZ-JKFIT

    Orbital Energies [Eh]
    ---------------------

    Doubly Occupied:

       1A    -20.527930     2A    -15.588520     3A    -15.559291
       4A    -11.364884     5A    -11.296586     6A    -11.256060
       7A    -11.253181     8A    -11.244199     9A    -11.233965
      10A    -11.231704    11A     -1.382037    12A     -1.227330
      13A     -1.215204    14A     -1.136767    15A     -1.036657
      16A     -0.997805    17A     -0.877530    18A     -0.833473
      19A     -0.793272    20A     -0.736470    21A     -0.700351
      22A     -0.688134    23A     -0.675293    24A     -0.637844
      25A     -0.608960    26A     -0.603919    27A     -0.587511
      28A     -0.576129    29A     -0.539367    30A     -0.523669
      31A     -0.510007    32A     -0.454609    33A     -0.436725
      34A     -0.421630    35A     -0.352326    36A     -0.302258

  @DF-RHF Final Energy:  -453.68599981654592

   => Energetics <=

    Nuclear Repulsion Energy =            499.9320486213178469
    One-Electron Energy =               -1608.4128993767421889
    Two-Electron Energy =                 654.7948509388784259
    Total Energy =                       -453.6859998165459729
  Basis Set: (AUG-CC-PVTZ AUX)
    Blend: AUG-CC-PVTZ-RI
    Molecular point group: c1

    Geometry (in Angstrom), charge = 0, multiplicity = 1:

       Center              X                  Y                   Z               Mass
    ------------   -----------------  -----------------  -----------------  -----------------
         O            2.327676713808     0.747756658010    -0.509597997231    15.994914619570
         N            0.085183713808     2.193576658010     0.255943002769    14.003074004430
         N            2.298437713808    -1.337590341990     0.399711002769    14.003074004430
         C            0.184138713808    -0.236498341990    -0.025431997231    12.000000000000
         C           -0.549268286192     0.969547658010     0.079594002769    12.000000000000
         C           -0.498072286192    -1.455485341990    -0.167070997231    12.000000000000
         C           -1.952271286192     0.888976658010     0.131826002769    12.000000000000
         C           -1.887819286192    -1.512877341990    -0.143335997231    12.000000000000
         C           -2.612996286192    -0.327672341990     0.005801002769    12.000000000000
         C            1.674206713808    -0.204738341990    -0.063369997231    12.000000000000
         H            0.076326713808    -2.365847341990    -0.321981997231     1.007825032230
         H           -2.524890286192     1.808926658010     0.239709002769     1.007825032230
         H           -2.399663286192    -2.463419341990    -0.265580997231     1.007825032230
         H           -3.700162286192    -0.350214341990     0.032012002769     1.007825032230
         H            1.027565213808     2.162353258010    -0.122796697231     1.007825032230
         H           -0.487387286192     2.992469658010     0.008401002769     1.007825032230
         H            1.822681713808    -1.916329341990     1.078138002769     1.007825032230
         H            3.304043713808    -1.258830341990     0.496803002769     1.007825032230

  Basis Set: AUG-CC-PVTZ
    Blend: AUG-CC-PVTZ
  Basis Set: (AUG-CC-PVTZ AUX)
    Blend: AUG-CC-PVTZ-JKFIT
	 Reference Energy          =    -453.6859998165459160 [Eh]
	 Singles Energy            =      -0.0000000000000000 [Eh]
	 Same-Spin Energy          =      -0.4863604537058824 [Eh]
	 Opposite-Spin Energy      =      -1.4790446027258999 [Eh]
	 Correlation Energy        =      -1.9654050564317822 [Eh]
	 Total Energy              =    -455.6514048729777073 [Eh]

	 ================> DF-SCS-MP2 Energies <==================
	-----------------------------------------------------------
	 SCS Same-Spin Scale       =       0.3333333333333333 [-]
	 SCS Opposite-Spin Scale   =       1.2000000000000000 [-]
	 SCS Same-Spin Energy      =      -0.1621201512352941 [Eh]
	 SCS Opposite-Spin Energy  =      -1.7748535232710798 [Eh]
	 SCS Correlation Energy    =      -1.9369736745063739 [Eh]
	 SCS Total Energy          =    -455.6229734910522780 [Eh]
	-----------------------------------------------------------

  Dipole Moment: [D]
     X:    -1.0847      Y:    -1.3955      Z:     1.0996     Total:     2.0816

*** Psi4 exiting successfully. Buy a developer a beer!
