                               Psi4 1.4a3.dev225

  ==> Input File <==

--------------------------------------------------------------------------
#psi4
#
memory 32 gb

molecule  {
0 1
  O        2.3476870     0.7564740    -0.5170070
  N        0.1051940     2.2022940     0.2485340
  N        2.3184480    -1.3288730     0.3923020
  C        0.2041490    -0.2277810    -0.0328410
  C       -0.5292580     0.9782650     0.0721850
  C       -0.4780620    -1.4467680    -0.1744800
  C       -1.9322610     0.8976940     0.1244170
  C       -1.8678090    -1.5041600    -0.1507450
  C       -2.5929860    -0.3189550    -0.0016080
  C        1.6942170    -0.1960210    -0.0707790
  H        0.0963370    -2.3571300    -0.3293910
  H       -2.5048800     1.8176440     0.2323000
  H       -2.3796530    -2.4547020    -0.2729900
  H       -3.5802025    -0.3394246     0.0221933
  H        1.0340450     2.2328410    -0.1623240
  H       -0.4673770     3.0011870     0.0009920
  H        1.8426920    -1.9076120     1.0707290
  H        3.3240540    -1.2501130     0.4893940
units angstrom
no_reorient  #important for SAPT in psi4, default
symmetry c1  #important for SAPT in psi4, default
}

set PROPERTIES_ORIGIN ["COM"]
properties('MP2/aug-cc-pvtz', properties = ['dipole'])
--------------------------------------------------------------------------

    Molecular point group: c1
  Charge       = 0
  Multiplicity = 1
  Basis Set: AUG-CC-PVTZ
    Blend: AUG-CC-PVTZ
  Basis Set: (AUG-CC-PVTZ AUX)
    Blend: AUG-CC-PVTZ-JKFIT

    Orbital Energies [Eh]
    ---------------------

    Doubly Occupied:

       1A    -20.526285     2A    -15.587545     3A    -15.559755
       4A    -11.363535     5A    -11.296616     6A    -11.255345
       7A    -11.244129     8A    -11.241416     9A    -11.233891
      10A    -11.231364    11A     -1.380062    12A     -1.226852
      13A     -1.214061    14A     -1.137655    15A     -1.039520
      16A     -0.998156    17A     -0.883572    18A     -0.833407
      19A     -0.794727    20A     -0.736238    21A     -0.706709
      22A     -0.692488    23A     -0.673372    24A     -0.637885
      25A     -0.612358    26A     -0.604414    27A     -0.586376
      28A     -0.575371    29A     -0.543402    30A     -0.525558
      31A     -0.510334    32A     -0.454749    33A     -0.435657
      34A     -0.420351    35A     -0.351886    36A     -0.302805

  @DF-RHF Final Energy:  -453.68084222671826

   => Energetics <=

    Nuclear Repulsion Energy =            500.3063122369784423
    One-Electron Energy =               -1609.1386160991971792
    Two-Electron Energy =                 655.1514616355005955
    Total Energy =                       -453.6808422267182550
  Basis Set: (AUG-CC-PVTZ AUX)
    Blend: AUG-CC-PVTZ-RI
    Molecular point group: c1

    Geometry (in Angstrom), charge = 0, multiplicity = 1:

       Center              X                  Y                   Z               Mass
    ------------   -----------------  -----------------  -----------------  -----------------
         O            2.327036607335     0.747283773695    -0.509342247959    15.994914619570
         N            0.084543607335     2.193103773695     0.256198752041    14.003074004430
         N            2.297797607335    -1.338063226305     0.399966752041    14.003074004430
         C            0.183498607335    -0.236971226305    -0.025176247959    12.000000000000
         C           -0.549908392665     0.969074773695     0.079849752041    12.000000000000
         C           -0.498712392665    -1.455958226305    -0.166815247959    12.000000000000
         C           -1.952911392665     0.888503773695     0.132081752041    12.000000000000
         C           -1.888459392665    -1.513350226305    -0.143080247959    12.000000000000
         C           -2.613636392665    -0.328145226305     0.006056752041    12.000000000000
         C            1.673566607335    -0.205211226305    -0.063114247959    12.000000000000
         H            0.075686607335    -2.366320226305    -0.321726247959     1.007825032230
         H           -2.525530392665     1.808453773695     0.239964752041     1.007825032230
         H           -2.400303392665    -2.463892226305    -0.265325247959     1.007825032230
         H           -3.600852892665    -0.348614826305     0.029858052041     1.007825032230
         H            1.013394607335     2.223650773695    -0.154659247959     1.007825032230
         H           -0.488027392665     2.991996773695     0.008656752041     1.007825032230
         H            1.822041607335    -1.916802226305     1.078393752041     1.007825032230
         H            3.303403607335    -1.259303226305     0.497058752041     1.007825032230

  Basis Set: AUG-CC-PVTZ
    Blend: AUG-CC-PVTZ
  Basis Set: (AUG-CC-PVTZ AUX)
    Blend: AUG-CC-PVTZ-JKFIT
	 Reference Energy          =    -453.6808422267182550 [Eh]
	 Singles Energy            =      -0.0000000000000000 [Eh]
	 Same-Spin Energy          =      -0.4860507571125138 [Eh]
	 Opposite-Spin Energy      =      -1.4784055611620619 [Eh]
	 Correlation Energy        =      -1.9644563182745758 [Eh]
	 Total Energy              =    -455.6452985449928406 [Eh]

	 ================> DF-SCS-MP2 Energies <==================
	-----------------------------------------------------------
	 SCS Same-Spin Scale       =       0.3333333333333333 [-]
	 SCS Opposite-Spin Scale   =       1.2000000000000000 [-]
	 SCS Same-Spin Energy      =      -0.1620169190375046 [Eh]
	 SCS Opposite-Spin Energy  =      -1.7740866733944742 [Eh]
	 SCS Correlation Energy    =      -1.9361035924319787 [Eh]
	 SCS Total Energy          =    -455.6169458191502599 [Eh]
	-----------------------------------------------------------

  Dipole Moment: [D]
     X:    -1.1602      Y:    -1.3568      Z:     1.0619     Total:     2.0771

*** Psi4 exiting successfully. Buy a developer a beer!
