                               Psi4 1.4a3.dev225

  ==> Input File <==

--------------------------------------------------------------------------
#psi4
#
memory 32 gb

molecule  {
0 1
  O        2.3476870     0.7564740    -0.5170070
  N        0.1051940     2.2022940     0.2485340
  N        2.3184480    -1.3288730     0.3923020
  C        0.2041490    -0.2277810    -0.0328410
  C       -0.5292580     0.9782650     0.0721850
  C       -0.4780620    -1.4467680    -0.1744800
  C       -1.9322610     0.8976940     0.1244170
  C       -1.8678090    -1.5041600    -0.1507450
  C       -2.5929860    -0.3189550    -0.0016080
  C        1.6942170    -0.1960210    -0.0707790
  H        0.0963370    -2.3571300    -0.3293910
  H       -2.5048800     1.8176440     0.2323000
  H       -2.3796530    -2.4547020    -0.2729900
  H       -3.6801520    -0.3414970     0.0246030
  H        1.0340450     2.2328410    -0.1623240
  H       -0.4673770     3.0011870     0.0009920
  H        1.8581837    -1.9110425     1.0784370
  H        3.3240540    -1.2501130     0.4893940
units angstrom
no_reorient  #important for SAPT in psi4, default
symmetry c1  #important for SAPT in psi4, default
}

set PROPERTIES_ORIGIN ["COM"]
properties('MP2/aug-cc-pvtz', properties = ['dipole'])
--------------------------------------------------------------------------

    Molecular point group: c1
  Charge       = 0
  Multiplicity = 1
  Basis Set: AUG-CC-PVTZ
    Blend: AUG-CC-PVTZ
  Basis Set: (AUG-CC-PVTZ AUX)
    Blend: AUG-CC-PVTZ-JKFIT

    Orbital Energies [Eh]
    ---------------------

    Doubly Occupied:

       1A    -20.526689     2A    -15.587696     3A    -15.560066
       4A    -11.364060     5A    -11.297103     6A    -11.255792
       7A    -11.253200     8A    -11.244279     9A    -11.234504
      10A    -11.231997    11A     -1.380382    12A     -1.227140
      13A     -1.214129    14A     -1.137003    15A     -1.036571
      16A     -0.998486    17A     -0.877441    18A     -0.833765
      19A     -0.793480    20A     -0.735863    21A     -0.698348
      22A     -0.687876    23A     -0.673357    24A     -0.638038
      25A     -0.608865    26A     -0.604049    27A     -0.586375
      28A     -0.575153    29A     -0.539394    30A     -0.523485
      31A     -0.509905    32A     -0.455059    33A     -0.436028
      34A     -0.420606    35A     -0.352115    36A     -0.303170

  @DF-RHF Final Energy:  -453.68663150285386

   => Energetics <=

    Nuclear Repulsion Energy =            499.7184005791758636
    One-Electron Energy =               -1608.0071309360137093
    Two-Electron Energy =                 654.6020988539838754
    Total Energy =                       -453.6866315028538565
  Basis Set: (AUG-CC-PVTZ AUX)
    Blend: AUG-CC-PVTZ-RI
    Molecular point group: c1

    Geometry (in Angstrom), charge = 0, multiplicity = 1:

       Center              X                  Y                   Z               Mass
    ------------   -----------------  -----------------  -----------------  -----------------
         O            2.327662187179     0.747324533735    -0.509417189873    15.994914619570
         N            0.085169187179     2.193144533735     0.256123810127    14.003074004430
         N            2.298423187179    -1.338022466265     0.399891810127    14.003074004430
         C            0.184124187179    -0.236930466265    -0.025251189873    12.000000000000
         C           -0.549282812821     0.969115533735     0.079774810127    12.000000000000
         C           -0.498086812821    -1.455917466265    -0.166890189873    12.000000000000
         C           -1.952285812821     0.888544533735     0.132006810127    12.000000000000
         C           -1.887833812821    -1.513309466265    -0.143155189873    12.000000000000
         C           -2.613010812821    -0.328104466265     0.005981810127    12.000000000000
         C            1.674192187179    -0.205170466265    -0.063189189873    12.000000000000
         H            0.076312187179    -2.366279466265    -0.321801189873     1.007825032230
         H           -2.524904812821     1.808494533735     0.239889810127     1.007825032230
         H           -2.399677812821    -2.463851466265    -0.265400189873     1.007825032230
         H           -3.700176812821    -0.350646466265     0.032192810127     1.007825032230
         H            1.014020187179     2.223691533735    -0.154734189873     1.007825032230
         H           -0.487401812821     2.992037533735     0.008581810127     1.007825032230
         H            1.838158887179    -1.920191966265     1.086026810127     1.007825032230
         H            3.304029187179    -1.259262466265     0.496983810127     1.007825032230

  Basis Set: AUG-CC-PVTZ
    Blend: AUG-CC-PVTZ
  Basis Set: (AUG-CC-PVTZ AUX)
    Blend: AUG-CC-PVTZ-JKFIT
	 Reference Energy          =    -453.6866315028538565 [Eh]
	 Singles Energy            =      -0.0000000000000000 [Eh]
	 Same-Spin Energy          =      -0.4861627101128022 [Eh]
	 Opposite-Spin Energy      =      -1.4788750755558580 [Eh]
	 Correlation Energy        =      -1.9650377856686601 [Eh]
	 Total Energy              =    -455.6516692885224984 [Eh]

	 ================> DF-SCS-MP2 Energies <==================
	-----------------------------------------------------------
	 SCS Same-Spin Scale       =       0.3333333333333333 [-]
	 SCS Opposite-Spin Scale   =       1.2000000000000000 [-]
	 SCS Same-Spin Energy      =      -0.1620542367042674 [Eh]
	 SCS Opposite-Spin Energy  =      -1.7746500906670295 [Eh]
	 SCS Correlation Energy    =      -1.9367043273712969 [Eh]
	 SCS Total Energy          =    -455.6233358302251304 [Eh]
	-----------------------------------------------------------

  Dipole Moment: [D]
     X:    -1.1153      Y:    -1.3561      Z:     1.0709     Total:     2.0566

*** Psi4 exiting successfully. Buy a developer a beer!
