                               Psi4 1.4a3.dev225

  ==> Input File <==

--------------------------------------------------------------------------
#psi4
#
memory 32 gb

molecule  {
0 1
  O        2.3476870     0.7564740    -0.5170070
  N        0.1051940     2.2022940     0.2485340
  N        2.3184480    -1.3288730     0.3923020
  C        0.2041490    -0.2277810    -0.0328410
  C       -0.5292580     0.9782650     0.0721850
  C       -0.4780620    -1.4467680    -0.1744800
  C       -1.9322610     0.8976940     0.1244170
  C       -1.8678090    -1.5041600    -0.1507450
  C       -2.7138775    -0.4006049    -0.0122941
  C        1.6942170    -0.1960210    -0.0707790
  H        0.0963370    -2.3571300    -0.3293910
  H       -2.5048800     1.8176440     0.2323000
  H       -2.3796530    -2.4547020    -0.2729900
  H       -3.6801520    -0.3414970     0.0246030
  H        1.0340450     2.2328410    -0.1623240
  H       -0.4673770     3.0011870     0.0009920
  H        1.8426920    -1.9076120     1.0707290
  H        3.3240540    -1.2501130     0.4893940
units angstrom
no_reorient  #important for SAPT in psi4, default
symmetry c1  #important for SAPT in psi4, default
}

set PROPERTIES_ORIGIN ["COM"]
properties('MP2/aug-cc-pvtz', properties = ['dipole'])
--------------------------------------------------------------------------

    Molecular point group: c1
  Charge       = 0
  Multiplicity = 1
  Basis Set: AUG-CC-PVTZ
    Blend: AUG-CC-PVTZ
  Basis Set: (AUG-CC-PVTZ AUX)
    Blend: AUG-CC-PVTZ-JKFIT

    Orbital Energies [Eh]
    ---------------------

    Doubly Occupied:

       1A    -20.528849     2A    -15.589504     3A    -15.556520
       4A    -11.365919     5A    -11.294121     6A    -11.258956
       7A    -11.258451     8A    -11.250437     9A    -11.244099
      10A    -11.237819    11A     -1.382318    12A     -1.223420
      13A     -1.215951    14A     -1.129719    15A     -1.032014
      16A     -0.993001    17A     -0.889374    18A     -0.828737
      19A     -0.796383    20A     -0.736142    21A     -0.712973
      22A     -0.687911    23A     -0.672578    24A     -0.634941
      25A     -0.621576    26A     -0.605098    27A     -0.580982
      28A     -0.575086    29A     -0.546185    30A     -0.524966
      31A     -0.491804    32A     -0.452475    33A     -0.437636
      34A     -0.422291    35A     -0.340913    36A     -0.304193

  @DF-RHF Final Energy:  -453.65592312268069

   => Energetics <=

    Nuclear Repulsion Energy =            497.3085259937122373
    One-Electron Energy =               -1603.0822144268506690
    Two-Electron Energy =                 652.1177653104577985
    Total Energy =                       -453.6559231226806332
  Basis Set: (AUG-CC-PVTZ AUX)
    Blend: AUG-CC-PVTZ-RI
    Molecular point group: c1

    Geometry (in Angstrom), charge = 0, multiplicity = 1:

       Center              X                  Y                   Z               Mass
    ------------   -----------------  -----------------  -----------------  -----------------
         O            2.338438840489     0.754500156054    -0.508417646626    15.994914619570
         N            0.095945840489     2.200320156054     0.257123353374    14.003074004430
         N            2.309199840489    -1.330846843946     0.400891353374    14.003074004430
         C            0.194900840489    -0.229754843946    -0.024251646626    12.000000000000
         C           -0.538506159511     0.976291156054     0.080774353374    12.000000000000
         C           -0.487310159511    -1.448741843946    -0.165890646626    12.000000000000
         C           -1.941509159511     0.895720156054     0.133006353374    12.000000000000
         C           -1.877057159511    -1.506133843946    -0.142155646626    12.000000000000
         C           -2.723125659511    -0.402578743946    -0.003704746626    12.000000000000
         C            1.684968840489    -0.197994843946    -0.062189646626    12.000000000000
         H            0.087088840489    -2.359103843946    -0.320801646626     1.007825032230
         H           -2.514128159511     1.815670156054     0.240889353374     1.007825032230
         H           -2.388901159511    -2.456675843946    -0.264400646626     1.007825032230
         H           -3.689400159511    -0.343470843946     0.033192353374     1.007825032230
         H            1.024796840489     2.230867156054    -0.153734646626     1.007825032230
         H           -0.476625159511     2.999213156054     0.009581353374     1.007825032230
         H            1.833443840489    -1.909585843946     1.079318353374     1.007825032230
         H            3.314805840489    -1.252086843946     0.497983353374     1.007825032230

  Basis Set: AUG-CC-PVTZ
    Blend: AUG-CC-PVTZ
  Basis Set: (AUG-CC-PVTZ AUX)
    Blend: AUG-CC-PVTZ-JKFIT
	 Reference Energy          =    -453.6559231226806901 [Eh]
	 Singles Energy            =      -0.0000000000000000 [Eh]
	 Same-Spin Energy          =      -0.4869743772389953 [Eh]
	 Opposite-Spin Energy      =      -1.4820016861620222 [Eh]
	 Correlation Energy        =      -1.9689760634010174 [Eh]
	 Total Energy              =    -455.6248991860817341 [Eh]

	 ================> DF-SCS-MP2 Energies <==================
	-----------------------------------------------------------
	 SCS Same-Spin Scale       =       0.3333333333333333 [-]
	 SCS Opposite-Spin Scale   =       1.2000000000000000 [-]
	 SCS Same-Spin Energy      =      -0.1623247924129984 [Eh]
	 SCS Opposite-Spin Energy  =      -1.7784020233944267 [Eh]
	 SCS Correlation Energy    =      -1.9407268158074251 [Eh]
	 SCS Total Energy          =    -455.5966499384880990 [Eh]
	-----------------------------------------------------------

  Dipole Moment: [D]
     X:    -1.0707      Y:    -1.4429      Z:     1.0526     Total:     2.0824

*** Psi4 exiting successfully. Buy a developer a beer!
