                               Psi4 1.4a3.dev225

  ==> Input File <==

--------------------------------------------------------------------------
#psi4
#
memory 32 gb

molecule  {
0 1
  O        2.4540388     0.6884870    -0.4875590
  N        0.1051940     2.2022940     0.2485340
  N        2.3184480    -1.3288730     0.3923020
  C        0.2041490    -0.2277810    -0.0328410
  C       -0.5292580     0.9782650     0.0721850
  C       -0.4780620    -1.4467680    -0.1744800
  C       -1.9322610     0.8976940     0.1244170
  C       -1.8678090    -1.5041600    -0.1507450
  C       -2.5929860    -0.3189550    -0.0016080
  C        1.6942170    -0.1960210    -0.0707790
  H        0.0963370    -2.3571300    -0.3293910
  H       -2.5048800     1.8176440     0.2323000
  H       -2.3796530    -2.4547020    -0.2729900
  H       -3.6801520    -0.3414970     0.0246030
  H        1.0340450     2.2328410    -0.1623240
  H       -0.4673770     3.0011870     0.0009920
  H        1.8426920    -1.9076120     1.0707290
  H        3.3240540    -1.2501130     0.4893940
units angstrom
no_reorient  #important for SAPT in psi4, default
symmetry c1  #important for SAPT in psi4, default
}

set PROPERTIES_ORIGIN ["COM"]
properties('MP2/aug-cc-pvtz', properties = ['dipole'])
--------------------------------------------------------------------------

    Molecular point group: c1
  Charge       = 0
  Multiplicity = 1
  Basis Set: AUG-CC-PVTZ
    Blend: AUG-CC-PVTZ
  Basis Set: (AUG-CC-PVTZ AUX)
    Blend: AUG-CC-PVTZ-JKFIT

    Orbital Energies [Eh]
    ---------------------

    Doubly Occupied:

       1A    -20.523237     2A    -15.579126     3A    -15.565442
       4A    -11.361585     5A    -11.300795     6A    -11.259271
       7A    -11.256318     8A    -11.249165     9A    -11.237317
      10A    -11.234788    11A     -1.379556    12A     -1.231926
      13A     -1.204155    14A     -1.139984    15A     -1.039835
      16A     -1.001705    17A     -0.879960    18A     -0.836259
      19A     -0.790514    20A     -0.734317    21A     -0.699972
      22A     -0.691337    23A     -0.670453    24A     -0.635211
      25A     -0.611558    26A     -0.605811    27A     -0.589449
      28A     -0.574866    29A     -0.540345    30A     -0.526122
      31A     -0.512661    32A     -0.458520    33A     -0.434660
      34A     -0.413019    35A     -0.355489    36A     -0.306782

  @DF-RHF Final Energy:  -453.68356326153395

   => Energetics <=

    Nuclear Repulsion Energy =            498.7309437373224341
    One-Electron Energy =               -1605.9659924425402551
    Two-Electron Energy =                 653.5514854436839869
    Total Energy =                       -453.6835632615338909
  Basis Set: (AUG-CC-PVTZ AUX)
    Blend: AUG-CC-PVTZ-RI
    Molecular point group: c1

    Geometry (in Angstrom), charge = 0, multiplicity = 1:

       Center              X                  Y                   Z               Mass
    ------------   -----------------  -----------------  -----------------  -----------------
         O            2.421626587032     0.687304311150    -0.483373845609    15.994914619570
         N            0.072781787032     2.201111311150     0.252719154391    14.003074004430
         N            2.286035787032    -1.330055688850     0.396487154391    14.003074004430
         C            0.171736787032    -0.228963688850    -0.028655845609    12.000000000000
         C           -0.561670212968     0.977082311150     0.076370154391    12.000000000000
         C           -0.510474212968    -1.447950688850    -0.170294845609    12.000000000000
         C           -1.964673212968     0.896511311150     0.128602154391    12.000000000000
         C           -1.900221212968    -1.505342688850    -0.146559845609    12.000000000000
         C           -2.625398212968    -0.320137688850     0.002577154391    12.000000000000
         C            1.661804787032    -0.197203688850    -0.066593845609    12.000000000000
         H            0.063924787032    -2.358312688850    -0.325205845609     1.007825032230
         H           -2.537292212968     1.816461311150     0.236485154391     1.007825032230
         H           -2.412065212968    -2.455884688850    -0.268804845609     1.007825032230
         H           -3.712564212968    -0.342679688850     0.028788154391     1.007825032230
         H            1.001632787032     2.231658311150    -0.158138845609     1.007825032230
         H           -0.499789212968     3.000004311150     0.005177154391     1.007825032230
         H            1.810279787032    -1.908794688850     1.074914154391     1.007825032230
         H            3.291641787032    -1.251295688850     0.493579154391     1.007825032230

  Basis Set: AUG-CC-PVTZ
    Blend: AUG-CC-PVTZ
  Basis Set: (AUG-CC-PVTZ AUX)
    Blend: AUG-CC-PVTZ-JKFIT
	 Reference Energy          =    -453.6835632615339478 [Eh]
	 Singles Energy            =      -0.0000000000000000 [Eh]
	 Same-Spin Energy          =      -0.4859018132301905 [Eh]
	 Opposite-Spin Energy      =      -1.4787397141077643 [Eh]
	 Correlation Energy        =      -1.9646415273379549 [Eh]
	 Total Energy              =    -455.6482047888719080 [Eh]

	 ================> DF-SCS-MP2 Energies <==================
	-----------------------------------------------------------
	 SCS Same-Spin Scale       =       0.3333333333333333 [-]
	 SCS Opposite-Spin Scale   =       1.2000000000000000 [-]
	 SCS Same-Spin Energy      =      -0.1619672710767302 [Eh]
	 SCS Opposite-Spin Energy  =      -1.7744876569293171 [Eh]
	 SCS Correlation Energy    =      -1.9364549280060472 [Eh]
	 SCS Total Energy          =    -455.6200181895400192 [Eh]
	-----------------------------------------------------------

  Dipole Moment: [D]
     X:    -1.5765      Y:    -1.1691      Z:     0.9981     Total:     2.2019

*** Psi4 exiting successfully. Buy a developer a beer!
