                               Psi4 1.4a3.dev225

  ==> Input File <==

--------------------------------------------------------------------------
#psi4
#
memory 32 gb

molecule  {
0 1
  O        2.3476870     0.7564740    -0.5170070
  N        0.1051940     2.2022940     0.2485340
  N        2.3184480    -1.3288730     0.3923020
  C        0.2041490    -0.2277810    -0.0328410
  C       -0.5292580     0.9782650     0.0721850
  C       -0.4780620    -1.4467680    -0.1744800
  C       -1.9322610     0.8976940     0.1244170
  C       -1.8678090    -1.5041600    -0.1507450
  C       -2.5929860    -0.3189550    -0.0016080
  C        1.6942170    -0.1960210    -0.0707790
  H        0.0963370    -2.3571300    -0.3293910
  H       -2.5048800     1.8176440     0.2323000
  H       -2.3796530    -2.4547020    -0.2729900
  H       -3.6801520    -0.3414970     0.0246030
  H        1.0340450     2.2328410    -0.1623240
  H       -0.4673770     3.0011870     0.0009920
  H        1.9054807    -1.9202660     1.1002979
  H        3.3240540    -1.2501130     0.4893940
units angstrom
no_reorient  #important for SAPT in psi4, default
symmetry c1  #important for SAPT in psi4, default
}

set PROPERTIES_ORIGIN ["COM"]
properties('MP2/aug-cc-pvtz', properties = ['dipole'])
--------------------------------------------------------------------------

    Molecular point group: c1
  Charge       = 0
  Multiplicity = 1
  Basis Set: AUG-CC-PVTZ
    Blend: AUG-CC-PVTZ
  Basis Set: (AUG-CC-PVTZ AUX)
    Blend: AUG-CC-PVTZ-JKFIT

    Orbital Energies [Eh]
    ---------------------

    Doubly Occupied:

       1A    -20.527339     2A    -15.587557     3A    -15.559996
       4A    -11.365043     5A    -11.296903     6A    -11.255405
       7A    -11.252982     8A    -11.243992     9A    -11.234221
      10A    -11.231629    11A     -1.380776    12A     -1.227012
      13A     -1.213817    14A     -1.136775    15A     -1.036438
      16A     -0.998234    17A     -0.877913    18A     -0.833766
      19A     -0.795253    20A     -0.734371    21A     -0.696853
      22A     -0.687713    23A     -0.672544    24A     -0.638326
      25A     -0.608330    26A     -0.603754    27A     -0.586400
      28A     -0.574667    29A     -0.539153    30A     -0.523420
      31A     -0.509570    32A     -0.454832    33A     -0.436869
      34A     -0.420894    35A     -0.351799    36A     -0.302964

  @DF-RHF Final Energy:  -453.68608949715014

   => Energetics <=

    Nuclear Repulsion Energy =            499.6107733525679464
    One-Electron Energy =               -1607.7987050727642782
    Two-Electron Energy =                 654.5018422230460828
    Total Energy =                       -453.6860894971501921
  Basis Set: (AUG-CC-PVTZ AUX)
    Blend: AUG-CC-PVTZ-RI
    Molecular point group: c1

    Geometry (in Angstrom), charge = 0, multiplicity = 1:

       Center              X                  Y                   Z               Mass
    ------------   -----------------  -----------------  -----------------  -----------------
         O            2.327311857785     0.747392852300    -0.509579113797    15.994914619570
         N            0.084818857785     2.193212852300     0.255961886203    14.003074004430
         N            2.298072857785    -1.337954147700     0.399729886203    14.003074004430
         C            0.183773857785    -0.236862147700    -0.025413113797    12.000000000000
         C           -0.549633142215     0.969183852300     0.079612886203    12.000000000000
         C           -0.498437142215    -1.455849147700    -0.167052113797    12.000000000000
         C           -1.952636142215     0.888612852300     0.131844886203    12.000000000000
         C           -1.888184142215    -1.513241147700    -0.143317113797    12.000000000000
         C           -2.613361142215    -0.328036147700     0.005819886203    12.000000000000
         C            1.673841857785    -0.205102147700    -0.063351113797    12.000000000000
         H            0.075961857785    -2.366211147700    -0.321963113797     1.007825032230
         H           -2.525255142215     1.808562852300     0.239727886203     1.007825032230
         H           -2.400028142215    -2.463783147700    -0.265562113797     1.007825032230
         H           -3.700527142215    -0.350578147700     0.032030886203     1.007825032230
         H            1.013669857785     2.223759852300    -0.154896113797     1.007825032230
         H           -0.487752142215     2.992105852300     0.008419886203     1.007825032230
         H            1.885105557785    -1.929347147700     1.107725786203     1.007825032230
         H            3.303678857785    -1.259194147700     0.496821886203     1.007825032230

  Basis Set: AUG-CC-PVTZ
    Blend: AUG-CC-PVTZ
  Basis Set: (AUG-CC-PVTZ AUX)
    Blend: AUG-CC-PVTZ-JKFIT
	 Reference Energy          =    -453.6860894971501352 [Eh]
	 Singles Energy            =      -0.0000000000000000 [Eh]
	 Same-Spin Energy          =      -0.4861211327207489 [Eh]
	 Opposite-Spin Energy      =      -1.4788659801668687 [Eh]
	 Correlation Energy        =      -1.9649871128876175 [Eh]
	 Total Energy              =    -455.6510766100377623 [Eh]

	 ================> DF-SCS-MP2 Energies <==================
	-----------------------------------------------------------
	 SCS Same-Spin Scale       =       0.3333333333333333 [-]
	 SCS Opposite-Spin Scale   =       1.2000000000000000 [-]
	 SCS Same-Spin Energy      =      -0.1620403775735829 [Eh]
	 SCS Opposite-Spin Energy  =      -1.7746391762002423 [Eh]
	 SCS Correlation Energy    =      -1.9366795537738253 [Eh]
	 SCS Total Energy          =    -455.6227690509239778 [Eh]
	-----------------------------------------------------------

  Dipole Moment: [D]
     X:    -1.0757      Y:    -1.3577      Z:     1.0976     Total:     2.0507

*** Psi4 exiting successfully. Buy a developer a beer!
