                               Psi4 1.4a3.dev225

  ==> Input File <==

--------------------------------------------------------------------------
#psi4
#
memory 32 gb

molecule  {
0 1
  O        2.3476870     0.7564740    -0.5170070
  N        0.1051940     2.2022940     0.2485340
  N        2.3184480    -1.3288730     0.3923020
  C        0.2041490    -0.2277810    -0.0328410
  C       -0.5292580     0.9782650     0.0721850
  C       -0.4780620    -1.4467680    -0.1744800
  C       -1.9322610     0.8976940     0.1244170
  C       -1.8678090    -1.5041600    -0.1507450
  C       -2.5929860    -0.3189550    -0.0016080
  C        1.6942170    -0.1960210    -0.0707790
  H        0.0963370    -2.3571300    -0.3293910
  H       -2.5048800     1.8176440     0.2323000
  H       -2.3796530    -2.4547020    -0.2729900
  H       -3.6801520    -0.3414970     0.0246030
  H        1.2168679     2.2388535    -0.2431919
  H       -0.4673770     3.0011870     0.0009920
  H        1.8426920    -1.9076120     1.0707290
  H        3.3240540    -1.2501130     0.4893940
units angstrom
no_reorient  #important for SAPT in psi4, default
symmetry c1  #important for SAPT in psi4, default
}

set PROPERTIES_ORIGIN ["COM"]
properties('MP2/aug-cc-pvtz', properties = ['dipole'])
--------------------------------------------------------------------------

    Molecular point group: c1
  Charge       = 0
  Multiplicity = 1
  Basis Set: AUG-CC-PVTZ
    Blend: AUG-CC-PVTZ
  Basis Set: (AUG-CC-PVTZ AUX)
    Blend: AUG-CC-PVTZ-JKFIT

    Orbital Energies [Eh]
    ---------------------

    Doubly Occupied:

       1A    -20.530746     2A    -15.590030     3A    -15.567554
       4A    -11.367175     5A    -11.295664     6A    -11.255393
       7A    -11.252363     8A    -11.242962     9A    -11.232752
      10A    -11.230504    11A     -1.384886    12A     -1.217700
      13A     -1.210935    14A     -1.129713    15A     -1.035809
      16A     -0.991205    17A     -0.875146    18A     -0.831667
      19A     -0.790181    20A     -0.736188    21A     -0.697211
      22A     -0.677119    23A     -0.662875    24A     -0.636394
      25A     -0.607661    26A     -0.599441    27A     -0.577961
      28A     -0.564596    29A     -0.539213    30A     -0.521316
      31A     -0.508802    32A     -0.450437    33A     -0.433566
      34A     -0.423312    35A     -0.351693    36A     -0.299047

  @DF-RHF Final Energy:  -453.65780355323682

   => Energetics <=

    Nuclear Repulsion Energy =            499.0253031848707792
    One-Electron Energy =               -1606.7277775679804108
    Two-Electron Energy =                 654.0446708298727572
    Total Energy =                       -453.6578035532368176
  Basis Set: (AUG-CC-PVTZ AUX)
    Blend: AUG-CC-PVTZ-RI
    Molecular point group: c1

    Geometry (in Angstrom), charge = 0, multiplicity = 1:

       Center              X                  Y                   Z               Mass
    ------------   -----------------  -----------------  -----------------  -----------------
         O            2.326422763159     0.747254589331    -0.508761107217    15.994914619570
         N            0.083929763159     2.193074589331     0.256779892783    14.003074004430
         N            2.297183763159    -1.338092410669     0.400547892783    14.003074004430
         C            0.182884763159    -0.237000410669    -0.024595107217    12.000000000000
         C           -0.550522236841     0.969045589331     0.080430892783    12.000000000000
         C           -0.499326236841    -1.455987410669    -0.166234107217    12.000000000000
         C           -1.953525236841     0.888474589331     0.132662892783    12.000000000000
         C           -1.889073236841    -1.513379410669    -0.142499107217    12.000000000000
         C           -2.614250236841    -0.328174410669     0.006637892783    12.000000000000
         C            1.672952763159    -0.205240410669    -0.062533107217    12.000000000000
         H            0.075072763159    -2.366349410669    -0.321145107217     1.007825032230
         H           -2.526144236841     1.808424589331     0.240545892783     1.007825032230
         H           -2.400917236841    -2.463921410669    -0.264744107217     1.007825032230
         H           -3.701416236841    -0.350716410669     0.032848892783     1.007825032230
         H            1.195603663159     2.229634089331    -0.234946007217     1.007825032230
         H           -0.488641236841     2.991967589331     0.009237892783     1.007825032230
         H            1.821427763159    -1.916831410669     1.078974892783     1.007825032230
         H            3.302789763159    -1.259332410669     0.497639892783     1.007825032230

  Basis Set: AUG-CC-PVTZ
    Blend: AUG-CC-PVTZ
  Basis Set: (AUG-CC-PVTZ AUX)
    Blend: AUG-CC-PVTZ-JKFIT
	 Reference Energy          =    -453.6578035532368176 [Eh]
	 Singles Energy            =      -0.0000000000000000 [Eh]
	 Same-Spin Energy          =      -0.4882413978207115 [Eh]
	 Opposite-Spin Energy      =      -1.4830789462226175 [Eh]
	 Correlation Energy        =      -1.9713203440433289 [Eh]
	 Total Energy              =    -455.6291238972801239 [Eh]

	 ================> DF-SCS-MP2 Energies <==================
	-----------------------------------------------------------
	 SCS Same-Spin Scale       =       0.3333333333333333 [-]
	 SCS Opposite-Spin Scale   =       1.2000000000000000 [-]
	 SCS Same-Spin Energy      =      -0.1627471326069038 [Eh]
	 SCS Opposite-Spin Energy  =      -1.7796947354671409 [Eh]
	 SCS Correlation Energy    =      -1.9424418680740447 [Eh]
	 SCS Total Energy          =    -455.6002454213108877 [Eh]
	-----------------------------------------------------------

  Dipole Moment: [D]
     X:    -0.8048      Y:    -1.4444      Z:     0.9878     Total:     1.9260

*** Psi4 exiting successfully. Buy a developer a beer!
