                               Psi4 1.4a3.dev225

  ==> Input File <==

--------------------------------------------------------------------------
#psi4
#
memory 32 gb

molecule  {
0 1
  O        2.3476870     0.7564740    -0.5170070
  N        0.1051940     2.2022940     0.2485340
  N        2.3184480    -1.3288730     0.3923020
  C        0.2041490    -0.2277810    -0.0328410
  C       -0.5292580     0.9782650     0.0721850
  C       -0.4780620    -1.4467680    -0.1744800
  C       -1.9322610     0.8976940     0.1244170
  C       -1.7469757    -1.4219348    -0.1449138
  C       -2.5929860    -0.3189550    -0.0016080
  C        1.6942170    -0.1960210    -0.0707790
  H        0.0963370    -2.3571300    -0.3293910
  H       -2.5048800     1.8176440     0.2323000
  H       -2.3796530    -2.4547020    -0.2729900
  H       -3.6801520    -0.3414970     0.0246030
  H        1.0340450     2.2328410    -0.1623240
  H       -0.4673770     3.0011870     0.0009920
  H        1.8426920    -1.9076120     1.0707290
  H        3.3240540    -1.2501130     0.4893940
units angstrom
no_reorient  #important for SAPT in psi4, default
symmetry c1  #important for SAPT in psi4, default
}

set PROPERTIES_ORIGIN ["COM"]
properties('MP2/aug-cc-pvtz', properties = ['dipole'])
--------------------------------------------------------------------------

    Molecular point group: c1
  Charge       = 0
  Multiplicity = 1
  Basis Set: AUG-CC-PVTZ
    Blend: AUG-CC-PVTZ
  Basis Set: (AUG-CC-PVTZ AUX)
    Blend: AUG-CC-PVTZ-JKFIT

    Orbital Energies [Eh]
    ---------------------

    Doubly Occupied:

       1A    -20.524370     2A    -15.586805     3A    -15.559229
       4A    -11.361240     5A    -11.295988     6A    -11.255815
       7A    -11.240517     8A    -11.238792     9A    -11.237820
      10A    -11.230337    11A     -1.378314    12A     -1.228520
      13A     -1.213317    14A     -1.153061    15A     -1.041242
      16A     -1.004309    17A     -0.885102    18A     -0.829410
      19A     -0.788392    20A     -0.733321    21A     -0.703794
      22A     -0.691983    23A     -0.669592    24A     -0.626794
      25A     -0.619828    26A     -0.608223    27A     -0.585087
      28A     -0.578135    29A     -0.539768    30A     -0.531630
      31A     -0.478644    32A     -0.465092    33A     -0.432664
      34A     -0.419673    35A     -0.355273    36A     -0.307404

  @DF-RHF Final Energy:  -453.65768957032839

   => Energetics <=

    Nuclear Repulsion Energy =            502.6123653155715374
    One-Electron Energy =               -1613.7411449570970490
    Two-Electron Energy =                 657.4710900711970680
    Total Energy =                       -453.6576895703283299
  Basis Set: (AUG-CC-PVTZ AUX)
    Blend: AUG-CC-PVTZ-RI
    Molecular point group: c1

    Geometry (in Angstrom), charge = 0, multiplicity = 1:

       Center              X                  Y                   Z               Mass
    ------------   -----------------  -----------------  -----------------  -----------------
         O            2.317120161141     0.740047353901    -0.509874373542    15.994914619570
         N            0.074627161141     2.185867353901     0.255666626458    14.003074004430
         N            2.287881161141    -1.345299646099     0.399434626458    14.003074004430
         C            0.173582161141    -0.244207646099    -0.025708373542    12.000000000000
         C           -0.559824838859     0.961838353901     0.079317626458    12.000000000000
         C           -0.508628838859    -1.463194646099    -0.167347373542    12.000000000000
         C           -1.962827838859     0.881267353901     0.131549626458    12.000000000000
         C           -1.777542538859    -1.438361446099    -0.137781173542    12.000000000000
         C           -2.623552838859    -0.335381646099     0.005524626458    12.000000000000
         C            1.663650161141    -0.212447646099    -0.063646373542    12.000000000000
         H            0.065770161141    -2.373556646099    -0.322258373542     1.007825032230
         H           -2.535446838859     1.801217353901     0.239432626458     1.007825032230
         H           -2.410219838859    -2.471128646099    -0.265857373542     1.007825032230
         H           -3.710718838859    -0.357923646099     0.031735626458     1.007825032230
         H            1.003478161141     2.216414353901    -0.155191373542     1.007825032230
         H           -0.497943838859     2.984760353901     0.008124626458     1.007825032230
         H            1.812125161141    -1.924038646099     1.077861626458     1.007825032230
         H            3.293487161141    -1.266539646099     0.496526626458     1.007825032230

  Basis Set: AUG-CC-PVTZ
    Blend: AUG-CC-PVTZ
  Basis Set: (AUG-CC-PVTZ AUX)
    Blend: AUG-CC-PVTZ-JKFIT
	 Reference Energy          =    -453.6576895703283867 [Eh]
	 Singles Energy            =      -0.0000000000000000 [Eh]
	 Same-Spin Energy          =      -0.4867621636225611 [Eh]
	 Opposite-Spin Energy      =      -1.4798825516229845 [Eh]
	 Correlation Energy        =      -1.9666447152455455 [Eh]
	 Total Energy              =    -455.6243342855739229 [Eh]

	 ================> DF-SCS-MP2 Energies <==================
	-----------------------------------------------------------
	 SCS Same-Spin Scale       =       0.3333333333333333 [-]
	 SCS Opposite-Spin Scale   =       1.2000000000000000 [-]
	 SCS Same-Spin Energy      =      -0.1622540545408537 [Eh]
	 SCS Opposite-Spin Energy  =      -1.7758590619475814 [Eh]
	 SCS Correlation Energy    =      -1.9381131164884351 [Eh]
	 SCS Total Energy          =    -455.5958026868167963 [Eh]
	-----------------------------------------------------------

  Dipole Moment: [D]
     X:    -1.2040      Y:    -1.2659      Z:     1.0813     Total:     2.0546

*** Psi4 exiting successfully. Buy a developer a beer!
