                               Psi4 1.4a3.dev225

  ==> Input File <==

--------------------------------------------------------------------------
#psi4
#
memory 32 gb

molecule  {
0 1
  O        2.3476870     0.7564740    -0.5170070
  N        0.1051940     2.2022940     0.2485340
  N        2.3184480    -1.3288730     0.3923020
  C        0.2041490    -0.2277810    -0.0328410
  C       -0.5292580     0.9782650     0.0721850
  C       -0.4780620    -1.4467680    -0.1744800
  C       -1.9322610     0.8976940     0.1244170
  C       -1.8678090    -1.5041600    -0.1507450
  C       -2.5929860    -0.3189550    -0.0016080
  C        1.6942170    -0.1960210    -0.0707790
  H        0.0963370    -2.3571300    -0.3293910
  H       -2.5048800     1.8176440     0.2323000
  H       -2.3796530    -2.4547020    -0.2729900
  H       -3.6801520    -0.3414970     0.0246030
  H        1.0340450     2.2328410    -0.1623240
  H       -0.4673770     3.0011870     0.0009920
  H        1.8121481    -1.9002233     1.0546955
  H        3.3240540    -1.2501130     0.4893940
units angstrom
no_reorient  #important for SAPT in psi4, default
symmetry c1  #important for SAPT in psi4, default
}

set PROPERTIES_ORIGIN ["COM"]
properties('MP2/aug-cc-pvtz', properties = ['dipole'])
--------------------------------------------------------------------------

    Molecular point group: c1
  Charge       = 0
  Multiplicity = 1
  Basis Set: AUG-CC-PVTZ
    Blend: AUG-CC-PVTZ
  Basis Set: (AUG-CC-PVTZ AUX)
    Blend: AUG-CC-PVTZ-JKFIT

    Orbital Energies [Eh]
    ---------------------

    Doubly Occupied:

       1A    -20.526025     2A    -15.587767     3A    -15.560149
       4A    -11.363098     5A    -11.297325     6A    -11.256209
       7A    -11.253438     8A    -11.244601     9A    -11.234811
      10A    -11.232392    11A     -1.379989    12A     -1.227286
      13A     -1.214527    14A     -1.137256    15A     -1.036745
      16A     -0.998761    17A     -0.877072    18A     -0.833876
      19A     -0.791675    20A     -0.737416    21A     -0.699866
      22A     -0.688058    23A     -0.673983    24A     -0.637633
      25A     -0.609372    26A     -0.604341    27A     -0.586318
      28A     -0.575582    29A     -0.539647    30A     -0.523556
      31A     -0.510265    32A     -0.455306    33A     -0.435176
      34A     -0.420293    35A     -0.352454    36A     -0.303393

  @DF-RHF Final Energy:  -453.68652154991497

   => Energetics <=

    Nuclear Repulsion Energy =            499.8318055011659453
    One-Electron Energy =               -1608.2253322229194055
    Two-Electron Energy =                 654.7070051718385457
    Total Energy =                       -453.6865215499149144
  Basis Set: (AUG-CC-PVTZ AUX)
    Blend: AUG-CC-PVTZ-RI
    Molecular point group: c1

    Geometry (in Angstrom), charge = 0, multiplicity = 1:

       Center              X                  Y                   Z               Mass
    ------------   -----------------  -----------------  -----------------  -----------------
         O            2.328003173369     0.747244395803    -0.509241336324    15.994914619570
         N            0.085510173369     2.193064395803     0.256299663676    14.003074004430
         N            2.298764173369    -1.338102604197     0.400067663676    14.003074004430
         C            0.184465173369    -0.237010604197    -0.025075336324    12.000000000000
         C           -0.548941826631     0.969035395803     0.079950663676    12.000000000000
         C           -0.497745826631    -1.455997604197    -0.166714336324    12.000000000000
         C           -1.951944826631     0.888464395803     0.132182663676    12.000000000000
         C           -1.887492826631    -1.513389604197    -0.142979336324    12.000000000000
         C           -2.612669826631    -0.328184604197     0.006157663676    12.000000000000
         C            1.674533173369    -0.205250604197    -0.063013336324    12.000000000000
         H            0.076653173369    -2.366359604197    -0.321625336324     1.007825032230
         H           -2.524563826631     1.808414395803     0.240065663676     1.007825032230
         H           -2.399336826631    -2.463931604197    -0.265224336324     1.007825032230
         H           -3.699835826631    -0.350726604197     0.032368663676     1.007825032230
         H            1.014361173369     2.223611395803    -0.154558336324     1.007825032230
         H           -0.487060826631     2.991957395803     0.008757663676     1.007825032230
         H            1.792464273369    -1.909452904197     1.062461163676     1.007825032230
         H            3.304370173369    -1.259342604197     0.497159663676     1.007825032230

  Basis Set: AUG-CC-PVTZ
    Blend: AUG-CC-PVTZ
  Basis Set: (AUG-CC-PVTZ AUX)
    Blend: AUG-CC-PVTZ-JKFIT
	 Reference Energy          =    -453.6865215499149713 [Eh]
	 Singles Energy            =      -0.0000000000000000 [Eh]
	 Same-Spin Energy          =      -0.4862415514326583 [Eh]
	 Opposite-Spin Energy      =      -1.4789409416450110 [Eh]
	 Correlation Energy        =      -1.9651824930776693 [Eh]
	 Total Energy              =    -455.6517040429926624 [Eh]

	 ================> DF-SCS-MP2 Energies <==================
	-----------------------------------------------------------
	 SCS Same-Spin Scale       =       0.3333333333333333 [-]
	 SCS Opposite-Spin Scale   =       1.2000000000000000 [-]
	 SCS Same-Spin Energy      =      -0.1620805171442194 [Eh]
	 SCS Opposite-Spin Energy  =      -1.7747291299740131 [Eh]
	 SCS Correlation Energy    =      -1.9368096471182326 [Eh]
	 SCS Total Energy          =    -455.6233311970332238 [Eh]
	-----------------------------------------------------------

  Dipole Moment: [D]
     X:    -1.1547      Y:    -1.3520      Z:     1.0419     Total:     2.0608

*** Psi4 exiting successfully. Buy a developer a beer!
