                               Psi4 1.4a3.dev225

  ==> Input File <==

--------------------------------------------------------------------------
#psi4
#
memory 32 gb

molecule  {
0 1
  O        2.3476870     0.7564740    -0.5170070
  N        0.1897977     2.1562845     0.2368191
  N        2.3184480    -1.3288730     0.3923020
  C        0.2041490    -0.2277810    -0.0328410
  C       -0.5292580     0.9782650     0.0721850
  C       -0.4780620    -1.4467680    -0.1744800
  C       -1.9322610     0.8976940     0.1244170
  C       -1.8678090    -1.5041600    -0.1507450
  C       -2.5929860    -0.3189550    -0.0016080
  C        1.6942170    -0.1960210    -0.0707790
  H        0.0963370    -2.3571300    -0.3293910
  H       -2.5048800     1.8176440     0.2323000
  H       -2.3796530    -2.4547020    -0.2729900
  H       -3.6801520    -0.3414970     0.0246030
  H        1.0340450     2.2328410    -0.1623240
  H       -0.4673770     3.0011870     0.0009920
  H        1.8426920    -1.9076120     1.0707290
  H        3.3240540    -1.2501130     0.4893940
units angstrom
no_reorient  #important for SAPT in psi4, default
symmetry c1  #important for SAPT in psi4, default
}

set PROPERTIES_ORIGIN ["COM"]
properties('MP2/aug-cc-pvtz', properties = ['dipole'])
--------------------------------------------------------------------------

    Molecular point group: c1
  Charge       = 0
  Multiplicity = 1
  Basis Set: AUG-CC-PVTZ
    Blend: AUG-CC-PVTZ
  Basis Set: (AUG-CC-PVTZ AUX)
    Blend: AUG-CC-PVTZ-JKFIT

    Orbital Energies [Eh]
    ---------------------

    Doubly Occupied:

       1A    -20.524929     2A    -15.586986     3A    -15.561306
       4A    -11.362645     5A    -11.298095     6A    -11.255571
       7A    -11.254647     8A    -11.242843     9A    -11.237118
      10A    -11.232525    11A     -1.379306    12A     -1.228638
      13A     -1.213598    14A     -1.137908    15A     -1.036563
      16A     -1.000522    17A     -0.878716    18A     -0.832406
      19A     -0.796005    20A     -0.736467    21A     -0.703829
      22A     -0.692346    23A     -0.663048    24A     -0.642103
      25A     -0.611206    26A     -0.599125    27A     -0.583099
      28A     -0.575072    29A     -0.540154    30A     -0.524912
      31A     -0.506817    32A     -0.455992    33A     -0.435450
      34A     -0.419331    35A     -0.352471    36A     -0.304121

  @DF-RHF Final Energy:  -453.67280447730576

   => Energetics <=

    Nuclear Repulsion Energy =            500.5312233718972834
    One-Electron Energy =               -1609.5963124376648921
    Two-Electron Energy =                 655.3922845884617345
    Total Energy =                       -453.6728044773058173
  Basis Set: (AUG-CC-PVTZ AUX)
    Blend: AUG-CC-PVTZ-RI
    Molecular point group: c1

    Geometry (in Angstrom), charge = 0, multiplicity = 1:

       Center              X                  Y                   Z               Mass
    ------------   -----------------  -----------------  -----------------  -----------------
         O            2.319069893510     0.752034219452    -0.508154450628    15.994914619570
         N            0.161180593510     2.151844719452     0.245671649372    14.003074004430
         N            2.289830893510    -1.333312780548     0.401154549372    14.003074004430
         C            0.175531893510    -0.232220780548    -0.023988450628    12.000000000000
         C           -0.557875106490     0.973825219452     0.081037549372    12.000000000000
         C           -0.506679106490    -1.451207780548    -0.165627450628    12.000000000000
         C           -1.960878106490     0.893254219452     0.133269549372    12.000000000000
         C           -1.896426106490    -1.508599780548    -0.141892450628    12.000000000000
         C           -2.621603106490    -0.323394780548     0.007244549372    12.000000000000
         C            1.665599893510    -0.200460780548    -0.061926450628    12.000000000000
         H            0.067719893510    -2.361569780548    -0.320538450628     1.007825032230
         H           -2.533497106490     1.813204219452     0.241152549372     1.007825032230
         H           -2.408270106490    -2.459141780548    -0.264137450628     1.007825032230
         H           -3.708769106490    -0.345936780548     0.033455549372     1.007825032230
         H            1.005427893510     2.228401219452    -0.153471450628     1.007825032230
         H           -0.495994106490     2.996747219452     0.009844549372     1.007825032230
         H            1.814074893510    -1.912051780548     1.079581549372     1.007825032230
         H            3.295436893510    -1.254552780548     0.498246549372     1.007825032230

  Basis Set: AUG-CC-PVTZ
    Blend: AUG-CC-PVTZ
  Basis Set: (AUG-CC-PVTZ AUX)
    Blend: AUG-CC-PVTZ-JKFIT
	 Reference Energy          =    -453.6728044773057604 [Eh]
	 Singles Energy            =      -0.0000000000000000 [Eh]
	 Same-Spin Energy          =      -0.4863793790516797 [Eh]
	 Opposite-Spin Energy      =      -1.4796259507266050 [Eh]
	 Correlation Energy        =      -1.9660053297782847 [Eh]
	 Total Energy              =    -455.6388098070840442 [Eh]

	 ================> DF-SCS-MP2 Energies <==================
	-----------------------------------------------------------
	 SCS Same-Spin Scale       =       0.3333333333333333 [-]
	 SCS Opposite-Spin Scale   =       1.2000000000000000 [-]
	 SCS Same-Spin Energy      =      -0.1621264596838932 [Eh]
	 SCS Opposite-Spin Energy  =      -1.7755511408719260 [Eh]
	 SCS Correlation Energy    =      -1.9376776005558192 [Eh]
	 SCS Total Energy          =    -455.6104820778616045 [Eh]
	-----------------------------------------------------------

  Dipole Moment: [D]
     X:    -1.2320      Y:    -1.3258      Z:     1.0772     Total:     2.1061

*** Psi4 exiting successfully. Buy a developer a beer!
