                               Psi4 1.4a3.dev225

  ==> Input File <==

--------------------------------------------------------------------------
#psi4
#
memory 32 gb

molecule  {
0 1
  O        2.3476870     0.7564740    -0.5170070
  N        0.1051940     2.2022940     0.2485340
  N        2.3184480    -1.3288730     0.3923020
  C        0.2041490    -0.2277810    -0.0328410
  C       -0.5292580     0.9782650     0.0721850
  C       -0.4780620    -1.4467680    -0.1744800
  C       -1.9322610     0.8976940     0.1244170
  C       -1.8678090    -1.5041600    -0.1507450
  C       -2.5929860    -0.3189550    -0.0016080
  C        1.6942170    -0.1960210    -0.0707790
  H        0.0963370    -2.3571300    -0.3293910
  H       -2.5048800     1.8176440     0.2323000
  H       -2.3796530    -2.4547020    -0.2729900
  H       -3.6801520    -0.3414970     0.0246030
  H        1.0797507     2.2343441    -0.1825410
  H       -0.4673770     3.0011870     0.0009920
  H        1.8426920    -1.9076120     1.0707290
  H        3.3240540    -1.2501130     0.4893940
units angstrom
no_reorient  #important for SAPT in psi4, default
symmetry c1  #important for SAPT in psi4, default
}

set PROPERTIES_ORIGIN ["COM"]
properties('MP2/aug-cc-pvtz', properties = ['dipole'])
--------------------------------------------------------------------------

    Molecular point group: c1
  Charge       = 0
  Multiplicity = 1
  Basis Set: AUG-CC-PVTZ
    Blend: AUG-CC-PVTZ
  Basis Set: (AUG-CC-PVTZ AUX)
    Blend: AUG-CC-PVTZ-JKFIT

    Orbital Energies [Eh]
    ---------------------

    Doubly Occupied:

       1A    -20.527307     2A    -15.588203     3A    -15.562881
       4A    -11.364456     5A    -11.296856     6A    -11.255795
       7A    -11.253070     8A    -11.244036     9A    -11.234184
      10A    -11.231745    11A     -1.381226    12A     -1.222654
      13A     -1.214594    14A     -1.135091    15A     -1.036429
      16A     -0.996482    17A     -0.876609    18A     -0.833243
      19A     -0.791834    20A     -0.736165    21A     -0.698368
      22A     -0.682466    23A     -0.672167    24A     -0.637239
      25A     -0.608645    26A     -0.602489    27A     -0.583138
      28A     -0.575440    29A     -0.539421    30A     -0.523019
      31A     -0.509740    32A     -0.453985    33A     -0.435452
      34A     -0.421163    35A     -0.352096    36A     -0.302287

  @DF-RHF Final Energy:  -453.68304264450006

   => Energetics <=

    Nuclear Repulsion Energy =            499.5508350892536669
    One-Electron Energy =               -1607.7078057911887754
    Two-Electron Energy =                 654.4739280574349323
    Total Energy =                       -453.6830426445001194
  Basis Set: (AUG-CC-PVTZ AUX)
    Blend: AUG-CC-PVTZ-RI
    Molecular point group: c1

    Geometry (in Angstrom), charge = 0, multiplicity = 1:

       Center              X                  Y                   Z               Mass
    ------------   -----------------  -----------------  -----------------  -----------------
         O            2.327438391752     0.747287990506    -0.509210349094    15.994914619570
         N            0.084945391752     2.193107990506     0.256330650906    14.003074004430
         N            2.298199391752    -1.338059009494     0.400098650906    14.003074004430
         C            0.183900391752    -0.236967009494    -0.025044349094    12.000000000000
         C           -0.549506608248     0.969078990506     0.079981650906    12.000000000000
         C           -0.498310608248    -1.455954009494    -0.166683349094    12.000000000000
         C           -1.952509608248     0.888507990506     0.132213650906    12.000000000000
         C           -1.888057608248    -1.513346009494    -0.142948349094    12.000000000000
         C           -2.613234608248    -0.328141009494     0.006188650906    12.000000000000
         C            1.673968391752    -0.205207009494    -0.062982349094    12.000000000000
         H            0.076088391752    -2.366316009494    -0.321594349094     1.007825032230
         H           -2.525128608248     1.808457990506     0.240096650906     1.007825032230
         H           -2.399901608248    -2.463888009494    -0.265193349094     1.007825032230
         H           -3.700400608248    -0.350683009494     0.032399650906     1.007825032230
         H            1.059502091752     2.225158090506    -0.174744349094     1.007825032230
         H           -0.487625608248     2.992000990506     0.008788650906     1.007825032230
         H            1.822443391752    -1.916798009494     1.078525650906     1.007825032230
         H            3.303805391752    -1.259299009494     0.497190650906     1.007825032230

  Basis Set: AUG-CC-PVTZ
    Blend: AUG-CC-PVTZ
  Basis Set: (AUG-CC-PVTZ AUX)
    Blend: AUG-CC-PVTZ-JKFIT
	 Reference Energy          =    -453.6830426445000626 [Eh]
	 Singles Energy            =      -0.0000000000000000 [Eh]
	 Same-Spin Energy          =      -0.4866623806381942 [Eh]
	 Opposite-Spin Energy      =      -1.4798385698344170 [Eh]
	 Correlation Energy        =      -1.9665009504726112 [Eh]
	 Total Energy              =    -455.6495435949726698 [Eh]

	 ================> DF-SCS-MP2 Energies <==================
	-----------------------------------------------------------
	 SCS Same-Spin Scale       =       0.3333333333333333 [-]
	 SCS Opposite-Spin Scale   =       1.2000000000000000 [-]
	 SCS Same-Spin Energy      =      -0.1622207935460647 [Eh]
	 SCS Opposite-Spin Energy  =      -1.7758062838013002 [Eh]
	 SCS Correlation Energy    =      -1.9380270773473649 [Eh]
	 SCS Total Energy          =    -455.6210697218474479 [Eh]
	-----------------------------------------------------------

  Dipole Moment: [D]
     X:    -1.0552      Y:    -1.3704      Z:     1.0448     Total:     2.0207

*** Psi4 exiting successfully. Buy a developer a beer!
