                               Psi4 1.4a3.dev225

  ==> Input File <==

--------------------------------------------------------------------------
#psi4
#
memory 32 gb

molecule  {
0 1
  O        2.3476870     0.7564740    -0.5170070
  N        0.1051940     2.2022940     0.2485340
  N        2.3184480    -1.3288730     0.3923020
  C        0.2041490    -0.2277810    -0.0328410
  C       -0.5520813     0.9342326     0.0658411
  C       -0.4780620    -1.4467680    -0.1744800
  C       -1.9322610     0.8976940     0.1244170
  C       -1.8678090    -1.5041600    -0.1507450
  C       -2.5929860    -0.3189550    -0.0016080
  C        1.6942170    -0.1960210    -0.0707790
  H        0.0963370    -2.3571300    -0.3293910
  H       -2.5048800     1.8176440     0.2323000
  H       -2.3796530    -2.4547020    -0.2729900
  H       -3.6801520    -0.3414970     0.0246030
  H        1.0340450     2.2328410    -0.1623240
  H       -0.4673770     3.0011870     0.0009920
  H        1.8426920    -1.9076120     1.0707290
  H        3.3240540    -1.2501130     0.4893940
units angstrom
no_reorient  #important for SAPT in psi4, default
symmetry c1  #important for SAPT in psi4, default
}

set PROPERTIES_ORIGIN ["COM"]
properties('MP2/aug-cc-pvtz', properties = ['dipole'])
--------------------------------------------------------------------------

    Molecular point group: c1
  Charge       = 0
  Multiplicity = 1
  Basis Set: AUG-CC-PVTZ
    Blend: AUG-CC-PVTZ
  Basis Set: (AUG-CC-PVTZ AUX)
    Blend: AUG-CC-PVTZ-JKFIT

    Orbital Energies [Eh]
    ---------------------

    Doubly Occupied:

       1A    -20.527453     2A    -15.589302     3A    -15.553497
       4A    -11.365895     5A    -11.292634     6A    -11.257116
       7A    -11.254422     8A    -11.244945     9A    -11.235109
      10A    -11.234684    11A     -1.381025    12A     -1.217301
      13A     -1.211838    14A     -1.136237    15A     -1.040931
      16A     -1.002382    17A     -0.879909    18A     -0.836037
      19A     -0.793857    20A     -0.738263    21A     -0.697369
      22A     -0.681976    23A     -0.669206    24A     -0.636286
      25A     -0.611199    26A     -0.604158    27A     -0.586453
      28A     -0.576975    29A     -0.538527    30A     -0.523802
      31A     -0.512004    32A     -0.448174    33A     -0.437056
      34A     -0.421298    35A     -0.354036    36A     -0.309586

  @DF-RHF Final Energy:  -453.68379454568918

   => Energetics <=

    Nuclear Repulsion Energy =            500.0227339226382810
    One-Electron Energy =               -1608.6111706612427952
    Two-Electron Energy =                 654.9046421929152757
    Total Energy =                       -453.6837945456892385
  Basis Set: (AUG-CC-PVTZ AUX)
    Blend: AUG-CC-PVTZ-RI
    Molecular point group: c1

    Geometry (in Angstrom), charge = 0, multiplicity = 1:

       Center              X                  Y                   Z               Mass
    ------------   -----------------  -----------------  -----------------  -----------------
         O            2.329789812710     0.751182517896    -0.508800602655    15.994914619570
         N            0.087296812710     2.197002517896     0.256740397345    14.003074004430
         N            2.300550812710    -1.334164482104     0.400508397345    14.003074004430
         C            0.186251812710    -0.233072482104    -0.024634602655    12.000000000000
         C           -0.569978487290     0.928941117896     0.074047497345    12.000000000000
         C           -0.495959187290    -1.452059482104    -0.166273602655    12.000000000000
         C           -1.950158187290     0.892402517896     0.132623397345    12.000000000000
         C           -1.885706187290    -1.509451482104    -0.142538602655    12.000000000000
         C           -2.610883187290    -0.324246482104     0.006598397345    12.000000000000
         C            1.676319812710    -0.201312482104    -0.062572602655    12.000000000000
         H            0.078439812710    -2.362421482104    -0.321184602655     1.007825032230
         H           -2.522777187290     1.812352517896     0.240506397345     1.007825032230
         H           -2.397550187290    -2.459993482104    -0.264783602655     1.007825032230
         H           -3.698049187290    -0.346788482104     0.032809397345     1.007825032230
         H            1.016147812710     2.227549517896    -0.154117602655     1.007825032230
         H           -0.485274187290     2.995895517896     0.009198397345     1.007825032230
         H            1.824794812710    -1.912903482104     1.078935397345     1.007825032230
         H            3.306156812710    -1.255404482104     0.497600397345     1.007825032230

  Basis Set: AUG-CC-PVTZ
    Blend: AUG-CC-PVTZ
  Basis Set: (AUG-CC-PVTZ AUX)
    Blend: AUG-CC-PVTZ-JKFIT
	 Reference Energy          =    -453.6837945456891816 [Eh]
	 Singles Energy            =      -0.0000000000000000 [Eh]
	 Same-Spin Energy          =      -0.4860210756798674 [Eh]
	 Opposite-Spin Energy      =      -1.4790362909165751 [Eh]
	 Correlation Energy        =      -1.9650573665964424 [Eh]
	 Total Energy              =    -455.6488519122856360 [Eh]

	 ================> DF-SCS-MP2 Energies <==================
	-----------------------------------------------------------
	 SCS Same-Spin Scale       =       0.3333333333333333 [-]
	 SCS Opposite-Spin Scale   =       1.2000000000000000 [-]
	 SCS Same-Spin Energy      =      -0.1620070252266224 [Eh]
	 SCS Opposite-Spin Energy  =      -1.7748435490998899 [Eh]
	 SCS Correlation Energy    =      -1.9368505743265123 [Eh]
	 SCS Total Energy          =    -455.6206451200156948 [Eh]
	-----------------------------------------------------------

  Dipole Moment: [D]
     X:    -1.2395      Y:    -1.6634      Z:     1.0220     Total:     2.3125

*** Psi4 exiting successfully. Buy a developer a beer!
