                               Psi4 1.4a3.dev225

  ==> Input File <==

--------------------------------------------------------------------------
#psi4
#
memory 32 gb

molecule  {
0 1
  O        2.3476870     0.7564740    -0.5170070
  N        0.1051940     2.2022940     0.2485340
  N        2.3184480    -1.3288730     0.3923020
  C        0.2041490    -0.2277810    -0.0328410
  C       -0.5292580     0.9782650     0.0721850
  C       -0.4780620    -1.4467680    -0.1744800
  C       -1.9322610     0.8976940     0.1244170
  C       -1.8678090    -1.5041600    -0.1507450
  C       -2.5929860    -0.3189550    -0.0016080
  C        1.6942170    -0.1960210    -0.0707790
  H        0.0963370    -2.3571300    -0.3293910
  H       -2.5048800     1.8176440     0.2323000
  H       -2.3796530    -2.4547020    -0.2729900
  H       -3.6801520    -0.3414970     0.0246030
  H        0.9426335     2.2298348    -0.1218900
  H       -0.4673770     3.0011870     0.0009920
  H        1.8426920    -1.9076120     1.0707290
  H        3.3240540    -1.2501130     0.4893940
units angstrom
no_reorient  #important for SAPT in psi4, default
symmetry c1  #important for SAPT in psi4, default
}

set PROPERTIES_ORIGIN ["COM"]
properties('MP2/aug-cc-pvtz', properties = ['dipole'])
--------------------------------------------------------------------------

    Molecular point group: c1
  Charge       = 0
  Multiplicity = 1
  Basis Set: AUG-CC-PVTZ
    Blend: AUG-CC-PVTZ
  Basis Set: (AUG-CC-PVTZ AUX)
    Blend: AUG-CC-PVTZ-JKFIT

    Orbital Energies [Eh]
    ---------------------

    Doubly Occupied:

       1A    -20.525156     2A    -15.586945     3A    -15.552796
       4A    -11.362535     5A    -11.297735     6A    -11.256198
       7A    -11.253667     8A    -11.245074     9A    -11.235396
      10A    -11.232861    11A     -1.378617    12A     -1.239303
      13A     -1.213511    14A     -1.141381    15A     -1.037009
      16A     -1.003403    17A     -0.879119    18A     -0.834981
      19A     -0.796037    20A     -0.737440    21A     -0.703870
      22A     -0.698585    23A     -0.674706    24A     -0.639522
      25A     -0.610084    26A     -0.607431    27A     -0.589959
      28A     -0.574883    29A     -0.539610    30A     -0.524428
      31A     -0.510561    32A     -0.457394    33A     -0.435977
      34A     -0.419363    35A     -0.352485    36A     -0.305033

  @DF-RHF Final Energy:  -453.68023124936542

   => Energetics <=

    Nuclear Repulsion Energy =            500.2236159726542155
    One-Electron Energy =               -1608.9015859922128584
    Two-Electron Energy =                 654.9977387701932230
    Total Energy =                       -453.6802312493654199
  Basis Set: (AUG-CC-PVTZ AUX)
    Blend: AUG-CC-PVTZ-RI
    Molecular point group: c1

    Geometry (in Angstrom), charge = 0, multiplicity = 1:

       Center              X                  Y                   Z               Mass
    ------------   -----------------  -----------------  -----------------  -----------------
         O            2.328454020345     0.747321390941    -0.509659591711    15.994914619570
         N            0.085961020345     2.193141390941     0.255881408289    14.003074004430
         N            2.299215020345    -1.338025609059     0.399649408289    14.003074004430
         C            0.184916020345    -0.236933609059    -0.025493591711    12.000000000000
         C           -0.548490979655     0.969112390941     0.079532408289    12.000000000000
         C           -0.497294979655    -1.455920609059    -0.167132591711    12.000000000000
         C           -1.951493979655     0.888541390941     0.131764408289    12.000000000000
         C           -1.887041979655    -1.513312609059    -0.143397591711    12.000000000000
         C           -2.612218979655    -0.328107609059     0.005739408289    12.000000000000
         C            1.674984020345    -0.205173609059    -0.063431591711    12.000000000000
         H            0.077104020345    -2.366282609059    -0.322043591711     1.007825032230
         H           -2.524112979655     1.808491390941     0.239647408289     1.007825032230
         H           -2.398885979655    -2.463854609059    -0.265642591711     1.007825032230
         H           -3.699384979655    -0.350649609059     0.031950408289     1.007825032230
         H            0.923400520345     2.220682190941    -0.114542591711     1.007825032230
         H           -0.486609979655     2.992034390941     0.008339408289     1.007825032230
         H            1.823459020345    -1.916764609059     1.078076408289     1.007825032230
         H            3.304821020345    -1.259265609059     0.496741408289     1.007825032230

  Basis Set: AUG-CC-PVTZ
    Blend: AUG-CC-PVTZ
  Basis Set: (AUG-CC-PVTZ AUX)
    Blend: AUG-CC-PVTZ-JKFIT
	 Reference Energy          =    -453.6802312493654199 [Eh]
	 Singles Energy            =      -0.0000000000000000 [Eh]
	 Same-Spin Energy          =      -0.4853305846888306 [Eh]
	 Opposite-Spin Energy      =      -1.4772546304423360 [Eh]
	 Correlation Energy        =      -1.9625852151311665 [Eh]
	 Total Energy              =    -455.6428164644966046 [Eh]

	 ================> DF-SCS-MP2 Energies <==================
	-----------------------------------------------------------
	 SCS Same-Spin Scale       =       0.3333333333333333 [-]
	 SCS Opposite-Spin Scale   =       1.2000000000000000 [-]
	 SCS Same-Spin Energy      =      -0.1617768615629435 [Eh]
	 SCS Opposite-Spin Energy  =      -1.7727055565308032 [Eh]
	 SCS Correlation Energy    =      -1.9344824180937468 [Eh]
	 SCS Total Energy          =    -455.6147136674591707 [Eh]
	-----------------------------------------------------------

  Dipole Moment: [D]
     X:    -1.2614      Y:    -1.3371      Z:     1.0909     Total:     2.1375

*** Psi4 exiting successfully. Buy a developer a beer!
