                               Psi4 1.4a3.dev225

  ==> Input File <==

--------------------------------------------------------------------------
#psi4
#
memory 32 gb

molecule  {
0 1
  O        2.3476870     0.7564740    -0.5170070
  N        0.1051940     2.2022940     0.2485340
  N        2.3184480    -1.3288730     0.3923020
  C        0.2041490    -0.2277810    -0.0328410
  C       -0.5292580     0.9782650     0.0721850
  C       -0.4683444    -1.4294043    -0.1724624
  C       -1.9322610     0.8976940     0.1244170
  C       -1.8678090    -1.5041600    -0.1507450
  C       -2.5929860    -0.3189550    -0.0016080
  C        1.6942170    -0.1960210    -0.0707790
  H        0.0963370    -2.3571300    -0.3293910
  H       -2.5048800     1.8176440     0.2323000
  H       -2.3796530    -2.4547020    -0.2729900
  H       -3.6801520    -0.3414970     0.0246030
  H        1.0340450     2.2328410    -0.1623240
  H       -0.4673770     3.0011870     0.0009920
  H        1.8426920    -1.9076120     1.0707290
  H        3.3240540    -1.2501130     0.4893940
units angstrom
no_reorient  #important for SAPT in psi4, default
symmetry c1  #important for SAPT in psi4, default
}

set PROPERTIES_ORIGIN ["COM"]
properties('MP2/aug-cc-pvtz', properties = ['dipole'])
--------------------------------------------------------------------------

    Molecular point group: c1
  Charge       = 0
  Multiplicity = 1
  Basis Set: AUG-CC-PVTZ
    Blend: AUG-CC-PVTZ
  Basis Set: (AUG-CC-PVTZ AUX)
    Blend: AUG-CC-PVTZ-JKFIT

    Orbital Energies [Eh]
    ---------------------

    Doubly Occupied:

       1A    -20.527113     2A    -15.588092     3A    -15.560149
       4A    -11.364292     5A    -11.297121     6A    -11.255924
       7A    -11.252627     8A    -11.243545     9A    -11.233534
      10A    -11.232473    11A     -1.380864    12A     -1.227494
      13A     -1.214781    14A     -1.137632    15A     -1.039001
      16A     -0.996634    17A     -0.876563    18A     -0.834163
      19A     -0.793622    20A     -0.737273    21A     -0.698094
      22A     -0.687912    23A     -0.673832    24A     -0.638506
      25A     -0.608435    26A     -0.602533    27A     -0.587633
      28A     -0.575387    29A     -0.540013    30A     -0.523636
      31A     -0.509272    32A     -0.454896    33A     -0.436260
      34A     -0.420664    35A     -0.354504    36A     -0.301782

  @DF-RHF Final Energy:  -453.68623045732033

   => Energetics <=

    Nuclear Repulsion Energy =            500.0503365189687770
    One-Electron Energy =               -1608.6606299155391753
    Two-Electron Energy =                 654.9240629392500068
    Total Energy =                       -453.6862304573203346
  Basis Set: (AUG-CC-PVTZ AUX)
    Blend: AUG-CC-PVTZ-RI
    Molecular point group: c1

    Geometry (in Angstrom), charge = 0, multiplicity = 1:

       Center              X                  Y                   Z               Mass
    ------------   -----------------  -----------------  -----------------  -----------------
         O            2.326919900261     0.745767749659    -0.509538036867    15.994914619570
         N            0.084426900261     2.191587749659     0.256002963133    14.003074004430
         N            2.297680900261    -1.339579250341     0.399770963133    14.003074004430
         C            0.183381900261    -0.238487250341    -0.025372036867    12.000000000000
         C           -0.550025099739     0.967558749659     0.079653963133    12.000000000000
         C           -0.489111499739    -1.440110550341    -0.164993436867    12.000000000000
         C           -1.953028099739     0.886987749659     0.131885963133    12.000000000000
         C           -1.888576099739    -1.514866250341    -0.143276036867    12.000000000000
         C           -2.613753099739    -0.329661250341     0.005860963133    12.000000000000
         C            1.673449900261    -0.206727250341    -0.063310036867    12.000000000000
         H            0.075569900261    -2.367836250341    -0.321922036867     1.007825032230
         H           -2.525647099739     1.806937749659     0.239768963133     1.007825032230
         H           -2.400420099739    -2.465408250341    -0.265521036867     1.007825032230
         H           -3.700919099739    -0.352203250341     0.032071963133     1.007825032230
         H            1.013277900261     2.222134749659    -0.154855036867     1.007825032230
         H           -0.488144099739     2.990480749659     0.008460963133     1.007825032230
         H            1.821924900261    -1.918318250341     1.078197963133     1.007825032230
         H            3.303286900261    -1.260819250341     0.496862963133     1.007825032230

  Basis Set: AUG-CC-PVTZ
    Blend: AUG-CC-PVTZ
  Basis Set: (AUG-CC-PVTZ AUX)
    Blend: AUG-CC-PVTZ-JKFIT
	 Reference Energy          =    -453.6862304573203346 [Eh]
	 Singles Energy            =      -0.0000000000000000 [Eh]
	 Same-Spin Energy          =      -0.4862110385765084 [Eh]
	 Opposite-Spin Energy      =      -1.4789041711537121 [Eh]
	 Correlation Energy        =      -1.9651152097302205 [Eh]
	 Total Energy              =    -455.6513456670505775 [Eh]

	 ================> DF-SCS-MP2 Energies <==================
	-----------------------------------------------------------
	 SCS Same-Spin Scale       =       0.3333333333333333 [-]
	 SCS Opposite-Spin Scale   =       1.2000000000000000 [-]
	 SCS Same-Spin Energy      =      -0.1620703461921695 [Eh]
	 SCS Opposite-Spin Energy  =      -1.7746850053844545 [Eh]
	 SCS Correlation Energy    =      -1.9367553515766240 [Eh]
	 SCS Total Energy          =    -455.6229858088969422 [Eh]
	-----------------------------------------------------------

  Dipole Moment: [D]
     X:    -1.1006      Y:    -1.3581      Z:     1.0613     Total:     2.0450

*** Psi4 exiting successfully. Buy a developer a beer!
