                               Psi4 1.4a3.dev225

  ==> Input File <==

--------------------------------------------------------------------------
#psi4
#
memory 32 gb

molecule  {
0 1
  O        2.3476870     0.7564740    -0.5170070
  N        0.1051940     2.2022940     0.2485340
  N        2.3184480    -1.3288730     0.3923020
  C        0.2041490    -0.2277810    -0.0328410
  C       -0.5292580     0.9782650     0.0721850
  C       -0.4780620    -1.4467680    -0.1744800
  C       -1.9322610     0.8976940     0.1244170
  C       -1.8678090    -1.5041600    -0.1507450
  C       -2.5929860    -0.3189550    -0.0016080
  C        1.7154897    -0.1850148    -0.0719088
  H        0.0963370    -2.3571300    -0.3293910
  H       -2.5048800     1.8176440     0.2323000
  H       -2.3796530    -2.4547020    -0.2729900
  H       -3.6801520    -0.3414970     0.0246030
  H        1.0340450     2.2328410    -0.1623240
  H       -0.4673770     3.0011870     0.0009920
  H        1.8426920    -1.9076120     1.0707290
  H        3.3240540    -1.2501130     0.4893940
units angstrom
no_reorient  #important for SAPT in psi4, default
symmetry c1  #important for SAPT in psi4, default
}

set PROPERTIES_ORIGIN ["COM"]
properties('MP2/aug-cc-pvtz', properties = ['dipole'])
--------------------------------------------------------------------------

    Molecular point group: c1
  Charge       = 0
  Multiplicity = 1
  Basis Set: AUG-CC-PVTZ
    Blend: AUG-CC-PVTZ
  Basis Set: (AUG-CC-PVTZ AUX)
    Blend: AUG-CC-PVTZ-JKFIT

    Orbital Energies [Eh]
    ---------------------

    Doubly Occupied:

       1A    -20.530256     2A    -15.587148     3A    -15.559591
       4A    -11.363461     5A    -11.295180     6A    -11.254250
       7A    -11.251519     8A    -11.244059     9A    -11.233471
      10A    -11.231052    11A     -1.393683    12A     -1.226530
      13A     -1.215995    14A     -1.135591    15A     -1.033253
      16A     -0.996972    17A     -0.873538    18A     -0.831982
      19A     -0.793096    20A     -0.737067    21A     -0.697864
      22A     -0.687403    23A     -0.672540    24A     -0.641662
      25A     -0.608202    26A     -0.603677    27A     -0.588525
      28A     -0.577659    29A     -0.540267    30A     -0.524107
      31A     -0.508918    32A     -0.454356    33A     -0.437213
      34A     -0.422805    35A     -0.350734    36A     -0.302093

  @DF-RHF Final Energy:  -453.68763325551379

   => Energetics <=

    Nuclear Repulsion Energy =            499.7014519708196758
    One-Electron Energy =               -1607.9667341764422872
    Two-Electron Energy =                 654.5776489501087099
    Total Energy =                       -453.6876332555137878
  Basis Set: (AUG-CC-PVTZ AUX)
    Blend: AUG-CC-PVTZ-RI
    Molecular point group: c1

    Geometry (in Angstrom), charge = 0, multiplicity = 1:

       Center              X                  Y                   Z               Mass
    ------------   -----------------  -----------------  -----------------  -----------------
         O            2.325900809660     0.746328443075    -0.509260455041    15.994914619570
         N            0.083407809660     2.192148443075     0.256280544959    14.003074004430
         N            2.296661809660    -1.339018556925     0.400048544959    14.003074004430
         C            0.182362809660    -0.237926556925    -0.025094455041    12.000000000000
         C           -0.551044190340     0.968119443075     0.079931544959    12.000000000000
         C           -0.499848190340    -1.456913556925    -0.166733455041    12.000000000000
         C           -1.954047190340     0.887548443075     0.132163544959    12.000000000000
         C           -1.889595190340    -1.514305556925    -0.142998455041    12.000000000000
         C           -2.614772190340    -0.329100556925     0.006138544959    12.000000000000
         C            1.693703509660    -0.195160356925    -0.064162255041    12.000000000000
         H            0.074550809660    -2.367275556925    -0.321644455041     1.007825032230
         H           -2.526666190340     1.807498443075     0.240046544959     1.007825032230
         H           -2.401439190340    -2.464847556925    -0.265243455041     1.007825032230
         H           -3.701938190340    -0.351642556925     0.032349544959     1.007825032230
         H            1.012258809660     2.222695443075    -0.154577455041     1.007825032230
         H           -0.489163190340     2.991041443075     0.008738544959     1.007825032230
         H            1.820905809660    -1.917757556925     1.078475544959     1.007825032230
         H            3.302267809660    -1.260258556925     0.497140544959     1.007825032230

  Basis Set: AUG-CC-PVTZ
    Blend: AUG-CC-PVTZ
  Basis Set: (AUG-CC-PVTZ AUX)
    Blend: AUG-CC-PVTZ-JKFIT
	 Reference Energy          =    -453.6876332555137878 [Eh]
	 Singles Energy            =      -0.0000000000000000 [Eh]
	 Same-Spin Energy          =      -0.4856934896600087 [Eh]
	 Opposite-Spin Energy      =      -1.4779283462057820 [Eh]
	 Correlation Energy        =      -1.9636218358657906 [Eh]
	 Total Energy              =    -455.6512550913795963 [Eh]

	 ================> DF-SCS-MP2 Energies <==================
	-----------------------------------------------------------
	 SCS Same-Spin Scale       =       0.3333333333333333 [-]
	 SCS Opposite-Spin Scale   =       1.2000000000000000 [-]
	 SCS Same-Spin Energy      =      -0.1618978298866696 [Eh]
	 SCS Opposite-Spin Energy  =      -1.7735140154469382 [Eh]
	 SCS Correlation Energy    =      -1.9354118453336078 [Eh]
	 SCS Total Energy          =    -455.6230451008473779 [Eh]
	-----------------------------------------------------------

  Dipole Moment: [D]
     X:    -0.9694      Y:    -1.3052      Z:     1.0305     Total:     1.9249

*** Psi4 exiting successfully. Buy a developer a beer!
