                               Psi4 1.4a3.dev225

  ==> Input File <==

--------------------------------------------------------------------------
#psi4
#
memory 32 gb

molecule  {
0 1
  O        2.3476870     0.7564740    -0.5170070
  N        0.1051940     2.2022940     0.2485340
  N        2.3184480    -1.3288730     0.3923020
  C        0.2041490    -0.2277810    -0.0328410
  C       -0.5064347     1.0222974     0.0785289
  C       -0.4780620    -1.4467680    -0.1744800
  C       -1.9322610     0.8976940     0.1244170
  C       -1.8678090    -1.5041600    -0.1507450
  C       -2.5929860    -0.3189550    -0.0016080
  C        1.6942170    -0.1960210    -0.0707790
  H        0.0963370    -2.3571300    -0.3293910
  H       -2.5048800     1.8176440     0.2323000
  H       -2.3796530    -2.4547020    -0.2729900
  H       -3.6801520    -0.3414970     0.0246030
  H        1.0340450     2.2328410    -0.1623240
  H       -0.4673770     3.0011870     0.0009920
  H        1.8426920    -1.9076120     1.0707290
  H        3.3240540    -1.2501130     0.4893940
units angstrom
no_reorient  #important for SAPT in psi4, default
symmetry c1  #important for SAPT in psi4, default
}

set PROPERTIES_ORIGIN ["COM"]
properties('MP2/aug-cc-pvtz', properties = ['dipole'])
--------------------------------------------------------------------------

    Molecular point group: c1
  Charge       = 0
  Multiplicity = 1
  Basis Set: AUG-CC-PVTZ
    Blend: AUG-CC-PVTZ
  Basis Set: (AUG-CC-PVTZ AUX)
    Blend: AUG-CC-PVTZ-JKFIT

    Orbital Energies [Eh]
    ---------------------

    Doubly Occupied:

       1A    -20.525423     2A    -15.586045     3A    -15.567355
       4A    -11.361497     5A    -11.302025     6A    -11.254699
       7A    -11.252097     8A    -11.243601     9A    -11.234419
      10A    -11.228600    11A     -1.379453    12A     -1.246299
      13A     -1.212826    14A     -1.135514    15A     -1.032447
      16A     -0.994205    17A     -0.874577    18A     -0.832374
      19A     -0.792331    20A     -0.734812    21A     -0.704234
      22A     -0.695303    23A     -0.676158    24A     -0.639581
      25A     -0.610977    26A     -0.598436    27A     -0.585849
      28A     -0.573398    29A     -0.541085    30A     -0.525851
      31A     -0.504655    32A     -0.460845    33A     -0.434045
      34A     -0.419489    35A     -0.350443    36A     -0.296513

  @DF-RHF Final Energy:  -453.68302821503363

   => Energetics <=

    Nuclear Repulsion Energy =            499.5318033074581763
    One-Electron Energy =               -1607.6147418108864713
    Two-Electron Energy =                 654.3999102883946080
    Total Energy =                       -453.6830282150336870
  Basis Set: (AUG-CC-PVTZ AUX)
    Blend: AUG-CC-PVTZ-RI
    Molecular point group: c1

    Geometry (in Angstrom), charge = 0, multiplicity = 1:

       Center              X                  Y                   Z               Mass
    ------------   -----------------  -----------------  -----------------  -----------------
         O            2.325764056028     0.743415730073    -0.509919590611    15.994914619570
         N            0.083271056028     2.189235730073     0.255621409389    14.003074004430
         N            2.296525056028    -1.341931269927     0.399389409389    14.003074004430
         C            0.182226056028    -0.240839269927    -0.025753590611    12.000000000000
         C           -0.528357643972     1.009239130073     0.085616309389    12.000000000000
         C           -0.499984943972    -1.459826269927    -0.167392590611    12.000000000000
         C           -1.954183943972     0.884635730073     0.131504409389    12.000000000000
         C           -1.889731943972    -1.517218269927    -0.143657590611    12.000000000000
         C           -2.614908943972    -0.332013269927     0.005479409389    12.000000000000
         C            1.672294056028    -0.209079269927    -0.063691590611    12.000000000000
         H            0.074414056028    -2.370188269927    -0.322303590611     1.007825032230
         H           -2.526802943972     1.804585730073     0.239387409389     1.007825032230
         H           -2.401575943972    -2.467760269927    -0.265902590611     1.007825032230
         H           -3.702074943972    -0.354555269927     0.031690409389     1.007825032230
         H            1.012122056028     2.219782730073    -0.155236590611     1.007825032230
         H           -0.489299943972     2.988128730073     0.008079409389     1.007825032230
         H            1.820769056028    -1.920670269927     1.077816409389     1.007825032230
         H            3.302131056028    -1.263171269927     0.496481409389     1.007825032230

  Basis Set: AUG-CC-PVTZ
    Blend: AUG-CC-PVTZ
  Basis Set: (AUG-CC-PVTZ AUX)
    Blend: AUG-CC-PVTZ-JKFIT
	 Reference Energy          =    -453.6830282150336302 [Eh]
	 Singles Energy            =      -0.0000000000000000 [Eh]
	 Same-Spin Energy          =      -0.4864611097927373 [Eh]
	 Opposite-Spin Energy      =      -1.4789867990491130 [Eh]
	 Correlation Energy        =      -1.9654479088418504 [Eh]
	 Total Energy              =    -455.6484761238754686 [Eh]

	 ================> DF-SCS-MP2 Energies <==================
	-----------------------------------------------------------
	 SCS Same-Spin Scale       =       0.3333333333333333 [-]
	 SCS Opposite-Spin Scale   =       1.2000000000000000 [-]
	 SCS Same-Spin Energy      =      -0.1621537032642457 [Eh]
	 SCS Opposite-Spin Energy  =      -1.7747841588589355 [Eh]
	 SCS Correlation Energy    =      -1.9369378621231812 [Eh]
	 SCS Total Energy          =    -455.6199660771567892 [Eh]
	-----------------------------------------------------------

  Dipole Moment: [D]
     X:    -1.0084      Y:    -1.0244      Z:     1.1044     Total:     1.8127

*** Psi4 exiting successfully. Buy a developer a beer!
