                               Psi4 1.4a3.dev225

  ==> Input File <==

--------------------------------------------------------------------------
#psi4
#
memory 32 gb

molecule  {
0 1
  O        2.3476870     0.7564740    -0.5170070
  N        0.1051940     2.2022940     0.2485340
  N        2.3184480    -1.3288730     0.3923020
  C        0.2041490    -0.2277810    -0.0328410
  C       -0.5292580     0.9782650     0.0721850
  C       -0.4780620    -1.4467680    -0.1744800
  C       -1.9322610     0.8976940     0.1244170
  C       -1.8678090    -1.5041600    -0.1507450
  C       -2.5929860    -0.3189550    -0.0016080
  C        1.6942170    -0.1960210    -0.0707790
  H        0.0963370    -2.3571300    -0.3293910
  H       -2.5048800     1.8176440     0.2323000
  H       -2.3796530    -2.4547020    -0.2729900
  H       -3.7301267    -0.3425332     0.0258079
  H        1.0340450     2.2328410    -0.1623240
  H       -0.4673770     3.0011870     0.0009920
  H        1.8426920    -1.9076120     1.0707290
  H        3.3240540    -1.2501130     0.4893940
units angstrom
no_reorient  #important for SAPT in psi4, default
symmetry c1  #important for SAPT in psi4, default
}

set PROPERTIES_ORIGIN ["COM"]
properties('MP2/aug-cc-pvtz', properties = ['dipole'])
--------------------------------------------------------------------------

    Molecular point group: c1
  Charge       = 0
  Multiplicity = 1
  Basis Set: AUG-CC-PVTZ
    Blend: AUG-CC-PVTZ
  Basis Set: (AUG-CC-PVTZ AUX)
    Blend: AUG-CC-PVTZ-JKFIT

    Orbital Energies [Eh]
    ---------------------

    Doubly Occupied:

       1A    -20.526604     2A    -15.587856     3A    -15.560303
       4A    -11.363882     5A    -11.297517     6A    -11.258983
       7A    -11.256280     8A    -11.244576     9A    -11.235059
      10A    -11.232607    11A     -1.380386    12A     -1.227411
      13A     -1.214387    14A     -1.137022    15A     -1.035661
      16A     -0.998859    17A     -0.875021    18A     -0.834042
      19A     -0.792254    20A     -0.736511    21A     -0.697637
      22A     -0.683969    23A     -0.673713    24A     -0.637956
      25A     -0.607829    26A     -0.603600    27A     -0.586339
      28A     -0.575281    29A     -0.537786    30A     -0.521859
      31A     -0.509439    32A     -0.455394    33A     -0.435816
      34A     -0.420614    35A     -0.352479    36A     -0.303512

  @DF-RHF Final Energy:  -453.68419470066084

   => Energetics <=

    Nuclear Repulsion Energy =            499.5041787113732994
    One-Electron Energy =               -1607.5798588096943149
    Two-Electron Energy =                 654.3914853976602899
    Total Energy =                       -453.6841947006607825
  Basis Set: (AUG-CC-PVTZ AUX)
    Blend: AUG-CC-PVTZ-RI
    Molecular point group: c1

    Geometry (in Angstrom), charge = 0, multiplicity = 1:

       Center              X                  Y                   Z               Mass
    ------------   -----------------  -----------------  -----------------  -----------------
         O            2.328147097516     0.747306799129    -0.509369021340    15.994914619570
         N            0.085654097516     2.193126799129     0.256171978660    14.003074004430
         N            2.298908097516    -1.338040200871     0.399939978660    14.003074004430
         C            0.184609097516    -0.236948200871    -0.025203021340    12.000000000000
         C           -0.548797902484     0.969097799129     0.079822978660    12.000000000000
         C           -0.497601902484    -1.455935200871    -0.166842021340    12.000000000000
         C           -1.951800902484     0.888526799129     0.132054978660    12.000000000000
         C           -1.887348902484    -1.513327200871    -0.143107021340    12.000000000000
         C           -2.612525902484    -0.328122200871     0.006029978660    12.000000000000
         C            1.674677097516    -0.205188200871    -0.063141021340    12.000000000000
         H            0.076797097516    -2.366297200871    -0.321753021340     1.007825032230
         H           -2.524419902484     1.808476799129     0.239937978660     1.007825032230
         H           -2.399192902484    -2.463869200871    -0.265352021340     1.007825032230
         H           -3.749666602484    -0.351700400871     0.033445878660     1.007825032230
         H            1.014505097516     2.223673799129    -0.154686021340     1.007825032230
         H           -0.486916902484     2.992019799129     0.008629978660     1.007825032230
         H            1.823152097516    -1.916779200871     1.078366978660     1.007825032230
         H            3.304514097516    -1.259280200871     0.497031978660     1.007825032230

  Basis Set: AUG-CC-PVTZ
    Blend: AUG-CC-PVTZ
  Basis Set: (AUG-CC-PVTZ AUX)
    Blend: AUG-CC-PVTZ-JKFIT
	 Reference Energy          =    -453.6841947006608393 [Eh]
	 Singles Energy            =      -0.0000000000000000 [Eh]
	 Same-Spin Energy          =      -0.4862865039163526 [Eh]
	 Opposite-Spin Energy      =      -1.4793163873273469 [Eh]
	 Correlation Energy        =      -1.9656028912436996 [Eh]
	 Total Energy              =    -455.6497975919045302 [Eh]

	 ================> DF-SCS-MP2 Energies <==================
	-----------------------------------------------------------
	 SCS Same-Spin Scale       =       0.3333333333333333 [-]
	 SCS Opposite-Spin Scale   =       1.2000000000000000 [-]
	 SCS Same-Spin Energy      =      -0.1620955013054509 [Eh]
	 SCS Opposite-Spin Energy  =      -1.7751796647928162 [Eh]
	 SCS Correlation Energy    =      -1.9372751660982670 [Eh]
	 SCS Total Energy          =    -455.6214698667591279 [Eh]
	-----------------------------------------------------------

  Dipole Moment: [D]
     X:    -1.1053      Y:    -1.3537      Z:     1.0612     Total:     2.0446

*** Psi4 exiting successfully. Buy a developer a beer!
