                               Psi4 1.4a3.dev225

  ==> Input File <==

--------------------------------------------------------------------------
#psi4
#
memory 32 gb

molecule  {
0 1
  O        2.3476870     0.7564740    -0.5170070
  N        0.1478979     2.1792773     0.2479820
  N        2.3184480    -1.3288730     0.3923020
  C        0.2041490    -0.2277810    -0.0328410
  C       -0.5292580     0.9782650     0.0721850
  C       -0.4780620    -1.4467680    -0.1744800
  C       -1.9322610     0.8976940     0.1244170
  C       -1.8678090    -1.5041600    -0.1507450
  C       -2.5929860    -0.3189550    -0.0016080
  C        1.6942170    -0.1960210    -0.0707790
  H        0.0963370    -2.3571300    -0.3293910
  H       -2.5048800     1.8176440     0.2323000
  H       -2.3796530    -2.4547020    -0.2729900
  H       -3.6801520    -0.3414970     0.0246030
  H        1.0340450     2.2328410    -0.1623240
  H       -0.4673770     3.0011870     0.0009920
  H        1.8426920    -1.9076120     1.0707290
  H        3.3240540    -1.2501130     0.4893940
units angstrom
no_reorient  #important for SAPT in psi4, default
symmetry c1  #important for SAPT in psi4, default
}

set PROPERTIES_ORIGIN ["COM"]
properties('MP2/aug-cc-pvtz', properties = ['dipole'])
--------------------------------------------------------------------------

    Molecular point group: c1
  Charge       = 0
  Multiplicity = 1
  Basis Set: AUG-CC-PVTZ
    Blend: AUG-CC-PVTZ
  Basis Set: (AUG-CC-PVTZ AUX)
    Blend: AUG-CC-PVTZ-JKFIT

    Orbital Energies [Eh]
    ---------------------

    Doubly Occupied:

       1A    -20.525685     2A    -15.587352     3A    -15.561108
       4A    -11.363188     5A    -11.297330     6A    -11.255744
       7A    -11.253956     8A    -11.243604     9A    -11.235845
      10A    -11.232361    11A     -1.379744    12A     -1.227386
      13A     -1.213908    14A     -1.137246    15A     -1.036580
      16A     -0.999122    17A     -0.877902    18A     -0.832573
      19A     -0.794217    20A     -0.736043    21A     -0.697048
      22A     -0.693160    23A     -0.668259    24A     -0.639907
      25A     -0.608846    26A     -0.602472    27A     -0.585907
      28A     -0.575154    29A     -0.539993    30A     -0.524171
      31A     -0.508552    32A     -0.455669    33A     -0.435640
      34A     -0.419922    35A     -0.352324    36A     -0.303816

  @DF-RHF Final Energy:  -453.68305244914438

   => Energetics <=

    Nuclear Repulsion Energy =            500.1061916007082004
    One-Electron Energy =               -1608.7750273787255537
    Two-Electron Energy =                 654.9857833288730262
    Total Energy =                       -453.6830524491443839
  Basis Set: (AUG-CC-PVTZ AUX)
    Blend: AUG-CC-PVTZ-RI
    Molecular point group: c1

    Geometry (in Angstrom), charge = 0, multiplicity = 1:

       Center              X                  Y                   Z               Mass
    ------------   -----------------  -----------------  -----------------  -----------------
         O            2.323382036721     0.749667901560    -0.509303287220    15.994914619570
         N            0.123592936721     2.172471201560     0.255685712780    14.003074004430
         N            2.294143036721    -1.335679098440     0.400005712780    14.003074004430
         C            0.179844036721    -0.234587098440    -0.025137287220    12.000000000000
         C           -0.553562963279     0.971458901560     0.079888712780    12.000000000000
         C           -0.502366963279    -1.453574098440    -0.166776287220    12.000000000000
         C           -1.956565963279     0.890887901560     0.132120712780    12.000000000000
         C           -1.892113963279    -1.510966098440    -0.143041287220    12.000000000000
         C           -2.617290963279    -0.325761098440     0.006095712780    12.000000000000
         C            1.669912036721    -0.202827098440    -0.063075287220    12.000000000000
         H            0.072032036721    -2.363936098440    -0.321687287220     1.007825032230
         H           -2.529184963279     1.810837901560     0.240003712780     1.007825032230
         H           -2.403957963279    -2.461508098440    -0.265286287220     1.007825032230
         H           -3.704456963279    -0.348303098440     0.032306712780     1.007825032230
         H            1.009740036721     2.226034901560    -0.154620287220     1.007825032230
         H           -0.491681963279     2.994380901560     0.008695712780     1.007825032230
         H            1.818387036721    -1.914418098440     1.078432712780     1.007825032230
         H            3.299749036721    -1.256919098440     0.497097712780     1.007825032230

  Basis Set: AUG-CC-PVTZ
    Blend: AUG-CC-PVTZ
  Basis Set: (AUG-CC-PVTZ AUX)
    Blend: AUG-CC-PVTZ-JKFIT
	 Reference Energy          =    -453.6830524491443839 [Eh]
	 Singles Energy            =      -0.0000000000000000 [Eh]
	 Same-Spin Energy          =      -0.4862566499795078 [Eh]
	 Opposite-Spin Energy      =      -1.4791739711074465 [Eh]
	 Correlation Energy        =      -1.9654306210869543 [Eh]
	 Total Energy              =    -455.6484830702313502 [Eh]

	 ================> DF-SCS-MP2 Energies <==================
	-----------------------------------------------------------
	 SCS Same-Spin Scale       =       0.3333333333333333 [-]
	 SCS Opposite-Spin Scale   =       1.2000000000000000 [-]
	 SCS Same-Spin Energy      =      -0.1620855499931693 [Eh]
	 SCS Opposite-Spin Energy  =      -1.7750087653289357 [Eh]
	 SCS Correlation Energy    =      -1.9370943153221050 [Eh]
	 SCS Total Energy          =    -455.6201467644664831 [Eh]
	-----------------------------------------------------------

  Dipole Moment: [D]
     X:    -1.1822      Y:    -1.3419      Z:     1.0599     Total:     2.0788

*** Psi4 exiting successfully. Buy a developer a beer!
