                               Psi4 1.4a3.dev225

  ==> Input File <==

--------------------------------------------------------------------------
#psi4
#
memory 32 gb

molecule  {
0 1
  O        2.3476870     0.7564740    -0.5170070
  N        0.1051940     2.2022940     0.2485340
  N        2.3184480    -1.3288730     0.3923020
  C        0.2041490    -0.2277810    -0.0328410
  C       -0.5292580     0.9782650     0.0721850
  C       -0.4780620    -1.4467680    -0.1744800
  C       -1.9322610     0.8976940     0.1244170
  C       -1.7862870    -1.4507332    -0.1470355
  C       -2.5929860    -0.3189550    -0.0016080
  C        1.6942170    -0.1960210    -0.0707790
  H        0.0963370    -2.3571300    -0.3293910
  H       -2.5048800     1.8176440     0.2323000
  H       -2.3796530    -2.4547020    -0.2729900
  H       -3.6801520    -0.3414970     0.0246030
  H        1.0340450     2.2328410    -0.1623240
  H       -0.4673770     3.0011870     0.0009920
  H        1.8426920    -1.9076120     1.0707290
  H        3.3240540    -1.2501130     0.4893940
units angstrom
no_reorient  #important for SAPT in psi4, default
symmetry c1  #important for SAPT in psi4, default
}

set PROPERTIES_ORIGIN ["COM"]
properties('MP2/aug-cc-pvtz', properties = ['dipole'])
--------------------------------------------------------------------------

    Molecular point group: c1
  Charge       = 0
  Multiplicity = 1
  Basis Set: AUG-CC-PVTZ
    Blend: AUG-CC-PVTZ
  Basis Set: (AUG-CC-PVTZ AUX)
    Blend: AUG-CC-PVTZ-JKFIT

    Orbital Energies [Eh]
    ---------------------

    Doubly Occupied:

       1A    -20.524965     2A    -15.587014     3A    -15.559377
       4A    -11.361966     5A    -11.296235     6A    -11.254635
       7A    -11.243946     8A    -11.241365     9A    -11.237267
      10A    -11.230755    11A     -1.378854    12A     -1.227773
      13A     -1.213514    14A     -1.147158    15A     -1.038808
      16A     -1.002658    17A     -0.882445    18A     -0.830495
      19A     -0.789728    20A     -0.734054    21A     -0.701939
      22A     -0.690499    23A     -0.670613    24A     -0.629656
      25A     -0.614298    26A     -0.608255    27A     -0.585487
      28A     -0.577091    29A     -0.538543    30A     -0.528990
      31A     -0.491642    32A     -0.461706    33A     -0.434055
      34A     -0.419894    35A     -0.353680    36A     -0.306166

  @DF-RHF Final Energy:  -453.67400478954931

   => Energetics <=

    Nuclear Repulsion Energy =            501.6254029561847005
    One-Electron Energy =               -1611.8077618814606922
    Two-Electron Energy =                 656.5083541357266768
    Total Energy =                       -453.6740047895493717
  Basis Set: (AUG-CC-PVTZ AUX)
    Blend: AUG-CC-PVTZ-RI
    Molecular point group: c1

    Geometry (in Angstrom), charge = 0, multiplicity = 1:

       Center              X                  Y                   Z               Mass
    ------------   -----------------  -----------------  -----------------  -----------------
         O            2.320587182313     0.742587200269    -0.509687252312    15.994914619570
         N            0.078094182313     2.188407200269     0.255853747688    14.003074004430
         N            2.291348182313    -1.342759799731     0.399621747688    14.003074004430
         C            0.177049182313    -0.241667799731    -0.025521252312    12.000000000000
         C           -0.556357817687     0.964378200269     0.079504747688    12.000000000000
         C           -0.505161817687    -1.460654799731    -0.167160252312    12.000000000000
         C           -1.959360817687     0.883807200269     0.131736747688    12.000000000000
         C           -1.813386817687    -1.464619999731    -0.139715752312    12.000000000000
         C           -2.620085817687    -0.332841799731     0.005711747688    12.000000000000
         C            1.667117182313    -0.209907799731    -0.063459252312    12.000000000000
         H            0.069237182313    -2.371016799731    -0.322071252312     1.007825032230
         H           -2.531979817687     1.803757200269     0.239619747688     1.007825032230
         H           -2.406752817687    -2.468588799731    -0.265670252312     1.007825032230
         H           -3.707251817687    -0.355383799731     0.031922747688     1.007825032230
         H            1.006945182313     2.218954200269    -0.155004252312     1.007825032230
         H           -0.494476817687     2.987300200269     0.008311747688     1.007825032230
         H            1.815592182313    -1.921498799731     1.078048747688     1.007825032230
         H            3.296954182313    -1.263999799731     0.496713747688     1.007825032230

  Basis Set: AUG-CC-PVTZ
    Blend: AUG-CC-PVTZ
  Basis Set: (AUG-CC-PVTZ AUX)
    Blend: AUG-CC-PVTZ-JKFIT
	 Reference Energy          =    -453.6740047895493149 [Eh]
	 Singles Energy            =      -0.0000000000000000 [Eh]
	 Same-Spin Energy          =      -0.4865073293709127 [Eh]
	 Opposite-Spin Energy      =      -1.4792533890541062 [Eh]
	 Correlation Energy        =      -1.9657607184250190 [Eh]
	 Total Energy              =    -455.6397655079743458 [Eh]

	 ================> DF-SCS-MP2 Energies <==================
	-----------------------------------------------------------
	 SCS Same-Spin Scale       =       0.3333333333333333 [-]
	 SCS Opposite-Spin Scale   =       1.2000000000000000 [-]
	 SCS Same-Spin Energy      =      -0.1621691097903042 [Eh]
	 SCS Opposite-Spin Energy  =      -1.7751040668649274 [Eh]
	 SCS Correlation Energy    =      -1.9372731766552316 [Eh]
	 SCS Total Energy          =    -455.6112779662045682 [Eh]
	-----------------------------------------------------------

  Dipole Moment: [D]
     X:    -1.1899      Y:    -1.3090      Z:     1.0730     Total:     2.0689

*** Psi4 exiting successfully. Buy a developer a beer!
