                               Psi4 1.4a3.dev225

  ==> Input File <==

--------------------------------------------------------------------------
#psi4
#
memory 32 gb

molecule  {
0 1
  O        2.3476870     0.7564740    -0.5170070
  N        0.1051940     2.2022940     0.2485340
  N        2.3184480    -1.3288730     0.3923020
  C        0.2041490    -0.2277810    -0.0328410
  C       -0.5292580     0.9782650     0.0721850
  C       -0.4780620    -1.4467680    -0.1744800
  C       -1.9322610     0.8976940     0.1244170
  C       -1.8678090    -1.5041600    -0.1507450
  C       -2.5720278    -0.3065870     0.0000171
  C        1.6942170    -0.1960210    -0.0707790
  H        0.0963370    -2.3571300    -0.3293910
  H       -2.5048800     1.8176440     0.2323000
  H       -2.3796530    -2.4547020    -0.2729900
  H       -3.6801520    -0.3414970     0.0246030
  H        1.0340450     2.2328410    -0.1623240
  H       -0.4673770     3.0011870     0.0009920
  H        1.8426920    -1.9076120     1.0707290
  H        3.3240540    -1.2501130     0.4893940
units angstrom
no_reorient  #important for SAPT in psi4, default
symmetry c1  #important for SAPT in psi4, default
}

set PROPERTIES_ORIGIN ["COM"]
properties('MP2/aug-cc-pvtz', properties = ['dipole'])
--------------------------------------------------------------------------

    Molecular point group: c1
  Charge       = 0
  Multiplicity = 1
  Basis Set: AUG-CC-PVTZ
    Blend: AUG-CC-PVTZ
  Basis Set: (AUG-CC-PVTZ AUX)
    Blend: AUG-CC-PVTZ-JKFIT

    Orbital Energies [Eh]
    ---------------------

    Doubly Occupied:

       1A    -20.526134     2A    -15.587483     3A    -15.560743
       4A    -11.363442     5A    -11.297726     6A    -11.255522
       7A    -11.252482     8A    -11.243484     9A    -11.232812
      10A    -11.231520    11A     -1.379967    12A     -1.227979
      13A     -1.214019    14A     -1.138812    15A     -1.038157
      16A     -0.999288    17A     -0.875636    18A     -0.834768
      19A     -0.792852    20A     -0.736554    21A     -0.698646
      22A     -0.686341    23A     -0.673746    24A     -0.638458
      25A     -0.608085    26A     -0.603728    27A     -0.587747
      28A     -0.575217    29A     -0.539792    30A     -0.523186
      31A     -0.508809    32A     -0.455778    33A     -0.435411
      34A     -0.420235    35A     -0.354553    36A     -0.303027

  @DF-RHF Final Energy:  -453.68628474696186

   => Energetics <=

    Nuclear Repulsion Energy =            500.1970230504535948
    One-Electron Energy =               -1608.9623382304507686
    Two-Electron Energy =                 655.0790304330354274
    Total Energy =                       -453.6862847469618600
  Basis Set: (AUG-CC-PVTZ AUX)
    Blend: AUG-CC-PVTZ-RI
    Molecular point group: c1

    Geometry (in Angstrom), charge = 0, multiplicity = 1:

       Center              X                  Y                   Z               Mass
    ------------   -----------------  -----------------  -----------------  -----------------
         O            2.325928546676     0.746208340473    -0.509503420718    15.994914619570
         N            0.083435546676     2.192028340473     0.256037579282    14.003074004430
         N            2.296689546676    -1.339138659527     0.399805579282    14.003074004430
         C            0.182390546676    -0.238046659527    -0.025337420718    12.000000000000
         C           -0.551016453324     0.967999340473     0.079688579282    12.000000000000
         C           -0.499820453324    -1.457033659527    -0.166976420718    12.000000000000
         C           -1.954019453324     0.887428340473     0.131920579282    12.000000000000
         C           -1.889567453324    -1.514425659527    -0.143241420718    12.000000000000
         C           -2.593786253324    -0.316852659527     0.007520679282    12.000000000000
         C            1.672458546676    -0.206286659527    -0.063275420718    12.000000000000
         H            0.074578546676    -2.367395659527    -0.321887420718     1.007825032230
         H           -2.526638453324     1.807378340473     0.239803579282     1.007825032230
         H           -2.401411453324    -2.464967659527    -0.265486420718     1.007825032230
         H           -3.701910453324    -0.351762659527     0.032106579282     1.007825032230
         H            1.012286546676     2.222575340473    -0.154820420718     1.007825032230
         H           -0.489135453324     2.990921340473     0.008495579282     1.007825032230
         H            1.820933546676    -1.917877659527     1.078232579282     1.007825032230
         H            3.302295546676    -1.260378659527     0.496897579282     1.007825032230

  Basis Set: AUG-CC-PVTZ
    Blend: AUG-CC-PVTZ
  Basis Set: (AUG-CC-PVTZ AUX)
    Blend: AUG-CC-PVTZ-JKFIT
	 Reference Energy          =    -453.6862847469618600 [Eh]
	 Singles Energy            =      -0.0000000000000000 [Eh]
	 Same-Spin Energy          =      -0.4861138463332238 [Eh]
	 Opposite-Spin Energy      =      -1.4786878387918727 [Eh]
	 Correlation Energy        =      -1.9648016851250965 [Eh]
	 Total Energy              =    -455.6510864320869700 [Eh]

	 ================> DF-SCS-MP2 Energies <==================
	-----------------------------------------------------------
	 SCS Same-Spin Scale       =       0.3333333333333333 [-]
	 SCS Opposite-Spin Scale   =       1.2000000000000000 [-]
	 SCS Same-Spin Energy      =      -0.1620379487777412 [Eh]
	 SCS Opposite-Spin Energy  =      -1.7744254065502472 [Eh]
	 SCS Correlation Energy    =      -1.9364633553279884 [Eh]
	 SCS Total Energy          =    -455.6227481022898473 [Eh]
	-----------------------------------------------------------

  Dipole Moment: [D]
     X:    -1.1284      Y:    -1.3401      Z:     1.0628     Total:     2.0491

*** Psi4 exiting successfully. Buy a developer a beer!
