                               Psi4 1.4a3.dev225

  ==> Input File <==

--------------------------------------------------------------------------
#psi4
#
memory 32 gb

molecule  {
0 1
  O        2.3476870     0.7564740    -0.5170070
  N        0.1479084     2.1800213     0.2427805
  N        2.3184480    -1.3288730     0.3923020
  C        0.2041490    -0.2277810    -0.0328410
  C       -0.5292580     0.9782650     0.0721850
  C       -0.4780620    -1.4467680    -0.1744800
  C       -1.9322610     0.8976940     0.1244170
  C       -1.8678090    -1.5041600    -0.1507450
  C       -2.5929860    -0.3189550    -0.0016080
  C        1.6942170    -0.1960210    -0.0707790
  H        0.0963370    -2.3571300    -0.3293910
  H       -2.5048800     1.8176440     0.2323000
  H       -2.3796530    -2.4547020    -0.2729900
  H       -3.6801520    -0.3414970     0.0246030
  H        1.0340450     2.2328410    -0.1623240
  H       -0.4673770     3.0011870     0.0009920
  H        1.8426920    -1.9076120     1.0707290
  H        3.3240540    -1.2501130     0.4893940
units angstrom
no_reorient  #important for SAPT in psi4, default
symmetry c1  #important for SAPT in psi4, default
}

set PROPERTIES_ORIGIN ["COM"]
properties('MP2/aug-cc-pvtz', properties = ['dipole'])
--------------------------------------------------------------------------

    Molecular point group: c1
  Charge       = 0
  Multiplicity = 1
  Basis Set: AUG-CC-PVTZ
    Blend: AUG-CC-PVTZ
  Basis Set: (AUG-CC-PVTZ AUX)
    Blend: AUG-CC-PVTZ-JKFIT

    Orbital Energies [Eh]
    ---------------------

    Doubly Occupied:

       1A    -20.525646     2A    -15.587319     3A    -15.560760
       4A    -11.363148     5A    -11.297435     6A    -11.255719
       7A    -11.253942     8A    -11.243534     9A    -11.235799
      10A    -11.232266    11A     -1.379713    12A     -1.227561
      13A     -1.213883    14A     -1.137310    15A     -1.036545
      16A     -0.999233    17A     -0.877908    18A     -0.832636
      19A     -0.794311    20A     -0.736063    21A     -0.697207
      22A     -0.693623    23A     -0.668525    24A     -0.639964
      25A     -0.608869    26A     -0.602657    27A     -0.586178
      28A     -0.575157    29A     -0.539824    30A     -0.524256
      31A     -0.508580    32A     -0.455485    33A     -0.435659
      34A     -0.419886    35A     -0.352307    36A     -0.303612

  @DF-RHF Final Energy:  -453.68317609301181

   => Energetics <=

    Nuclear Repulsion Energy =            500.1213638433728192
    One-Electron Energy =               -1608.8040390172325260
    Two-Electron Energy =                 654.9994990808478406
    Total Energy =                       -453.6831760930118662
  Basis Set: (AUG-CC-PVTZ AUX)
    Blend: AUG-CC-PVTZ-RI
    Molecular point group: c1

    Geometry (in Angstrom), charge = 0, multiplicity = 1:

       Center              X                  Y                   Z               Mass
    ------------   -----------------  -----------------  -----------------  -----------------
         O            2.323380956108     0.749591332350    -0.508767971707    15.994914619570
         N            0.123602356108     2.173138632350     0.251019528293    14.003074004430
         N            2.294141956108    -1.335755667650     0.400541028293    14.003074004430
         C            0.179842956108    -0.234663667650    -0.024601971707    12.000000000000
         C           -0.553564043892     0.971382332350     0.080424028293    12.000000000000
         C           -0.502368043892    -1.453650667650    -0.166240971707    12.000000000000
         C           -1.956567043892     0.890811332350     0.132656028293    12.000000000000
         C           -1.892115043892    -1.511042667650    -0.142505971707    12.000000000000
         C           -2.617292043892    -0.325837667650     0.006631028293    12.000000000000
         C            1.669910956108    -0.202903667650    -0.062539971707    12.000000000000
         H            0.072030956108    -2.364012667650    -0.321151971707     1.007825032230
         H           -2.529186043892     1.810761332350     0.240539028293     1.007825032230
         H           -2.403959043892    -2.461584667650    -0.264750971707     1.007825032230
         H           -3.704458043892    -0.348379667650     0.032842028293     1.007825032230
         H            1.009738956108     2.225958332350    -0.154084971707     1.007825032230
         H           -0.491683043892     2.994304332350     0.009231028293     1.007825032230
         H            1.818385956108    -1.914494667650     1.078968028293     1.007825032230
         H            3.299747956108    -1.256995667650     0.497633028293     1.007825032230

  Basis Set: AUG-CC-PVTZ
    Blend: AUG-CC-PVTZ
  Basis Set: (AUG-CC-PVTZ AUX)
    Blend: AUG-CC-PVTZ-JKFIT
	 Reference Energy          =    -453.6831760930118094 [Eh]
	 Singles Energy            =      -0.0000000000000000 [Eh]
	 Same-Spin Energy          =      -0.4862282058605764 [Eh]
	 Opposite-Spin Energy      =      -1.4790923031159893 [Eh]
	 Correlation Energy        =      -1.9653205089765655 [Eh]
	 Total Energy              =    -455.6484966019883700 [Eh]

	 ================> DF-SCS-MP2 Energies <==================
	-----------------------------------------------------------
	 SCS Same-Spin Scale       =       0.3333333333333333 [-]
	 SCS Opposite-Spin Scale   =       1.2000000000000000 [-]
	 SCS Same-Spin Energy      =      -0.1620760686201921 [Eh]
	 SCS Opposite-Spin Energy  =      -1.7749107637391870 [Eh]
	 SCS Correlation Energy    =      -1.9369868323593791 [Eh]
	 SCS Total Energy          =    -455.6201629253711758 [Eh]
	-----------------------------------------------------------

  Dipole Moment: [D]
     X:    -1.1805      Y:    -1.3337      Z:     1.0703     Total:     2.0779

*** Psi4 exiting successfully. Buy a developer a beer!
