                               Psi4 1.4a3.dev225

  ==> Input File <==

--------------------------------------------------------------------------
#psi4
#
memory 32 gb

molecule  {
0 1
  O        2.3476870     0.7564740    -0.5170070
  N        0.1051940     2.2022940     0.2485340
  N        2.3184480    -1.3288730     0.3923020
  C        0.2041490    -0.2277810    -0.0328410
  C       -0.5292580     0.9782650     0.0721850
  C       -0.4780620    -1.4467680    -0.1744800
  C       -1.9322610     0.8976940     0.1244170
  C       -1.8678090    -1.5041600    -0.1507450
  C       -2.5078921    -0.2716863     0.0046148
  C        1.6942170    -0.1960210    -0.0707790
  H        0.0963370    -2.3571300    -0.3293910
  H       -2.5048800     1.8176440     0.2323000
  H       -2.3796530    -2.4547020    -0.2729900
  H       -3.6801520    -0.3414970     0.0246030
  H        1.0340450     2.2328410    -0.1623240
  H       -0.4673770     3.0011870     0.0009920
  H        1.8426920    -1.9076120     1.0707290
  H        3.3240540    -1.2501130     0.4893940
units angstrom
no_reorient  #important for SAPT in psi4, default
symmetry c1  #important for SAPT in psi4, default
}

set PROPERTIES_ORIGIN ["COM"]
properties('MP2/aug-cc-pvtz', properties = ['dipole'])
--------------------------------------------------------------------------

    Molecular point group: c1
  Charge       = 0
  Multiplicity = 1
  Basis Set: AUG-CC-PVTZ
    Blend: AUG-CC-PVTZ
  Basis Set: (AUG-CC-PVTZ AUX)
    Blend: AUG-CC-PVTZ-JKFIT

    Orbital Energies [Eh]
    ---------------------

    Doubly Occupied:

       1A    -20.525272     2A    -15.586869     3A    -15.562793
       4A    -11.362716     5A    -11.299508     6A    -11.254547
       7A    -11.250307     8A    -11.241045     9A    -11.230332
      10A    -11.227352    11A     -1.379256    12A     -1.230740
      13A     -1.213446    14A     -1.144972    15A     -1.043963
      16A     -1.001012    17A     -0.871373    18A     -0.837616
      19A     -0.793336    20A     -0.737282    21A     -0.700317
      22A     -0.681189    23A     -0.673827    24A     -0.640155
      25A     -0.608534    26A     -0.602742    27A     -0.590344
      28A     -0.575276    29A     -0.542568    30A     -0.526579
      31A     -0.494749    32A     -0.458021    33A     -0.434349
      34A     -0.419458    35A     -0.362013    36A     -0.302481

  @DF-RHF Final Energy:  -453.67534826210090

   => Energetics <=

    Nuclear Repulsion Energy =            501.5769454319915326
    One-Electron Energy =               -1611.6919105692654739
    Two-Electron Energy =                 656.4396168751729874
    Total Energy =                       -453.6753482621008970
  Basis Set: (AUG-CC-PVTZ AUX)
    Blend: AUG-CC-PVTZ-RI
    Molecular point group: c1

    Geometry (in Angstrom), charge = 0, multiplicity = 1:

       Center              X                  Y                   Z               Mass
    ------------   -----------------  -----------------  -----------------  -----------------
         O            2.320272162130     0.743130307800    -0.509908910316    15.994914619570
         N            0.077779162130     2.188950307800     0.255632089684    14.003074004430
         N            2.291033162130    -1.342216692200     0.399400089684    14.003074004430
         C            0.176734162130    -0.241124692200    -0.025742910316    12.000000000000
         C           -0.556672837870     0.964921307800     0.079283089684    12.000000000000
         C           -0.505476837870    -1.460111692200    -0.167381910316    12.000000000000
         C           -1.959675837870     0.884350307800     0.131515089684    12.000000000000
         C           -1.895223837870    -1.517503692200    -0.143646910316    12.000000000000
         C           -2.535306937870    -0.285029992200     0.011712889684    12.000000000000
         C            1.666802162130    -0.209364692200    -0.063680910316    12.000000000000
         H            0.068922162130    -2.370473692200    -0.322292910316     1.007825032230
         H           -2.532294837870     1.804300307800     0.239398089684     1.007825032230
         H           -2.407067837870    -2.468045692200    -0.265891910316     1.007825032230
         H           -3.707566837870    -0.354840692200     0.031701089684     1.007825032230
         H            1.006630162130     2.219497307800    -0.155225910316     1.007825032230
         H           -0.494791837870     2.987843307800     0.008090089684     1.007825032230
         H            1.815277162130    -1.920955692200     1.077827089684     1.007825032230
         H            3.296639162130    -1.263456692200     0.496492089684     1.007825032230

  Basis Set: AUG-CC-PVTZ
    Blend: AUG-CC-PVTZ
  Basis Set: (AUG-CC-PVTZ AUX)
    Blend: AUG-CC-PVTZ-JKFIT
	 Reference Energy          =    -453.6753482621008970 [Eh]
	 Singles Energy            =      -0.0000000000000000 [Eh]
	 Same-Spin Energy          =      -0.4860201586434419 [Eh]
	 Opposite-Spin Energy      =      -1.4785872216212990 [Eh]
	 Correlation Energy        =      -1.9646073802647410 [Eh]
	 Total Energy              =    -455.6399556423656350 [Eh]

	 ================> DF-SCS-MP2 Energies <==================
	-----------------------------------------------------------
	 SCS Same-Spin Scale       =       0.3333333333333333 [-]
	 SCS Opposite-Spin Scale   =       1.2000000000000000 [-]
	 SCS Same-Spin Energy      =      -0.1620067195478140 [Eh]
	 SCS Opposite-Spin Energy  =      -1.7743046659455588 [Eh]
	 SCS Correlation Energy    =      -1.9363113854933727 [Eh]
	 SCS Total Energy          =    -455.6116596475942515 [Eh]
	-----------------------------------------------------------

  Dipole Moment: [D]
     X:    -1.1058      Y:    -1.2930      Z:     1.0667     Total:     2.0081

*** Psi4 exiting successfully. Buy a developer a beer!
