                               Psi4 1.4a3.dev225

  ==> Input File <==

--------------------------------------------------------------------------
#psi4
#
memory 32 gb

molecule  {
0 1
  O        2.3476870     0.7564740    -0.5170070
  N        0.1051940     2.2022940     0.2485340
  N        2.3184480    -1.3288730     0.3923020
  C        0.2041490    -0.2277810    -0.0328410
  C       -0.4774431     0.8930584     0.0647650
  C       -0.4780620    -1.4467680    -0.1744800
  C       -1.9322610     0.8976940     0.1244170
  C       -1.8678090    -1.5041600    -0.1507450
  C       -2.5929860    -0.3189550    -0.0016080
  C        1.6942170    -0.1960210    -0.0707790
  H        0.0963370    -2.3571300    -0.3293910
  H       -2.5048800     1.8176440     0.2323000
  H       -2.3796530    -2.4547020    -0.2729900
  H       -3.6801520    -0.3414970     0.0246030
  H        1.0340450     2.2328410    -0.1623240
  H       -0.4673770     3.0011870     0.0009920
  H        1.8426920    -1.9076120     1.0707290
  H        3.3240540    -1.2501130     0.4893940
units angstrom
no_reorient  #important for SAPT in psi4, default
symmetry c1  #important for SAPT in psi4, default
}

set PROPERTIES_ORIGIN ["COM"]
properties('MP2/aug-cc-pvtz', properties = ['dipole'])
--------------------------------------------------------------------------

    Molecular point group: c1
  Charge       = 0
  Multiplicity = 1
  Basis Set: AUG-CC-PVTZ
    Blend: AUG-CC-PVTZ
  Basis Set: (AUG-CC-PVTZ AUX)
    Blend: AUG-CC-PVTZ-JKFIT

    Orbital Energies [Eh]
    ---------------------

    Doubly Occupied:

       1A    -20.528084     2A    -15.589758     3A    -15.553510
       4A    -11.365559     5A    -11.292019     6A    -11.256046
       7A    -11.251566     8A    -11.243351     9A    -11.236886
      10A    -11.236194    11A     -1.381922    12A     -1.218165
      13A     -1.211311    14A     -1.136312    15A     -1.045866
      16A     -0.998321    17A     -0.874747    18A     -0.846198
      19A     -0.789689    20A     -0.738933    21A     -0.697870
      22A     -0.678609    23A     -0.670176    24A     -0.638631
      25A     -0.619387    26A     -0.597991    27A     -0.585382
      28A     -0.577157    29A     -0.534440    30A     -0.521677
      31A     -0.516050    32A     -0.446884    33A     -0.435484
      34A     -0.421435    35A     -0.356822    36A     -0.309108

  @DF-RHF Final Energy:  -453.67355896288649

   => Energetics <=

    Nuclear Repulsion Energy =            500.6449864707899451
    One-Electron Energy =               -1609.8340094556945132
    Two-Electron Energy =                 655.5154640220181363
    Total Energy =                       -453.6735589628864318
  Basis Set: (AUG-CC-PVTZ AUX)
    Blend: AUG-CC-PVTZ-RI
    Molecular point group: c1

    Geometry (in Angstrom), charge = 0, multiplicity = 1:

       Center              X                  Y                   Z               Mass
    ------------   -----------------  -----------------  -----------------  -----------------
         O            2.323207170578     0.754813835689    -0.508705697081    15.994914619570
         N            0.080714170578     2.200633835689     0.256835302919    14.003074004430
         N            2.293968170578    -1.330533164311     0.400603302919    14.003074004430
         C            0.179669170578    -0.229441164311    -0.024539697081    12.000000000000
         C           -0.501922929422     0.891398235689     0.073066302919    12.000000000000
         C           -0.502541829422    -1.448428164311    -0.166178697081    12.000000000000
         C           -1.956740829422     0.896033835689     0.132718302919    12.000000000000
         C           -1.892288829422    -1.505820164311    -0.142443697081    12.000000000000
         C           -2.617465829422    -0.320615164311     0.006693302919    12.000000000000
         C            1.669737170578    -0.197681164311    -0.062477697081    12.000000000000
         H            0.071857170578    -2.358790164311    -0.321089697081     1.007825032230
         H           -2.529359829422     1.815983835689     0.240601302919     1.007825032230
         H           -2.404132829422    -2.456362164311    -0.264688697081     1.007825032230
         H           -3.704631829422    -0.343157164311     0.032904302919     1.007825032230
         H            1.009565170578     2.231180835689    -0.154022697081     1.007825032230
         H           -0.491856829422     2.999526835689     0.009293302919     1.007825032230
         H            1.818212170578    -1.909272164311     1.079030302919     1.007825032230
         H            3.299574170578    -1.251773164311     0.497695302919     1.007825032230

  Basis Set: AUG-CC-PVTZ
    Blend: AUG-CC-PVTZ
  Basis Set: (AUG-CC-PVTZ AUX)
    Blend: AUG-CC-PVTZ-JKFIT
	 Reference Energy          =    -453.6735589628864886 [Eh]
	 Singles Energy            =      -0.0000000000000000 [Eh]
	 Same-Spin Energy          =      -0.4856648456122541 [Eh]
	 Opposite-Spin Energy      =      -1.4795530710942824 [Eh]
	 Correlation Energy        =      -1.9652179167065364 [Eh]
	 Total Energy              =    -455.6387768795930242 [Eh]

	 ================> DF-SCS-MP2 Energies <==================
	-----------------------------------------------------------
	 SCS Same-Spin Scale       =       0.3333333333333333 [-]
	 SCS Opposite-Spin Scale   =       1.2000000000000000 [-]
	 SCS Same-Spin Energy      =      -0.1618882818707514 [Eh]
	 SCS Opposite-Spin Energy  =      -1.7754636853131387 [Eh]
	 SCS Correlation Energy    =      -1.9373519671838901 [Eh]
	 SCS Total Energy          =    -455.6109109300703608 [Eh]
	-----------------------------------------------------------

  Dipole Moment: [D]
     X:    -1.2460      Y:    -1.6666      Z:     1.0184     Total:     2.3167

*** Psi4 exiting successfully. Buy a developer a beer!
