                               Psi4 1.4a3.dev225

  ==> Input File <==

--------------------------------------------------------------------------
#psi4
#
memory 32 gb

molecule  {
0 1
  O        2.3476870     0.7564740    -0.5170070
  N       -0.0273428     2.2622932     0.2488994
  N        2.3184480    -1.3288730     0.3923020
  C        0.2041490    -0.2277810    -0.0328410
  C       -0.5292580     0.9782650     0.0721850
  C       -0.4780620    -1.4467680    -0.1744800
  C       -1.9322610     0.8976940     0.1244170
  C       -1.8678090    -1.5041600    -0.1507450
  C       -2.5929860    -0.3189550    -0.0016080
  C        1.6942170    -0.1960210    -0.0707790
  H        0.0963370    -2.3571300    -0.3293910
  H       -2.5048800     1.8176440     0.2323000
  H       -2.3796530    -2.4547020    -0.2729900
  H       -3.6801520    -0.3414970     0.0246030
  H        1.0340450     2.2328410    -0.1623240
  H       -0.4673770     3.0011870     0.0009920
  H        1.8426920    -1.9076120     1.0707290
  H        3.3240540    -1.2501130     0.4893940
units angstrom
no_reorient  #important for SAPT in psi4, default
symmetry c1  #important for SAPT in psi4, default
}

set PROPERTIES_ORIGIN ["COM"]
properties('MP2/aug-cc-pvtz', properties = ['dipole'])
--------------------------------------------------------------------------

    Molecular point group: c1
  Charge       = 0
  Multiplicity = 1
  Basis Set: AUG-CC-PVTZ
    Blend: AUG-CC-PVTZ
  Basis Set: (AUG-CC-PVTZ AUX)
    Blend: AUG-CC-PVTZ-JKFIT

    Orbital Energies [Eh]
    ---------------------

    Doubly Occupied:

       1A    -20.529319     2A    -15.589219     3A    -15.556309
       4A    -11.365794     5A    -11.299083     6A    -11.256812
       7A    -11.251466     8A    -11.247603     9A    -11.232127
      10A    -11.231669    11A     -1.382352    12A     -1.230675
      13A     -1.215794    14A     -1.138790    15A     -1.037276
      16A     -1.000712    17A     -0.877348    18A     -0.840846
      19A     -0.791823    20A     -0.742960    21A     -0.714116
      22A     -0.683632    23A     -0.670406    24A     -0.634359
      25A     -0.619729    26A     -0.599145    27A     -0.576276
      28A     -0.572806    29A     -0.537864    30A     -0.520011
      31A     -0.513287    32A     -0.454430    33A     -0.435026
      34A     -0.422489    35A     -0.352400    36A     -0.302334

  @DF-RHF Final Energy:  -453.65607951346107

   => Energetics <=

    Nuclear Repulsion Energy =            498.9612586612896621
    One-Electron Energy =               -1606.3821080227205584
    Two-Electron Energy =                 653.7647698479700011
    Total Energy =                       -453.6560795134610089
  Basis Set: (AUG-CC-PVTZ AUX)
    Blend: AUG-CC-PVTZ-RI
    Molecular point group: c1

    Geometry (in Angstrom), charge = 0, multiplicity = 1:

       Center              X                  Y                   Z               Mass
    ------------   -----------------  -----------------  -----------------  -----------------
         O            2.341417039151     0.741124270096    -0.509397701995    15.994914619570
         N           -0.033612760849     2.246943470096     0.256508698005    14.003074004430
         N            2.312178039151    -1.344222729904     0.399911298005    14.003074004430
         C            0.197879039151    -0.243130729904    -0.025231701995    12.000000000000
         C           -0.535527960849     0.962915270096     0.079794298005    12.000000000000
         C           -0.484331960849    -1.462117729904    -0.166870701995    12.000000000000
         C           -1.938530960849     0.882344270096     0.132026298005    12.000000000000
         C           -1.874078960849    -1.519509729904    -0.143135701995    12.000000000000
         C           -2.599255960849    -0.334304729904     0.006001298005    12.000000000000
         C            1.687947039151    -0.211370729904    -0.063169701995    12.000000000000
         H            0.090067039151    -2.372479729904    -0.321781701995     1.007825032230
         H           -2.511149960849     1.802294270096     0.239909298005     1.007825032230
         H           -2.385922960849    -2.470051729904    -0.265380701995     1.007825032230
         H           -3.686421960849    -0.356846729904     0.032212298005     1.007825032230
         H            1.027775039151     2.217491270096    -0.154714701995     1.007825032230
         H           -0.473646960849     2.985837270096     0.008601298005     1.007825032230
         H            1.836422039151    -1.922961729904     1.078338298005     1.007825032230
         H            3.317784039151    -1.265462729904     0.497003298005     1.007825032230

  Basis Set: AUG-CC-PVTZ
    Blend: AUG-CC-PVTZ
  Basis Set: (AUG-CC-PVTZ AUX)
    Blend: AUG-CC-PVTZ-JKFIT
	 Reference Energy          =    -453.6560795134610657 [Eh]
	 Singles Energy            =      -0.0000000000000000 [Eh]
	 Same-Spin Energy          =      -0.4866187657212137 [Eh]
	 Opposite-Spin Energy      =      -1.4800432379155941 [Eh]
	 Correlation Energy        =      -1.9666620036368077 [Eh]
	 Total Energy              =    -455.6227415170978929 [Eh]

	 ================> DF-SCS-MP2 Energies <==================
	-----------------------------------------------------------
	 SCS Same-Spin Scale       =       0.3333333333333333 [-]
	 SCS Opposite-Spin Scale   =       1.2000000000000000 [-]
	 SCS Same-Spin Energy      =      -0.1622062552404046 [Eh]
	 SCS Opposite-Spin Energy  =      -1.7760518854987128 [Eh]
	 SCS Correlation Energy    =      -1.9382581407391173 [Eh]
	 SCS Total Energy          =    -455.5943376542001602 [Eh]
	-----------------------------------------------------------

  Dipole Moment: [D]
     X:    -0.9697      Y:    -1.4692      Z:     1.0560     Total:     2.0528

*** Psi4 exiting successfully. Buy a developer a beer!
