                               Psi4 1.4a3.dev225

  ==> Input File <==

--------------------------------------------------------------------------
#psi4
#
memory 32 gb

molecule  {
0 1
  O        2.3476870     0.7564740    -0.5170070
  N        0.1051940     2.2022940     0.2485340
  N        2.3184480    -1.3288730     0.3923020
  C        0.2041490    -0.2277810    -0.0328410
  C       -0.5292580     0.9782650     0.0721850
  C       -0.4780620    -1.4467680    -0.1744800
  C       -1.9322610     0.8976940     0.1244170
  C       -1.8678090    -1.5041600    -0.1507450
  C       -2.5929860    -0.3189550    -0.0016080
  C        1.6942170    -0.1960210    -0.0707790
  H        0.0963370    -2.3571300    -0.3293910
  H       -2.5048800     1.8176440     0.2323000
  H       -2.3796530    -2.4547020    -0.2729900
  H       -3.6801520    -0.3414970     0.0246030
  H        1.0340450     2.2328410    -0.1623240
  H       -0.4108870     2.9223681     0.0254145
  H        1.8426920    -1.9076120     1.0707290
  H        3.3240540    -1.2501130     0.4893940
units angstrom
no_reorient  #important for SAPT in psi4, default
symmetry c1  #important for SAPT in psi4, default
}

set PROPERTIES_ORIGIN ["COM"]
properties('MP2/aug-cc-pvtz', properties = ['dipole'])
--------------------------------------------------------------------------

    Molecular point group: c1
  Charge       = 0
  Multiplicity = 1
  Basis Set: AUG-CC-PVTZ
    Blend: AUG-CC-PVTZ
  Basis Set: (AUG-CC-PVTZ AUX)
    Blend: AUG-CC-PVTZ-JKFIT

    Orbital Energies [Eh]
    ---------------------

    Doubly Occupied:

       1A    -20.526557     2A    -15.587851     3A    -15.549242
       4A    -11.363861     5A    -11.297225     6A    -11.256098
       7A    -11.253574     8A    -11.244519     9A    -11.235029
      10A    -11.232479    11A     -1.380374    12A     -1.238339
      13A     -1.214520    14A     -1.141105    15A     -1.037104
      16A     -1.002751    17A     -0.877729    18A     -0.838753
      19A     -0.793170    20A     -0.738362    21A     -0.709976
      22A     -0.689603    23A     -0.678775    24A     -0.638211
      25A     -0.612991    26A     -0.605127    27A     -0.588964
      28A     -0.575523    29A     -0.539876    30A     -0.524020
      31A     -0.510559    32A     -0.456332    33A     -0.436077
      34A     -0.420642    35A     -0.352418    36A     -0.304136

  @DF-RHF Final Energy:  -453.67998602527780

   => Energetics <=

    Nuclear Repulsion Energy =            500.3726720842561235
    One-Electron Energy =               -1609.2015751184396777
    Two-Electron Energy =                 655.1489170089056415
    Total Energy =                       -453.6799860252777989
  Basis Set: (AUG-CC-PVTZ AUX)
    Blend: AUG-CC-PVTZ-RI
    Molecular point group: c1

    Geometry (in Angstrom), charge = 0, multiplicity = 1:

       Center              X                  Y                   Z               Mass
    ------------   -----------------  -----------------  -----------------  -----------------
         O            2.327358512324     0.747882936435    -0.509540994356    15.994914619570
         N            0.084865512324     2.193702936435     0.256000005644    14.003074004430
         N            2.298119512324    -1.337464063565     0.399768005644    14.003074004430
         C            0.183820512324    -0.236372063565    -0.025374994356    12.000000000000
         C           -0.549586487676     0.969673936435     0.079651005644    12.000000000000
         C           -0.498390487676    -1.455359063565    -0.167013994356    12.000000000000
         C           -1.952589487676     0.889102936435     0.131883005644    12.000000000000
         C           -1.888137487676    -1.512751063565    -0.143278994356    12.000000000000
         C           -2.613314487676    -0.327546063565     0.005858005644    12.000000000000
         C            1.673888512324    -0.204612063565    -0.063312994356    12.000000000000
         H            0.076008512324    -2.365721063565    -0.321924994356     1.007825032230
         H           -2.525208487676     1.809052936435     0.239766005644     1.007825032230
         H           -2.399981487676    -2.463293063565    -0.265523994356     1.007825032230
         H           -3.700480487676    -0.350088063565     0.032069005644     1.007825032230
         H            1.013716512324     2.224249936435    -0.154857994356     1.007825032230
         H           -0.431215487676     2.913777036435     0.032880505644     1.007825032230
         H            1.822363512324    -1.916203063565     1.078195005644     1.007825032230
         H            3.303725512324    -1.258704063565     0.496860005644     1.007825032230

  Basis Set: AUG-CC-PVTZ
    Blend: AUG-CC-PVTZ
  Basis Set: (AUG-CC-PVTZ AUX)
    Blend: AUG-CC-PVTZ-JKFIT
	 Reference Energy          =    -453.6799860252777989 [Eh]
	 Singles Energy            =      -0.0000000000000000 [Eh]
	 Same-Spin Energy          =      -0.4856001126630400 [Eh]
	 Opposite-Spin Energy      =      -1.4772927723018694 [Eh]
	 Correlation Energy        =      -1.9628928849649094 [Eh]
	 Total Energy              =    -455.6428789102427004 [Eh]

	 ================> DF-SCS-MP2 Energies <==================
	-----------------------------------------------------------
	 SCS Same-Spin Scale       =       0.3333333333333333 [-]
	 SCS Opposite-Spin Scale   =       1.2000000000000000 [-]
	 SCS Same-Spin Energy      =      -0.1618667042210133 [Eh]
	 SCS Opposite-Spin Energy  =      -1.7727513267622432 [Eh]
	 SCS Correlation Energy    =      -1.9346180309832566 [Eh]
	 SCS Total Energy          =    -455.6146040562610438 [Eh]
	-----------------------------------------------------------

  Dipole Moment: [D]
     X:    -1.1054      Y:    -1.4155      Z:     1.0700     Total:     2.0905

*** Psi4 exiting successfully. Buy a developer a beer!
