                               Psi4 1.4a3.dev225

  ==> Input File <==

--------------------------------------------------------------------------
#psi4
#
memory 32 gb

molecule  {
0 1
  O        2.3476870     0.7564740    -0.5170070
  N        0.1266458     2.1909704     0.2482848
  N        2.3184480    -1.3288730     0.3923020
  C        0.2041490    -0.2277810    -0.0328410
  C       -0.5292580     0.9782650     0.0721850
  C       -0.4780620    -1.4467680    -0.1744800
  C       -1.9322610     0.8976940     0.1244170
  C       -1.8678090    -1.5041600    -0.1507450
  C       -2.5929860    -0.3189550    -0.0016080
  C        1.6942170    -0.1960210    -0.0707790
  H        0.0963370    -2.3571300    -0.3293910
  H       -2.5048800     1.8176440     0.2323000
  H       -2.3796530    -2.4547020    -0.2729900
  H       -3.6801520    -0.3414970     0.0246030
  H        1.0340450     2.2328410    -0.1623240
  H       -0.4673770     3.0011870     0.0009920
  H        1.8426920    -1.9076120     1.0707290
  H        3.3240540    -1.2501130     0.4893940
units angstrom
no_reorient  #important for SAPT in psi4, default
symmetry c1  #important for SAPT in psi4, default
}

set PROPERTIES_ORIGIN ["COM"]
properties('MP2/aug-cc-pvtz', properties = ['dipole'])
--------------------------------------------------------------------------

    Molecular point group: c1
  Charge       = 0
  Multiplicity = 1
  Basis Set: AUG-CC-PVTZ
    Blend: AUG-CC-PVTZ
  Basis Set: (AUG-CC-PVTZ AUX)
    Blend: AUG-CC-PVTZ-JKFIT

    Orbital Energies [Eh]
    ---------------------

    Doubly Occupied:

       1A    -20.526064     2A    -15.587530     3A    -15.560615
       4A    -11.363452     5A    -11.297203     6A    -11.255828
       7A    -11.253612     8A    -11.243974     9A    -11.235209
      10A    -11.232228    11A     -1.379982    12A     -1.227200
      13A     -1.214069    14A     -1.137119    15A     -1.036590
      16A     -0.998771    17A     -0.877577    18A     -0.833080
      19A     -0.793510    20A     -0.736121    21A     -0.697158
      22A     -0.691102    23A     -0.671035    24A     -0.638886
      25A     -0.608163    26A     -0.604085    27A     -0.586465
      28A     -0.575217    29A     -0.539738    30A     -0.523852
      31A     -0.509322    32A     -0.455384    33A     -0.435708
      34A     -0.420205    35A     -0.352264    36A     -0.303511

  @DF-RHF Final Energy:  -453.68569881869882

   => Energetics <=

    Nuclear Repulsion Energy =            499.9254749955457555
    One-Electron Energy =               -1608.4186898375053261
    Two-Electron Energy =                 654.8075160232607459
    Total Energy =                       -453.6856988186988247
  Basis Set: (AUG-CC-PVTZ AUX)
    Blend: AUG-CC-PVTZ-RI
    Molecular point group: c1

    Geometry (in Angstrom), charge = 0, multiplicity = 1:

       Center              X                  Y                   Z               Mass
    ------------   -----------------  -----------------  -----------------  -----------------
         O            2.325569209422     0.748464499114    -0.509334450065    15.994914619570
         N            0.104528009422     2.182960899114     0.255957349935    14.003074004430
         N            2.296330209422    -1.336882500886     0.399974549935    14.003074004430
         C            0.182031209422    -0.235790500886    -0.025168450065    12.000000000000
         C           -0.551375790578     0.970255499114     0.079857549935    12.000000000000
         C           -0.500179790578    -1.454777500886    -0.166807450065    12.000000000000
         C           -1.954378790578     0.889684499114     0.132089549935    12.000000000000
         C           -1.889926790578    -1.512169500886    -0.143072450065    12.000000000000
         C           -2.615103790578    -0.326964500886     0.006064549935    12.000000000000
         C            1.672099209422    -0.204030500886    -0.063106450065    12.000000000000
         H            0.074219209422    -2.365139500886    -0.321718450065     1.007825032230
         H           -2.526997790578     1.809634499114     0.239972549935     1.007825032230
         H           -2.401770790578    -2.462711500886    -0.265317450065     1.007825032230
         H           -3.702269790578    -0.349506500886     0.032275549935     1.007825032230
         H            1.011927209422     2.224831499114    -0.154651450065     1.007825032230
         H           -0.489494790578     2.993177499114     0.008664549935     1.007825032230
         H            1.820574209422    -1.915621500886     1.078401549935     1.007825032230
         H            3.301936209422    -1.258122500886     0.497066549935     1.007825032230

  Basis Set: AUG-CC-PVTZ
    Blend: AUG-CC-PVTZ
  Basis Set: (AUG-CC-PVTZ AUX)
    Blend: AUG-CC-PVTZ-JKFIT
	 Reference Energy          =    -453.6856988186988247 [Eh]
	 Singles Energy            =      -0.0000000000000000 [Eh]
	 Same-Spin Energy          =      -0.4862075490089297 [Eh]
	 Opposite-Spin Energy      =      -1.4789909942533239 [Eh]
	 Correlation Energy        =      -1.9651985432622536 [Eh]
	 Total Energy              =    -455.6508973619610856 [Eh]

	 ================> DF-SCS-MP2 Energies <==================
	-----------------------------------------------------------
	 SCS Same-Spin Scale       =       0.3333333333333333 [-]
	 SCS Opposite-Spin Scale   =       1.2000000000000000 [-]
	 SCS Same-Spin Energy      =      -0.1620691830029766 [Eh]
	 SCS Opposite-Spin Energy  =      -1.7747891931039887 [Eh]
	 SCS Correlation Energy    =      -1.9368583761069653 [Eh]
	 SCS Total Energy          =    -455.6225571948057791 [Eh]
	-----------------------------------------------------------

  Dipole Moment: [D]
     X:    -1.1554      Y:    -1.3468      Z:     1.0609     Total:     2.0674

*** Psi4 exiting successfully. Buy a developer a beer!
