                               Psi4 1.4a3.dev225

  ==> Input File <==

--------------------------------------------------------------------------
#psi4
#
memory 32 gb

molecule  {
0 1
  O        2.3476870     0.7564740    -0.5170070
  N        0.1051940     2.2022940     0.2485340
  N        2.3184480    -1.3288730     0.3923020
  C        0.2041490    -0.2277810    -0.0328410
  C       -0.5292580     0.9782650     0.0721850
  C       -0.4780620    -1.4467680    -0.1744800
  C       -1.9322610     0.8976940     0.1244170
  C       -1.8678090    -1.5041600    -0.1507450
  C       -2.5929860    -0.3189550    -0.0016080
  C        1.6942170    -0.1960210    -0.0707790
  H        0.0963370    -2.3571300    -0.3293910
  H       -2.5048800     1.8176440     0.2323000
  H       -2.3796530    -2.4547020    -0.2729900
  H       -3.6801520    -0.3414970     0.0246030
  H        1.0340450     2.2328410    -0.1623240
  H       -0.4673770     3.0011870     0.0009920
  H        1.8426920    -1.9076120     1.0707290
  H        3.3042068    -1.2516675     0.4874777
units angstrom
no_reorient  #important for SAPT in psi4, default
symmetry c1  #important for SAPT in psi4, default
}

set PROPERTIES_ORIGIN ["COM"]
properties('MP2/aug-cc-pvtz', properties = ['dipole'])
--------------------------------------------------------------------------

    Molecular point group: c1
  Charge       = 0
  Multiplicity = 1
  Basis Set: AUG-CC-PVTZ
    Blend: AUG-CC-PVTZ
  Basis Set: (AUG-CC-PVTZ AUX)
    Blend: AUG-CC-PVTZ-JKFIT

    Orbital Energies [Eh]
    ---------------------

    Doubly Occupied:

       1A    -20.526679     2A    -15.585960     3A    -15.560152
       4A    -11.363862     5A    -11.297221     6A    -11.255988
       7A    -11.253330     8A    -11.244384     9A    -11.234650
      10A    -11.232180    11A     -1.380638    12A     -1.227245
      13A     -1.216721    14A     -1.137264    15A     -1.036984
      16A     -0.998651    17A     -0.878136    18A     -0.834239
      19A     -0.793591    20A     -0.737610    21A     -0.700257
      22A     -0.687999    23A     -0.675567    24A     -0.638049
      25A     -0.609404    26A     -0.604366    27A     -0.586549
      28A     -0.575760    29A     -0.539578    30A     -0.523609
      31A     -0.510102    32A     -0.455197    33A     -0.435935
      34A     -0.420892    35A     -0.352289    36A     -0.303296

  @DF-RHF Final Energy:  -453.68703678252558

   => Energetics <=

    Nuclear Repulsion Energy =            499.8718589704707824
    One-Electron Energy =               -1608.2891216314269514
    Two-Electron Energy =                 654.7302258784304740
    Total Energy =                       -453.6870367825256380
  Basis Set: (AUG-CC-PVTZ AUX)
    Blend: AUG-CC-PVTZ-RI
    Molecular point group: c1

    Geometry (in Angstrom), charge = 0, multiplicity = 1:

       Center              X                  Y                   Z               Mass
    ------------   -----------------  -----------------  -----------------  -----------------
         O            2.327923942796     0.747310638183    -0.509345902578    15.994914619570
         N            0.085430942796     2.193130638183     0.256195097422    14.003074004430
         N            2.298684942796    -1.338036361817     0.399963097422    14.003074004430
         C            0.184385942796    -0.236944361817    -0.025179902578    12.000000000000
         C           -0.549021057204     0.969101638183     0.079846097422    12.000000000000
         C           -0.497825057204    -1.455931361817    -0.166818902578    12.000000000000
         C           -1.952024057204     0.888530638183     0.132078097422    12.000000000000
         C           -1.887572057204    -1.513323361817    -0.143083902578    12.000000000000
         C           -2.612749057204    -0.328118361817     0.006053097422    12.000000000000
         C            1.674453942796    -0.205184361817    -0.063117902578    12.000000000000
         H            0.076573942796    -2.366293361817    -0.321729902578     1.007825032230
         H           -2.524643057204     1.808480638183     0.239961097422     1.007825032230
         H           -2.399416057204    -2.463865361817    -0.265328902578     1.007825032230
         H           -3.699915057204    -0.350660361817     0.032264097422     1.007825032230
         H            1.014281942796     2.223677638183    -0.154662902578     1.007825032230
         H           -0.487140057204     2.992023638183     0.008653097422     1.007825032230
         H            1.822928942796    -1.916775361817     1.078390097422     1.007825032230
         H            3.284443742796    -1.260830861817     0.495138797422     1.007825032230

  Basis Set: AUG-CC-PVTZ
    Blend: AUG-CC-PVTZ
  Basis Set: (AUG-CC-PVTZ AUX)
    Blend: AUG-CC-PVTZ-JKFIT
	 Reference Energy          =    -453.6870367825255812 [Eh]
	 Singles Energy            =      -0.0000000000000000 [Eh]
	 Same-Spin Energy          =      -0.4860548886925964 [Eh]
	 Opposite-Spin Energy      =      -1.4785664966085283 [Eh]
	 Correlation Energy        =      -1.9646213853011247 [Eh]
	 Total Energy              =    -455.6516581678267244 [Eh]

	 ================> DF-SCS-MP2 Energies <==================
	-----------------------------------------------------------
	 SCS Same-Spin Scale       =       0.3333333333333333 [-]
	 SCS Opposite-Spin Scale   =       1.2000000000000000 [-]
	 SCS Same-Spin Energy      =      -0.1620182962308655 [Eh]
	 SCS Opposite-Spin Energy  =      -1.7742797959302339 [Eh]
	 SCS Correlation Energy    =      -1.9362980921610993 [Eh]
	 SCS Total Energy          =    -455.6233348746866909 [Eh]
	-----------------------------------------------------------

  Dipole Moment: [D]
     X:    -1.1489      Y:    -1.3540      Z:     1.0599     Total:     2.0680

*** Psi4 exiting successfully. Buy a developer a beer!
