                               Psi4 1.4a3.dev225

  ==> Input File <==

--------------------------------------------------------------------------
#psi4
#
memory 32 gb

molecule  {
0 1
  O        2.3476870     0.7564740    -0.5170070
  N        0.1051940     2.2022940     0.2485340
  N        2.3184480    -1.3288730     0.3923020
  C        0.2041490    -0.2277810    -0.0328410
  C       -0.5292580     0.9782650     0.0721850
  C       -0.4780620    -1.4467680    -0.1744800
  C       -1.9322610     0.8976940     0.1244170
  C       -1.8678090    -1.5041600    -0.1507450
  C       -2.5929860    -0.3189550    -0.0016080
  C        1.5942721    -0.1981513    -0.0682343
  H        0.0963370    -2.3571300    -0.3293910
  H       -2.5048800     1.8176440     0.2323000
  H       -2.3796530    -2.4547020    -0.2729900
  H       -3.6801520    -0.3414970     0.0246030
  H        1.0340450     2.2328410    -0.1623240
  H       -0.4673770     3.0011870     0.0009920
  H        1.8426920    -1.9076120     1.0707290
  H        3.3240540    -1.2501130     0.4893940
units angstrom
no_reorient  #important for SAPT in psi4, default
symmetry c1  #important for SAPT in psi4, default
}

set PROPERTIES_ORIGIN ["COM"]
properties('MP2/aug-cc-pvtz', properties = ['dipole'])
--------------------------------------------------------------------------

    Molecular point group: c1
  Charge       = 0
  Multiplicity = 1
  Basis Set: AUG-CC-PVTZ
    Blend: AUG-CC-PVTZ
  Basis Set: (AUG-CC-PVTZ AUX)
    Blend: AUG-CC-PVTZ-JKFIT

    Orbital Energies [Eh]
    ---------------------

    Doubly Occupied:

       1A    -20.517265     2A    -15.581108     3A    -15.565082
       4A    -11.364234     5A    -11.306774     6A    -11.264504
       7A    -11.262341     8A    -11.242823     9A    -11.240192
      10A    -11.237674    11A     -1.343528    12A     -1.232718
      13A     -1.191354    14A     -1.143742    15A     -1.054145
      16A     -1.006871    17A     -0.895118    18A     -0.841380
      19A     -0.788231    20A     -0.726827    21A     -0.699153
      22A     -0.693857    23A     -0.676513    24A     -0.631062
      25A     -0.614647    26A     -0.608593    27A     -0.580754
      28A     -0.569301    29A     -0.538124    30A     -0.519727
      31A     -0.514286    32A     -0.460119    33A     -0.429903
      34A     -0.406550    35A     -0.359004    36A     -0.309632

  @DF-RHF Final Energy:  -453.66670570504289

   => Energetics <=

    Nuclear Repulsion Energy =            500.3052868601750447
    One-Electron Energy =               -1609.1097109177283073
    Two-Electron Energy =                 655.1377183525103192
    Total Energy =                       -453.6667057050428866
  Basis Set: (AUG-CC-PVTZ AUX)
    Blend: AUG-CC-PVTZ-RI
    Molecular point group: c1

    Geometry (in Angstrom), charge = 0, multiplicity = 1:

       Center              X                  Y                   Z               Mass
    ------------   -----------------  -----------------  -----------------  -----------------
         O            2.336591475846     0.747487003683    -0.509584523929    15.994914619570
         N            0.094098475846     2.193307003683     0.255956476071    14.003074004430
         N            2.307352475846    -1.337859996317     0.399724476071    14.003074004430
         C            0.193053475846    -0.236767996317    -0.025418523929    12.000000000000
         C           -0.540353524154     0.969278003683     0.079607476071    12.000000000000
         C           -0.489157524154    -1.455754996317    -0.167057523929    12.000000000000
         C           -1.943356524154     0.888707003683     0.131839476071    12.000000000000
         C           -1.878904524154    -1.513146996317    -0.143322523929    12.000000000000
         C           -2.604081524154    -0.327941996317     0.005814476071    12.000000000000
         C            1.583176575846    -0.207138296317    -0.060811823929    12.000000000000
         H            0.085241475846    -2.366116996317    -0.321968523929     1.007825032230
         H           -2.515975524154     1.808657003683     0.239722476071     1.007825032230
         H           -2.390748524154    -2.463688996317    -0.265567523929     1.007825032230
         H           -3.691247524154    -0.350483996317     0.032025476071     1.007825032230
         H            1.022949475846     2.223854003683    -0.154901523929     1.007825032230
         H           -0.478472524154     2.992200003683     0.008414476071     1.007825032230
         H            1.831596475846    -1.916598996317     1.078151476071     1.007825032230
         H            3.312958475846    -1.259099996317     0.496816476071     1.007825032230

  Basis Set: AUG-CC-PVTZ
    Blend: AUG-CC-PVTZ
  Basis Set: (AUG-CC-PVTZ AUX)
    Blend: AUG-CC-PVTZ-JKFIT
	 Reference Energy          =    -453.6667057050428866 [Eh]
	 Singles Energy            =      -0.0000000000000000 [Eh]
	 Same-Spin Energy          =      -0.4883060721075664 [Eh]
	 Opposite-Spin Energy      =      -1.4832453154774734 [Eh]
	 Correlation Energy        =      -1.9715513875850399 [Eh]
	 Total Energy              =    -455.6382570926279527 [Eh]

	 ================> DF-SCS-MP2 Energies <==================
	-----------------------------------------------------------
	 SCS Same-Spin Scale       =       0.3333333333333333 [-]
	 SCS Opposite-Spin Scale   =       1.2000000000000000 [-]
	 SCS Same-Spin Energy      =      -0.1627686907025221 [Eh]
	 SCS Opposite-Spin Energy  =      -1.7798943785729680 [Eh]
	 SCS Correlation Energy    =      -1.9426630692754900 [Eh]
	 SCS Total Energy          =    -455.6093687743183978 [Eh]
	-----------------------------------------------------------

  Dipole Moment: [D]
     X:    -1.9456      Y:    -1.2211      Z:     1.0515     Total:     2.5263

*** Psi4 exiting successfully. Buy a developer a beer!
