                               Psi4 1.4a3.dev225

  ==> Input File <==

--------------------------------------------------------------------------
#psi4
#
memory 32 gb

molecule  {
0 1
  O        2.3476870     0.7564740    -0.5170070
  N        0.1051940     2.2022940     0.2485340
  N        2.3184480    -1.3288730     0.3923020
  C        0.2041490    -0.2277810    -0.0328410
  C       -0.4256283     0.8078518     0.0573449
  C       -0.4780620    -1.4467680    -0.1744800
  C       -1.9322610     0.8976940     0.1244170
  C       -1.8678090    -1.5041600    -0.1507450
  C       -2.5929860    -0.3189550    -0.0016080
  C        1.6942170    -0.1960210    -0.0707790
  H        0.0963370    -2.3571300    -0.3293910
  H       -2.5048800     1.8176440     0.2323000
  H       -2.3796530    -2.4547020    -0.2729900
  H       -3.6801520    -0.3414970     0.0246030
  H        1.0340450     2.2328410    -0.1623240
  H       -0.4673770     3.0011870     0.0009920
  H        1.8426920    -1.9076120     1.0707290
  H        3.3240540    -1.2501130     0.4893940
units angstrom
no_reorient  #important for SAPT in psi4, default
symmetry c1  #important for SAPT in psi4, default
}

set PROPERTIES_ORIGIN ["COM"]
properties('MP2/aug-cc-pvtz', properties = ['dipole'])
--------------------------------------------------------------------------

    Molecular point group: c1
  Charge       = 0
  Multiplicity = 1
  Basis Set: AUG-CC-PVTZ
    Blend: AUG-CC-PVTZ
  Basis Set: (AUG-CC-PVTZ AUX)
    Blend: AUG-CC-PVTZ-JKFIT

    Orbital Energies [Eh]
    ---------------------

    Doubly Occupied:

       1A    -20.530259     2A    -15.592175     3A    -15.546944
       4A    -11.368004     5A    -11.284312     6A    -11.256126
       7A    -11.251531     8A    -11.249381     9A    -11.240679
      10A    -11.227306    11A     -1.384166    12A     -1.220948
      13A     -1.206487    14A     -1.131169    15A     -1.058818
      16A     -0.996640    17A     -0.873316    18A     -0.857897
      19A     -0.785235    20A     -0.741669    21A     -0.699350
      22A     -0.670856    23A     -0.665457    24A     -0.643113
      25A     -0.626832    26A     -0.595270    27A     -0.584615
      28A     -0.576043    29A     -0.532802    30A     -0.528629
      31A     -0.505168    32A     -0.438832    33A     -0.432204
      34A     -0.422188    35A     -0.366020    36A     -0.313071

  @DF-RHF Final Energy:  -453.62698264119319

   => Energetics <=

    Nuclear Repulsion Energy =            501.7194708260626612
    One-Electron Energy =               -1611.8858760585421805
    Two-Electron Energy =                 656.5394225912863249
    Total Energy =                       -453.6269826411931945
  Basis Set: (AUG-CC-PVTZ AUX)
    Blend: AUG-CC-PVTZ-RI
    Molecular point group: c1

    Geometry (in Angstrom), charge = 0, multiplicity = 1:

       Center              X                  Y                   Z               Mass
    ------------   -----------------  -----------------  -----------------  -----------------
         O            2.318637415606     0.762328547393    -0.508051288710    15.994914619570
         N            0.076144415606     2.208148547393     0.257489711290    14.003074004430
         N            2.289398415606    -1.323018452607     0.401257711290    14.003074004430
         C            0.175099415606    -0.221926452607    -0.023885288710    12.000000000000
         C           -0.454677884394     0.813706347393     0.066300611290    12.000000000000
         C           -0.507111584394    -1.440913452607    -0.165524288710    12.000000000000
         C           -1.961310584394     0.903548547393     0.133372711290    12.000000000000
         C           -1.896858584394    -1.498305452607    -0.141789288710    12.000000000000
         C           -2.622035584394    -0.313100452607     0.007347711290    12.000000000000
         C            1.665167415606    -0.190166452607    -0.061823288710    12.000000000000
         H            0.067287415606    -2.351275452607    -0.320435288710     1.007825032230
         H           -2.533929584394     1.823498547393     0.241255711290     1.007825032230
         H           -2.408702584394    -2.448847452607    -0.264034288710     1.007825032230
         H           -3.709201584394    -0.335642452607     0.033558711290     1.007825032230
         H            1.004995415606     2.238695547393    -0.153368288710     1.007825032230
         H           -0.496426584394     3.007041547393     0.009947711290     1.007825032230
         H            1.813642415606    -1.901757452607     1.079684711290     1.007825032230
         H            3.295004415606    -1.244258452607     0.498349711290     1.007825032230

  Basis Set: AUG-CC-PVTZ
    Blend: AUG-CC-PVTZ
  Basis Set: (AUG-CC-PVTZ AUX)
    Blend: AUG-CC-PVTZ-JKFIT
	 Reference Energy          =    -453.6269826411931945 [Eh]
	 Singles Energy            =      -0.0000000000000000 [Eh]
	 Same-Spin Energy          =      -0.4850104322220675 [Eh]
	 Opposite-Spin Energy      =      -1.4812397050400268 [Eh]
	 Correlation Energy        =      -1.9662501372620942 [Eh]
	 Total Energy              =    -455.5932327784552740 [Eh]

	 ================> DF-SCS-MP2 Energies <==================
	-----------------------------------------------------------
	 SCS Same-Spin Scale       =       0.3333333333333333 [-]
	 SCS Opposite-Spin Scale   =       1.2000000000000000 [-]
	 SCS Same-Spin Energy      =      -0.1616701440740225 [Eh]
	 SCS Opposite-Spin Energy  =      -1.7774876460480320 [Eh]
	 SCS Correlation Energy    =      -1.9391577901220545 [Eh]
	 SCS Total Energy          =    -455.5661404313152616 [Eh]
	-----------------------------------------------------------

  Dipole Moment: [D]
     X:    -1.3192      Y:    -2.0093      Z:     0.9717     Total:     2.5926

*** Psi4 exiting successfully. Buy a developer a beer!
