                               Psi4 1.4a3.dev225

  ==> Input File <==

--------------------------------------------------------------------------
#psi4
#
memory 32 gb

molecule  {
0 1
  O        2.2727329     0.7960424    -0.5339407
  N        0.1051940     2.2022940     0.2485340
  N        2.3184480    -1.3288730     0.3923020
  C        0.2041490    -0.2277810    -0.0328410
  C       -0.5292580     0.9782650     0.0721850
  C       -0.4780620    -1.4467680    -0.1744800
  C       -1.9322610     0.8976940     0.1244170
  C       -1.8678090    -1.5041600    -0.1507450
  C       -2.5929860    -0.3189550    -0.0016080
  C        1.6942170    -0.1960210    -0.0707790
  H        0.0963370    -2.3571300    -0.3293910
  H       -2.5048800     1.8176440     0.2323000
  H       -2.3796530    -2.4547020    -0.2729900
  H       -3.6801520    -0.3414970     0.0246030
  H        1.0340450     2.2328410    -0.1623240
  H       -0.4673770     3.0011870     0.0009920
  H        1.8426920    -1.9076120     1.0707290
  H        3.3240540    -1.2501130     0.4893940
units angstrom
no_reorient  #important for SAPT in psi4, default
symmetry c1  #important for SAPT in psi4, default
}

set PROPERTIES_ORIGIN ["COM"]
properties('MP2/aug-cc-pvtz', properties = ['dipole'])
--------------------------------------------------------------------------

    Molecular point group: c1
  Charge       = 0
  Multiplicity = 1
  Basis Set: AUG-CC-PVTZ
    Blend: AUG-CC-PVTZ
  Basis Set: (AUG-CC-PVTZ AUX)
    Blend: AUG-CC-PVTZ-JKFIT

    Orbital Energies [Eh]
    ---------------------

    Doubly Occupied:

       1A    -20.528321     2A    -15.593285     3A    -15.556332
       4A    -11.365404     5A    -11.294609     6A    -11.253519
       7A    -11.251113     8A    -11.241221     9A    -11.232701
      10A    -11.230232    11A     -1.381592    12A     -1.223878
      13A     -1.220548    14A     -1.134988    15A     -1.034327
      16A     -0.996412    17A     -0.875525    18A     -0.832125
      19A     -0.794667    20A     -0.737798    21A     -0.698252
      22A     -0.685653    23A     -0.675885    24A     -0.639704
      25A     -0.607426    26A     -0.602870    27A     -0.584021
      28A     -0.575373    29A     -0.538852    30A     -0.521503
      31A     -0.508096    32A     -0.452825    33A     -0.435863
      34A     -0.424409    35A     -0.349866    36A     -0.300741

  @DF-RHF Final Energy:  -453.68473813825261

   => Energetics <=

    Nuclear Repulsion Energy =            500.5878896183804159
    One-Electron Energy =               -1609.7853891313325221
    Two-Electron Energy =                 655.5127613746996076
    Total Energy =                       -453.6847381382525555
  Basis Set: (AUG-CC-PVTZ AUX)
    Blend: AUG-CC-PVTZ-RI
    Molecular point group: c1

    Geometry (in Angstrom), charge = 0, multiplicity = 1:

       Center              X                  Y                   Z               Mass
    ------------   -----------------  -----------------  -----------------  -----------------
         O            2.261634036453     0.782216075051    -0.524303161662    15.994914619570
         N            0.094095136453     2.188467675051     0.258171538338    14.003074004430
         N            2.307349136453    -1.342699324949     0.401939538338    14.003074004430
         C            0.193050136453    -0.241607324949    -0.023203461662    12.000000000000
         C           -0.540356863547     0.964438675051     0.081822538338    12.000000000000
         C           -0.489160863547    -1.460594324949    -0.164842461662    12.000000000000
         C           -1.943359863547     0.883867675051     0.134054538338    12.000000000000
         C           -1.878907863547    -1.517986324949    -0.141107461662    12.000000000000
         C           -2.604084863547    -0.332781324949     0.008029538338    12.000000000000
         C            1.683118136453    -0.209847324949    -0.061141461662    12.000000000000
         H            0.085238136453    -2.370956324949    -0.319753461662     1.007825032230
         H           -2.515978863547     1.803817675051     0.241937538338     1.007825032230
         H           -2.390751863547    -2.468528324949    -0.263352461662     1.007825032230
         H           -3.691250863547    -0.355323324949     0.034240538338     1.007825032230
         H            1.022946136453     2.219014675051    -0.152686461662     1.007825032230
         H           -0.478475863547     2.987360675051     0.010629538338     1.007825032230
         H            1.831593136453    -1.921438324949     1.080366538338     1.007825032230
         H            3.312955136453    -1.263939324949     0.499031538338     1.007825032230

  Basis Set: AUG-CC-PVTZ
    Blend: AUG-CC-PVTZ
  Basis Set: (AUG-CC-PVTZ AUX)
    Blend: AUG-CC-PVTZ-JKFIT
	 Reference Energy          =    -453.6847381382526123 [Eh]
	 Singles Energy            =      -0.0000000000000000 [Eh]
	 Same-Spin Energy          =      -0.4865483263872431 [Eh]
	 Opposite-Spin Energy      =      -1.4793013763843419 [Eh]
	 Correlation Energy        =      -1.9658497027715849 [Eh]
	 Total Energy              =    -455.6505878410242190 [Eh]

	 ================> DF-SCS-MP2 Energies <==================
	-----------------------------------------------------------
	 SCS Same-Spin Scale       =       0.3333333333333333 [-]
	 SCS Opposite-Spin Scale   =       1.2000000000000000 [-]
	 SCS Same-Spin Energy      =      -0.1621827754624144 [Eh]
	 SCS Opposite-Spin Energy  =      -1.7751616516612103 [Eh]
	 SCS Correlation Energy    =      -1.9373444271236246 [Eh]
	 SCS Total Energy          =    -455.6220825653762176 [Eh]
	-----------------------------------------------------------

  Dipole Moment: [D]
     X:    -0.8142      Y:    -1.4646      Z:     1.0935     Total:     2.0010

*** Psi4 exiting successfully. Buy a developer a beer!
