                               Psi4 1.4a3.dev225

  ==> Input File <==

--------------------------------------------------------------------------
#psi4
#
memory 32 gb

molecule  {
0 1
  O        2.3476870     0.7564740    -0.5170070
  N        0.1051940     2.2022940     0.2485340
  N        2.3184480    -1.3288730     0.3923020
  C        0.2041490    -0.2277810    -0.0328410
  C       -0.5383873     0.9606520     0.0696475
  C       -0.4780620    -1.4467680    -0.1744800
  C       -1.9322610     0.8976940     0.1244170
  C       -1.8678090    -1.5041600    -0.1507450
  C       -2.5929860    -0.3189550    -0.0016080
  C        1.6942170    -0.1960210    -0.0707790
  H        0.0963370    -2.3571300    -0.3293910
  H       -2.5048800     1.8176440     0.2323000
  H       -2.3796530    -2.4547020    -0.2729900
  H       -3.6801520    -0.3414970     0.0246030
  H        1.0340450     2.2328410    -0.1623240
  H       -0.4673770     3.0011870     0.0009920
  H        1.8426920    -1.9076120     1.0707290
  H        3.3240540    -1.2501130     0.4893940
units angstrom
no_reorient  #important for SAPT in psi4, default
symmetry c1  #important for SAPT in psi4, default
}

set PROPERTIES_ORIGIN ["COM"]
properties('MP2/aug-cc-pvtz', properties = ['dipole'])
--------------------------------------------------------------------------

    Molecular point group: c1
  Charge       = 0
  Multiplicity = 1
  Basis Set: AUG-CC-PVTZ
    Blend: AUG-CC-PVTZ
  Basis Set: (AUG-CC-PVTZ AUX)
    Blend: AUG-CC-PVTZ-JKFIT

    Orbital Energies [Eh]
    ---------------------

    Doubly Occupied:

       1A    -20.526870     2A    -15.588370     3A    -15.557382
       4A    -11.364609     5A    -11.295307     6A    -11.256406
       7A    -11.253737     8A    -11.244629     9A    -11.234645
      10A    -11.233381    11A     -1.380564    12A     -1.221339
      13A     -1.214493    14A     -1.137085    15A     -1.038327
      16A     -1.000166    17A     -0.878367    18A     -0.834606
      19A     -0.793233    20A     -0.737111    21A     -0.697876
      22A     -0.685352    23A     -0.671942    24A     -0.637210
      25A     -0.608274    26A     -0.606004    27A     -0.586447
      28A     -0.576002    29A     -0.539049    30A     -0.523245
      31A     -0.511316    32A     -0.452458    33A     -0.436317
      34A     -0.420849    35A     -0.352945    36A     -0.305833

  @DF-RHF Final Energy:  -453.68625814463951

   => Energetics <=

    Nuclear Repulsion Energy =            499.8576184812630459
    One-Electron Energy =               -1608.2842656025950419
    Two-Electron Energy =                 654.7403889766925431
    Total Energy =                       -453.6862581446395097
  Basis Set: (AUG-CC-PVTZ AUX)
    Blend: AUG-CC-PVTZ-RI
    Molecular point group: c1

    Geometry (in Angstrom), charge = 0, multiplicity = 1:

       Center              X                  Y                   Z               Mass
    ------------   -----------------  -----------------  -----------------  -----------------
         O            2.328582083942     0.748852485077    -0.509136304334    15.994914619570
         N            0.086089083942     2.194672485077     0.256404695666    14.003074004430
         N            2.299343083942    -1.336494514923     0.400172695666    14.003074004430
         C            0.185044083942    -0.235402514923    -0.024970304334    12.000000000000
         C           -0.557492216058     0.953030485077     0.077518195666    12.000000000000
         C           -0.497166916058    -1.454389514923    -0.166609304334    12.000000000000
         C           -1.951365916058     0.890072485077     0.132287695666    12.000000000000
         C           -1.886913916058    -1.511781514923    -0.142874304334    12.000000000000
         C           -2.612090916058    -0.326576514923     0.006262695666    12.000000000000
         C            1.675112083942    -0.203642514923    -0.062908304334    12.000000000000
         H            0.077232083942    -2.364751514923    -0.321520304334     1.007825032230
         H           -2.523984916058     1.810022485077     0.240170695666     1.007825032230
         H           -2.398757916058    -2.462323514923    -0.265119304334     1.007825032230
         H           -3.699256916058    -0.349118514923     0.032473695666     1.007825032230
         H            1.014940083942     2.225219485077    -0.154453304334     1.007825032230
         H           -0.486481916058     2.993565485077     0.008862695666     1.007825032230
         H            1.823587083942    -1.915233514923     1.078599695666     1.007825032230
         H            3.304949083942    -1.257734514923     0.497264695666     1.007825032230

  Basis Set: AUG-CC-PVTZ
    Blend: AUG-CC-PVTZ
  Basis Set: (AUG-CC-PVTZ AUX)
    Blend: AUG-CC-PVTZ-JKFIT
	 Reference Energy          =    -453.6862581446395097 [Eh]
	 Singles Energy            =      -0.0000000000000000 [Eh]
	 Same-Spin Energy          =      -0.4861028329365397 [Eh]
	 Opposite-Spin Energy      =      -1.4789156315162175 [Eh]
	 Correlation Energy        =      -1.9650184644527573 [Eh]
	 Total Energy              =    -455.6512766090922923 [Eh]

	 ================> DF-SCS-MP2 Energies <==================
	-----------------------------------------------------------
	 SCS Same-Spin Scale       =       0.3333333333333333 [-]
	 SCS Opposite-Spin Scale   =       1.2000000000000000 [-]
	 SCS Same-Spin Energy      =      -0.1620342776455132 [Eh]
	 SCS Opposite-Spin Energy  =      -1.7746987578194611 [Eh]
	 SCS Correlation Energy    =      -1.9367330354649743 [Eh]
	 SCS Total Energy          =    -455.6229911801044636 [Eh]
	-----------------------------------------------------------

  Dipole Moment: [D]
     X:    -1.1739      Y:    -1.4810      Z:     1.0453     Total:     2.1596

*** Psi4 exiting successfully. Buy a developer a beer!
