                               Psi4 1.4a3.dev225

  ==> Input File <==

--------------------------------------------------------------------------
#psi4
#
memory 32 gb

molecule  {
0 1
  O        2.3476870     0.7564740    -0.5170070
  N        0.1051940     2.2022940     0.2485340
  N        2.3184480    -1.3288730     0.3923020
  C        0.2041490    -0.2277810    -0.0328410
  C       -0.5292580     0.9782650     0.0721850
  C       -0.4780620    -1.4467680    -0.1744800
  C       -1.9322610     0.8976940     0.1244170
  C       -1.8678090    -1.5041600    -0.1507450
  C       -2.5929860    -0.3189550    -0.0016080
  C        1.6942170    -0.1960210    -0.0707790
  H        0.0963370    -2.3571300    -0.3293910
  H       -2.5048800     1.8176440     0.2323000
  H       -2.3796530    -2.4547020    -0.2729900
  H       -3.6801520    -0.3414970     0.0246030
  H        1.0340450     2.2328410    -0.1623240
  H       -0.5238670     3.0800059    -0.0234305
  H        1.8426920    -1.9076120     1.0707290
  H        3.3240540    -1.2501130     0.4893940
units angstrom
no_reorient  #important for SAPT in psi4, default
symmetry c1  #important for SAPT in psi4, default
}

set PROPERTIES_ORIGIN ["COM"]
properties('MP2/aug-cc-pvtz', properties = ['dipole'])
--------------------------------------------------------------------------

    Molecular point group: c1
  Charge       = 0
  Multiplicity = 1
  Basis Set: AUG-CC-PVTZ
    Blend: AUG-CC-PVTZ
  Basis Set: (AUG-CC-PVTZ AUX)
    Blend: AUG-CC-PVTZ-JKFIT

    Orbital Energies [Eh]
    ---------------------

    Doubly Occupied:

       1A    -20.526493     2A    -15.587694     3A    -15.569526
       4A    -11.363722     5A    -11.297231     6A    -11.255841
       7A    -11.253033     8A    -11.244441     9A    -11.234289
      10A    -11.231903    11A     -1.380242    12A     -1.220198
      13A     -1.213854    14A     -1.133809    15A     -1.036301
      16A     -0.995367    17A     -0.877052    18A     -0.830231
      19A     -0.792694    20A     -0.735497    21A     -0.694060
      22A     -0.686172    23A     -0.664299    24A     -0.637730
      25A     -0.606448    26A     -0.601583    27A     -0.581153
      28A     -0.575093    29A     -0.539125    30A     -0.523107
      31A     -0.509411    32A     -0.454122    33A     -0.435480
      34A     -0.420461    35A     -0.352104    36A     -0.302536

  @DF-RHF Final Energy:  -453.67637007853199

   => Energetics <=

    Nuclear Repulsion Energy =            499.2169345690088562
    One-Electron Energy =               -1607.0620078781921620
    Two-Electron Energy =                 654.1687032306513174
    Total Energy =                       -453.6763700785320452
  Basis Set: (AUG-CC-PVTZ AUX)
    Blend: AUG-CC-PVTZ-RI
    Molecular point group: c1

    Geometry (in Angstrom), charge = 0, multiplicity = 1:

       Center              X                  Y                   Z               Mass
    ------------   -----------------  -----------------  -----------------  -----------------
         O            2.328195356414     0.746715311534    -0.509179198910    15.994914619570
         N            0.085702356414     2.192535311534     0.256361801090    14.003074004430
         N            2.298956356414    -1.338631688466     0.400129801090    14.003074004430
         C            0.184657356414    -0.237539688466    -0.025013198910    12.000000000000
         C           -0.548749643586     0.968506311534     0.080012801090    12.000000000000
         C           -0.497553643586    -1.456526688466    -0.166652198910    12.000000000000
         C           -1.951752643586     0.887935311534     0.132244801090    12.000000000000
         C           -1.887300643586    -1.513918688466    -0.142917198910    12.000000000000
         C           -2.612477643586    -0.328713688466     0.006219801090    12.000000000000
         C            1.674725356414    -0.205779688466    -0.062951198910    12.000000000000
         H            0.076845356414    -2.366888688466    -0.321563198910     1.007825032230
         H           -2.524371643586     1.807885311534     0.240127801090     1.007825032230
         H           -2.399144643586    -2.464460688466    -0.265162198910     1.007825032230
         H           -3.699643643586    -0.351255688466     0.032430801090     1.007825032230
         H            1.014553356414     2.223082311534    -0.154496198910     1.007825032230
         H           -0.543358643586     3.070247211534    -0.015602698910     1.007825032230
         H            1.823200356414    -1.917370688466     1.078556801090     1.007825032230
         H            3.304562356414    -1.259871688466     0.497221801090     1.007825032230

  Basis Set: AUG-CC-PVTZ
    Blend: AUG-CC-PVTZ
  Basis Set: (AUG-CC-PVTZ AUX)
    Blend: AUG-CC-PVTZ-JKFIT
	 Reference Energy          =    -453.6763700785319884 [Eh]
	 Singles Energy            =      -0.0000000000000000 [Eh]
	 Same-Spin Energy          =      -0.4868099743128523 [Eh]
	 Opposite-Spin Energy      =      -1.4807970746148595 [Eh]
	 Correlation Energy        =      -1.9676070489277118 [Eh]
	 Total Energy              =    -455.6439771274597206 [Eh]

	 ================> DF-SCS-MP2 Energies <==================
	-----------------------------------------------------------
	 SCS Same-Spin Scale       =       0.3333333333333333 [-]
	 SCS Opposite-Spin Scale   =       1.2000000000000000 [-]
	 SCS Same-Spin Energy      =      -0.1622699914376174 [Eh]
	 SCS Opposite-Spin Energy  =      -1.7769564895378314 [Eh]
	 SCS Correlation Energy    =      -1.9392264809754487 [Eh]
	 SCS Total Energy          =    -455.6155965595074235 [Eh]
	-----------------------------------------------------------

  Dipole Moment: [D]
     X:    -1.1522      Y:    -1.3081      Z:     1.0515     Total:     2.0358

*** Psi4 exiting successfully. Buy a developer a beer!
