                               Psi4 1.4a3.dev225

  ==> Input File <==

--------------------------------------------------------------------------
#psi4
#
memory 32 gb

molecule  {
0 1
  O        2.4194574     0.7122651    -0.4978994
  N        0.1051940     2.2022940     0.2485340
  N        2.3184480    -1.3288730     0.3923020
  C        0.2041490    -0.2277810    -0.0328410
  C       -0.5292580     0.9782650     0.0721850
  C       -0.4780620    -1.4467680    -0.1744800
  C       -1.9322610     0.8976940     0.1244170
  C       -1.8678090    -1.5041600    -0.1507450
  C       -2.5929860    -0.3189550    -0.0016080
  C        1.6942170    -0.1960210    -0.0707790
  H        0.0963370    -2.3571300    -0.3293910
  H       -2.5048800     1.8176440     0.2323000
  H       -2.3796530    -2.4547020    -0.2729900
  H       -3.6801520    -0.3414970     0.0246030
  H        1.0340450     2.2328410    -0.1623240
  H       -0.4673770     3.0011870     0.0009920
  H        1.8426920    -1.9076120     1.0707290
  H        3.3240540    -1.2501130     0.4893940
units angstrom
no_reorient  #important for SAPT in psi4, default
symmetry c1  #important for SAPT in psi4, default
}

set PROPERTIES_ORIGIN ["COM"]
properties('MP2/aug-cc-pvtz', properties = ['dipole'])
--------------------------------------------------------------------------

    Molecular point group: c1
  Charge       = 0
  Multiplicity = 1
  Basis Set: AUG-CC-PVTZ
    Blend: AUG-CC-PVTZ
  Basis Set: (AUG-CC-PVTZ AUX)
    Blend: AUG-CC-PVTZ-JKFIT

    Orbital Energies [Eh]
    ---------------------

    Doubly Occupied:

       1A    -20.524376     2A    -15.582028     3A    -15.563701
       4A    -11.362254     5A    -11.299618     6A    -11.258192
       7A    -11.255331     8A    -11.247571     9A    -11.236433
      10A    -11.233925    11A     -1.379607    12A     -1.230380
      13A     -1.207607    14A     -1.139057    15A     -1.038797
      16A     -1.000679    17A     -0.879079    18A     -0.835444
      19A     -0.791254    20A     -0.734994    21A     -0.699580
      22A     -0.690217    23A     -0.671474    24A     -0.636094
      25A     -0.610721    26A     -0.605275    27A     -0.588514
      28A     -0.575001    29A     -0.540055    30A     -0.525302
      31A     -0.511816    32A     -0.457410    33A     -0.435226
      34A     -0.415666    35A     -0.354437    36A     -0.305631

  @DF-RHF Final Energy:  -453.68539666569296

   => Energetics <=

    Nuclear Repulsion Energy =            499.0427068992809723
    One-Electron Energy =               -1606.6107109628057970
    Two-Electron Energy =                 653.8826073978318618
    Total Energy =                       -453.6853966656929060
  Basis Set: (AUG-CC-PVTZ AUX)
    Blend: AUG-CC-PVTZ-RI
    Molecular point group: c1

    Geometry (in Angstrom), charge = 0, multiplicity = 1:

       Center              X                  Y                   Z               Mass
    ------------   -----------------  -----------------  -----------------  -----------------
         O            2.391110390987     0.708287185215    -0.492498683632    15.994914619570
         N            0.076846990987     2.198316085215     0.253934716368    14.003074004430
         N            2.290100990987    -1.332850914785     0.397702716368    14.003074004430
         C            0.175801990987    -0.231758914785    -0.027440283632    12.000000000000
         C           -0.557605009013     0.974287085215     0.077585716368    12.000000000000
         C           -0.506409009013    -1.450745914785    -0.169079283632    12.000000000000
         C           -1.960608009013     0.893716085215     0.129817716368    12.000000000000
         C           -1.896156009013    -1.508137914785    -0.145344283632    12.000000000000
         C           -2.621333009013    -0.322932914785     0.003792716368    12.000000000000
         C            1.665869990987    -0.199998914785    -0.065378283632    12.000000000000
         H            0.067989990987    -2.361107914785    -0.323990283632     1.007825032230
         H           -2.533227009013     1.813666085215     0.237700716368     1.007825032230
         H           -2.408000009013    -2.458679914785    -0.267589283632     1.007825032230
         H           -3.708499009013    -0.345474914785     0.030003716368     1.007825032230
         H            1.005697990987     2.228863085215    -0.156923283632     1.007825032230
         H           -0.495724009013     2.997209085215     0.006392716368     1.007825032230
         H            1.814344990987    -1.911589914785     1.076129716368     1.007825032230
         H            3.295706990987    -1.254090914785     0.494794716368     1.007825032230

  Basis Set: AUG-CC-PVTZ
    Blend: AUG-CC-PVTZ
  Basis Set: (AUG-CC-PVTZ AUX)
    Blend: AUG-CC-PVTZ-JKFIT
	 Reference Energy          =    -453.6853966656929629 [Eh]
	 Singles Energy            =      -0.0000000000000000 [Eh]
	 Same-Spin Energy          =      -0.4859619438829463 [Eh]
	 Opposite-Spin Energy      =      -1.4787284334742428 [Eh]
	 Correlation Energy        =      -1.9646903773571891 [Eh]
	 Total Energy              =    -455.6500870430501777 [Eh]

	 ================> DF-SCS-MP2 Energies <==================
	-----------------------------------------------------------
	 SCS Same-Spin Scale       =       0.3333333333333333 [-]
	 SCS Opposite-Spin Scale   =       1.2000000000000000 [-]
	 SCS Same-Spin Energy      =      -0.1619873146276488 [Eh]
	 SCS Opposite-Spin Energy  =      -1.7744741201690912 [Eh]
	 SCS Correlation Energy    =      -1.9364614347967399 [Eh]
	 SCS Total Energy          =    -455.6218581004897032 [Eh]
	-----------------------------------------------------------

  Dipole Moment: [D]
     X:    -1.4305      Y:    -1.2339      Z:     1.0213     Total:     2.1475

*** Psi4 exiting successfully. Buy a developer a beer!
