                               Psi4 1.4a3.dev225

  ==> Input File <==

--------------------------------------------------------------------------
#psi4
#
memory 32 gb

molecule  {
0 1
  O        2.3476870     0.7564740    -0.5170070
  N        0.1051940     2.2022940     0.2485340
  N        2.3184480    -1.3288730     0.3923020
  C        0.2041490    -0.2277810    -0.0328410
  C       -0.5292580     0.9782650     0.0721850
  C       -0.4780620    -1.4467680    -0.1744800
  C       -1.9322610     0.8976940     0.1244170
  C       -1.8678090    -1.5041600    -0.1507450
  C       -2.5929860    -0.3189550    -0.0016080
  C        1.6742280    -0.1964471    -0.0702701
  H        0.0963370    -2.3571300    -0.3293910
  H       -2.5048800     1.8176440     0.2323000
  H       -2.3796530    -2.4547020    -0.2729900
  H       -3.6801520    -0.3414970     0.0246030
  H        1.0340450     2.2328410    -0.1623240
  H       -0.4673770     3.0011870     0.0009920
  H        1.8426920    -1.9076120     1.0707290
  H        3.3240540    -1.2501130     0.4893940
units angstrom
no_reorient  #important for SAPT in psi4, default
symmetry c1  #important for SAPT in psi4, default
}

set PROPERTIES_ORIGIN ["COM"]
properties('MP2/aug-cc-pvtz', properties = ['dipole'])
--------------------------------------------------------------------------

    Molecular point group: c1
  Charge       = 0
  Multiplicity = 1
  Basis Set: AUG-CC-PVTZ
    Blend: AUG-CC-PVTZ
  Basis Set: (AUG-CC-PVTZ AUX)
    Blend: AUG-CC-PVTZ-JKFIT

    Orbital Energies [Eh]
    ---------------------

    Doubly Occupied:

       1A    -20.524776     2A    -15.586483     3A    -15.560998
       4A    -11.363967     5A    -11.298970     6A    -11.257568
       7A    -11.254966     8A    -11.244376     9A    -11.235668
      10A    -11.233183    11A     -1.372853    12A     -1.228260
      13A     -1.209573    14A     -1.138443    15A     -1.039805
      16A     -1.000190    17A     -0.880731    18A     -0.835225
      19A     -0.791615    20A     -0.734482    21A     -0.699234
      22A     -0.688997    23A     -0.673971    24A     -0.635944
      25A     -0.610213    26A     -0.604820    27A     -0.585668
      28A     -0.573911    29A     -0.539149    30A     -0.523124
      31A     -0.511039    32A     -0.456101    33A     -0.435231
      34A     -0.418006    35A     -0.353615    36A     -0.304471

  @DF-RHF Final Energy:  -453.68491779088345

   => Energetics <=

    Nuclear Repulsion Energy =            499.8544537697871419
    One-Electron Energy =               -1608.2674876209198374
    Two-Electron Energy =                 654.7281160602492491
    Total Energy =                       -453.6849177908834463
  Basis Set: (AUG-CC-PVTZ AUX)
    Blend: AUG-CC-PVTZ-RI
    Molecular point group: c1

    Geometry (in Angstrom), charge = 0, multiplicity = 1:

       Center              X                  Y                   Z               Mass
    ------------   -----------------  -----------------  -----------------  -----------------
         O            2.329539844429     0.747336703452    -0.509404978565    15.994914619570
         N            0.087046844429     2.193156703452     0.256136021435    14.003074004430
         N            2.300300844429    -1.338010296548     0.399904021435    14.003074004430
         C            0.186001844429    -0.236918296548    -0.025238978565    12.000000000000
         C           -0.547405155571     0.969127703452     0.079787021435    12.000000000000
         C           -0.496209155571    -1.455905296548    -0.166877978565    12.000000000000
         C           -1.950408155571     0.888556703452     0.132019021435    12.000000000000
         C           -1.885956155571    -1.513297296548    -0.143142978565    12.000000000000
         C           -2.611133155571    -0.328092296548     0.005994021435    12.000000000000
         C            1.656080844429    -0.205584396548    -0.062668078565    12.000000000000
         H            0.078189844429    -2.366267296548    -0.321788978565     1.007825032230
         H           -2.523027155571     1.808506703452     0.239902021435     1.007825032230
         H           -2.397800155571    -2.463839296548    -0.265387978565     1.007825032230
         H           -3.698299155571    -0.350634296548     0.032205021435     1.007825032230
         H            1.015897844429     2.223703703452    -0.154721978565     1.007825032230
         H           -0.485524155571     2.992049703452     0.008594021435     1.007825032230
         H            1.824544844429    -1.916749296548     1.078331021435     1.007825032230
         H            3.305906844429    -1.259250296548     0.496996021435     1.007825032230

  Basis Set: AUG-CC-PVTZ
    Blend: AUG-CC-PVTZ
  Basis Set: (AUG-CC-PVTZ AUX)
    Blend: AUG-CC-PVTZ-JKFIT
	 Reference Energy          =    -453.6849177908834463 [Eh]
	 Singles Energy            =      -0.0000000000000000 [Eh]
	 Same-Spin Energy          =      -0.4865366094715706 [Eh]
	 Opposite-Spin Energy      =      -1.4796271478038054 [Eh]
	 Correlation Energy        =      -1.9661637572753761 [Eh]
	 Total Energy              =    -455.6510815481587997 [Eh]

	 ================> DF-SCS-MP2 Energies <==================
	-----------------------------------------------------------
	 SCS Same-Spin Scale       =       0.3333333333333333 [-]
	 SCS Opposite-Spin Scale   =       1.2000000000000000 [-]
	 SCS Same-Spin Energy      =      -0.1621788698238569 [Eh]
	 SCS Opposite-Spin Energy  =      -1.7755525773645664 [Eh]
	 SCS Correlation Energy    =      -1.9377314471884233 [Eh]
	 SCS Total Energy          =    -455.6226492380718582 [Eh]
	-----------------------------------------------------------

  Dipole Moment: [D]
     X:    -1.2880      Y:    -1.3324      Z:     1.0600     Total:     2.1349

*** Psi4 exiting successfully. Buy a developer a beer!
