                               Psi4 1.4a3.dev225

  ==> Input File <==

--------------------------------------------------------------------------
#psi4
#
memory 32 gb

molecule  {
0 1
  O        2.3476870     0.7564740    -0.5170070
  N        0.1051940     2.2022940     0.2485340
  N        2.3184480    -1.3288730     0.3923020
  C        0.2041490    -0.2277810    -0.0328410
  C       -0.4502367     0.9479854     0.0247437
  C       -0.4780620    -1.4467680    -0.1744800
  C       -1.9322610     0.8976940     0.1244170
  C       -1.8678090    -1.5041600    -0.1507450
  C       -2.5929860    -0.3189550    -0.0016080
  C        1.6942170    -0.1960210    -0.0707790
  H        0.0963370    -2.3571300    -0.3293910
  H       -2.5048800     1.8176440     0.2323000
  H       -2.3796530    -2.4547020    -0.2729900
  H       -3.6801520    -0.3414970     0.0246030
  H        1.0340450     2.2328410    -0.1623240
  H       -0.4673770     3.0011870     0.0009920
  H        1.8426920    -1.9076120     1.0707290
  H        3.3240540    -1.2501130     0.4893940
units angstrom
no_reorient  #important for SAPT in psi4, default
symmetry c1  #important for SAPT in psi4, default
}

set PROPERTIES_ORIGIN ["COM"]
properties('MP2/aug-cc-pvtz', properties = ['dipole'])
--------------------------------------------------------------------------

    Molecular point group: c1
  Charge       = 0
  Multiplicity = 1
  Basis Set: AUG-CC-PVTZ
    Blend: AUG-CC-PVTZ
  Basis Set: (AUG-CC-PVTZ AUX)
    Blend: AUG-CC-PVTZ-JKFIT

    Orbital Energies [Eh]
    ---------------------

    Doubly Occupied:

       1A    -20.526576     2A    -15.587702     3A    -15.561413
       4A    -11.362723     5A    -11.297382     6A    -11.254739
       7A    -11.250290     8A    -11.243176     9A    -11.237281
      10A    -11.233189    11A     -1.380814    12A     -1.228262
      13A     -1.214381    14A     -1.137559    15A     -1.040900
      16A     -0.994084    17A     -0.871278    18A     -0.842934
      19A     -0.788713    20A     -0.736823    21A     -0.699432
      22A     -0.684669    23A     -0.675459    24A     -0.639362
      25A     -0.617095    26A     -0.596951    27A     -0.585299
      28A     -0.574680    29A     -0.536349    30A     -0.519501
      31A     -0.513264    32A     -0.455913    33A     -0.433775
      34A     -0.420377    35A     -0.354127    36A     -0.302692

  @DF-RHF Final Energy:  -453.67610453159227

   => Energetics <=

    Nuclear Repulsion Energy =            500.2861615686572918
    One-Electron Energy =               -1609.1262013033719995
    Two-Electron Energy =                 655.1639352031224917
    Total Energy =                       -453.6761045315922729
  Basis Set: (AUG-CC-PVTZ AUX)
    Blend: AUG-CC-PVTZ-RI
    Molecular point group: c1

    Geometry (in Angstrom), charge = 0, multiplicity = 1:

       Center              X                  Y                   Z               Mass
    ------------   -----------------  -----------------  -----------------  -----------------
         O            2.320807729073     0.749969603320    -0.505176058162    15.994914619570
         N            0.078314729073     2.195789603320     0.260364941838    14.003074004430
         N            2.291568729073    -1.335377396680     0.404132941838    14.003074004430
         C            0.177269729073    -0.234285396680    -0.021010058162    12.000000000000
         C           -0.477115970927     0.941481003320     0.036574641838    12.000000000000
         C           -0.504941270927    -1.453272396680    -0.162649058162    12.000000000000
         C           -1.959140270927     0.891189603320     0.136247941838    12.000000000000
         C           -1.894688270927    -1.510664396680    -0.138914058162    12.000000000000
         C           -2.619865270927    -0.325459396680     0.010222941838    12.000000000000
         C            1.667337729073    -0.202525396680    -0.058948058162    12.000000000000
         H            0.069457729073    -2.363634396680    -0.317560058162     1.007825032230
         H           -2.531759270927     1.811139603320     0.244130941838     1.007825032230
         H           -2.406532270927    -2.461206396680    -0.261159058162     1.007825032230
         H           -3.707031270927    -0.348001396680     0.036433941838     1.007825032230
         H            1.007165729073     2.226336603320    -0.150493058162     1.007825032230
         H           -0.494256270927     2.994682603320     0.012822941838     1.007825032230
         H            1.815812729073    -1.914116396680     1.082559941838     1.007825032230
         H            3.297174729073    -1.256617396680     0.501224941838     1.007825032230

  Basis Set: AUG-CC-PVTZ
    Blend: AUG-CC-PVTZ
  Basis Set: (AUG-CC-PVTZ AUX)
    Blend: AUG-CC-PVTZ-JKFIT
	 Reference Energy          =    -453.6761045315922729 [Eh]
	 Singles Energy            =      -0.0000000000000000 [Eh]
	 Same-Spin Energy          =      -0.4859953726850789 [Eh]
	 Opposite-Spin Energy      =      -1.4796778280267768 [Eh]
	 Correlation Energy        =      -1.9656732007118558 [Eh]
	 Total Energy              =    -455.6417777323041491 [Eh]

	 ================> DF-SCS-MP2 Energies <==================
	-----------------------------------------------------------
	 SCS Same-Spin Scale       =       0.3333333333333333 [-]
	 SCS Opposite-Spin Scale   =       1.2000000000000000 [-]
	 SCS Same-Spin Energy      =      -0.1619984575616930 [Eh]
	 SCS Opposite-Spin Energy  =      -1.7756133936321321 [Eh]
	 SCS Correlation Energy    =      -1.9376118511938250 [Eh]
	 SCS Total Energy          =    -455.6137163827860945 [Eh]
	-----------------------------------------------------------

  Dipole Moment: [D]
     X:    -1.1438      Y:    -1.3197      Z:     1.0564     Total:     2.0410

*** Psi4 exiting successfully. Buy a developer a beer!
