                               Psi4 1.4a3.dev225

  ==> Input File <==

--------------------------------------------------------------------------
#psi4
#
memory 32 gb

molecule  {
0 1
  O        2.3476870     0.7564740    -0.5170070
  N        0.1051940     2.2022940     0.2485340
  N        2.3184480    -1.3288730     0.3923020
  C        0.2041490    -0.2277810    -0.0328410
  C       -0.5292580     0.9782650     0.0721850
  C       -0.4780620    -1.4467680    -0.1744800
  C       -1.9322610     0.8976940     0.1244170
  C       -1.8678090    -1.5041600    -0.1507450
  C       -2.5929860    -0.3189550    -0.0016080
  C        1.6942170    -0.1960210    -0.0707790
  H        0.0963370    -2.3571300    -0.3293910
  H       -2.5048800     1.8176440     0.2323000
  H       -2.3796530    -2.4547020    -0.2729900
  H       -3.6801520    -0.3414970     0.0246030
  H        1.0340450     2.2328410    -0.1623240
  H       -0.4673770     3.0011870     0.0009920
  H        1.8426920    -1.9076120     1.0707290
  H        3.3736720    -1.2462269     0.4941847
units angstrom
no_reorient  #important for SAPT in psi4, default
symmetry c1  #important for SAPT in psi4, default
}

set PROPERTIES_ORIGIN ["COM"]
properties('MP2/aug-cc-pvtz', properties = ['dipole'])
--------------------------------------------------------------------------

    Molecular point group: c1
  Charge       = 0
  Multiplicity = 1
  Basis Set: AUG-CC-PVTZ
    Blend: AUG-CC-PVTZ
  Basis Set: (AUG-CC-PVTZ AUX)
    Blend: AUG-CC-PVTZ-JKFIT

    Orbital Energies [Eh]
    ---------------------

    Doubly Occupied:

       1A    -20.525959     2A    -15.591863     3A    -15.559948
       4A    -11.363437     5A    -11.297069     6A    -11.255784
       7A    -11.253153     8A    -11.244395     9A    -11.234496
      10A    -11.231996    11A     -1.379353    12A     -1.227048
      13A     -1.208764    14A     -1.136651    15A     -1.035796
      16A     -0.998397    17A     -0.875519    18A     -0.832795
      19A     -0.791279    20A     -0.733808    21A     -0.695940
      22A     -0.687780    23A     -0.667648    24A     -0.637581
      25A     -0.608113    26A     -0.603458    27A     -0.585855
      28A     -0.573997    29A     -0.539223    30A     -0.523261
      31A     -0.509825    32A     -0.455000    33A     -0.435278
      34A     -0.419564    35A     -0.352075    36A     -0.303114

  @DF-RHF Final Energy:  -453.68299863502102

   => Energetics <=

    Nuclear Repulsion Energy =            499.4781395093417018
    One-Electron Energy =               -1607.5718271347152495
    Two-Electron Energy =                 654.4106889903525826
    Total Energy =                       -453.6829986350210220
  Basis Set: (AUG-CC-PVTZ AUX)
    Blend: AUG-CC-PVTZ-RI
    Molecular point group: c1

    Geometry (in Angstrom), charge = 0, multiplicity = 1:

       Center              X                  Y                   Z               Mass
    ------------   -----------------  -----------------  -----------------  -----------------
         O            2.327409413303     0.747270339599    -0.509395581400    15.994914619570
         N            0.084916413303     2.193090339599     0.256145418600    14.003074004430
         N            2.298170413303    -1.338076660401     0.399913418600    14.003074004430
         C            0.183871413303    -0.236984660401    -0.025229581400    12.000000000000
         C           -0.549535586697     0.969061339599     0.079796418600    12.000000000000
         C           -0.498339586697    -1.455971660401    -0.166868581400    12.000000000000
         C           -1.952538586697     0.888490339599     0.132028418600    12.000000000000
         C           -1.888086586697    -1.513363660401    -0.143133581400    12.000000000000
         C           -2.613263586697    -0.328158660401     0.006003418600    12.000000000000
         C            1.673939413303    -0.205224660401    -0.063167581400    12.000000000000
         H            0.076059413303    -2.366333660401    -0.321779581400     1.007825032230
         H           -2.525157586697     1.808440339599     0.239911418600     1.007825032230
         H           -2.399930586697    -2.463905660401    -0.265378581400     1.007825032230
         H           -3.700429586697    -0.350700660401     0.032214418600     1.007825032230
         H            1.013767413303     2.223637339599    -0.154712581400     1.007825032230
         H           -0.487654586697     2.991983339599     0.008603418600     1.007825032230
         H            1.822414413303    -1.916815660401     1.078340418600     1.007825032230
         H            3.353394413303    -1.255430560401     0.501796118600     1.007825032230

  Basis Set: AUG-CC-PVTZ
    Blend: AUG-CC-PVTZ
  Basis Set: (AUG-CC-PVTZ AUX)
    Blend: AUG-CC-PVTZ-JKFIT
	 Reference Energy          =    -453.6829986350210220 [Eh]
	 Singles Energy            =      -0.0000000000000000 [Eh]
	 Same-Spin Energy          =      -0.4865194046709296 [Eh]
	 Opposite-Spin Energy      =      -1.4797594907168450 [Eh]
	 Correlation Energy        =      -1.9662788953877746 [Eh]
	 Total Energy              =    -455.6492775304088241 [Eh]

	 ================> DF-SCS-MP2 Energies <==================
	-----------------------------------------------------------
	 SCS Same-Spin Scale       =       0.3333333333333333 [-]
	 SCS Opposite-Spin Scale   =       1.2000000000000000 [-]
	 SCS Same-Spin Energy      =      -0.1621731348903099 [Eh]
	 SCS Opposite-Spin Energy  =      -1.7757113888602138 [Eh]
	 SCS Correlation Energy    =      -1.9378845237505238 [Eh]
	 SCS Total Energy          =    -455.6208831587715622 [Eh]
	-----------------------------------------------------------

  Dipole Moment: [D]
     X:    -1.0777      Y:    -1.3567      Z:     1.0654     Total:     2.0340

*** Psi4 exiting successfully. Buy a developer a beer!
