                               Psi4 1.4a3.dev225

  ==> Input File <==

--------------------------------------------------------------------------
#psi4
#
memory 32 gb

molecule  {
0 1
  O        2.3476870     0.7564740    -0.5170070
  N        0.1051940     2.2022940     0.2485340
  N        2.3184480    -1.3288730     0.3923020
  C        0.2041490    -0.2277810    -0.0328410
  C       -0.5292580     0.9782650     0.0721850
  C       -0.4780620    -1.4467680    -0.1744800
  C       -1.9322610     0.8976940     0.1244170
  C       -1.8678090    -1.5041600    -0.1507450
  C       -2.5929860    -0.3189550    -0.0016080
  C        1.6442445    -0.1970861    -0.0695067
  H        0.0963370    -2.3571300    -0.3293910
  H       -2.5048800     1.8176440     0.2323000
  H       -2.3796530    -2.4547020    -0.2729900
  H       -3.6801520    -0.3414970     0.0246030
  H        1.0340450     2.2328410    -0.1623240
  H       -0.4673770     3.0011870     0.0009920
  H        1.8426920    -1.9076120     1.0707290
  H        3.3240540    -1.2501130     0.4893940
units angstrom
no_reorient  #important for SAPT in psi4, default
symmetry c1  #important for SAPT in psi4, default
}

set PROPERTIES_ORIGIN ["COM"]
properties('MP2/aug-cc-pvtz', properties = ['dipole'])
--------------------------------------------------------------------------

    Molecular point group: c1
  Charge       = 0
  Multiplicity = 1
  Basis Set: AUG-CC-PVTZ
    Blend: AUG-CC-PVTZ
  Basis Set: (AUG-CC-PVTZ AUX)
    Blend: AUG-CC-PVTZ-JKFIT

    Orbital Energies [Eh]
    ---------------------

    Doubly Occupied:

       1A    -20.522132     2A    -15.584564     3A    -15.562436
       4A    -11.364244     5A    -11.301767     6A    -11.260090
       7A    -11.257604     8A    -11.244067     9A    -11.237307
      10A    -11.234810    11A     -1.361791    12A     -1.229914
      13A     -1.202612    14A     -1.140479    15A     -1.044878
      16A     -1.002648    17A     -0.886020    18A     -0.837449
      19A     -0.790023    20A     -0.731553    21A     -0.699572
      22A     -0.690701    23A     -0.674860    24A     -0.633368
      25A     -0.611932    26A     -0.606070    27A     -0.584264
      28A     -0.572023    29A     -0.538649    30A     -0.522132
      31A     -0.512545    32A     -0.457574    33A     -0.433898
      34A     -0.413894    35A     -0.355674    36A     -0.306353

  @DF-RHF Final Energy:  -453.68023341333884

   => Energetics <=

    Nuclear Repulsion Energy =            500.0123152572777485
    One-Electron Energy =               -1608.5653085566657410
    Two-Electron Energy =                 654.8727598860491526
    Total Energy =                       -453.6802334133387831
  Basis Set: (AUG-CC-PVTZ AUX)
    Blend: AUG-CC-PVTZ-RI
    Molecular point group: c1

    Geometry (in Angstrom), charge = 0, multiplicity = 1:

       Center              X                  Y                   Z               Mass
    ------------   -----------------  -----------------  -----------------  -----------------
         O            2.332184209517     0.747393059424    -0.509472305872    15.994914619570
         N            0.089691209517     2.193213059424     0.256068694128    14.003074004430
         N            2.302945209517    -1.337953940576     0.399836694128    14.003074004430
         C            0.188646209517    -0.236861940576    -0.025306305872    12.000000000000
         C           -0.544760790483     0.969184059424     0.079719694128    12.000000000000
         C           -0.493564790483    -1.455848940576    -0.166945305872    12.000000000000
         C           -1.947763790483     0.888613059424     0.131951694128    12.000000000000
         C           -1.883311790483    -1.513240940576    -0.143210305872    12.000000000000
         C           -2.608488790483    -0.328035940576     0.005926694128    12.000000000000
         C            1.628741709517    -0.206167040576    -0.061972005872    12.000000000000
         H            0.080834209517    -2.366210940576    -0.321856305872     1.007825032230
         H           -2.520382790483     1.808563059424     0.239834694128     1.007825032230
         H           -2.395155790483    -2.463782940576    -0.265455305872     1.007825032230
         H           -3.695654790483    -0.350577940576     0.032137694128     1.007825032230
         H            1.018542209517     2.223760059424    -0.154789305872     1.007825032230
         H           -0.482879790483     2.992106059424     0.008526694128     1.007825032230
         H            1.827189209517    -1.916692940576     1.078263694128     1.007825032230
         H            3.308551209517    -1.259193940576     0.496928694128     1.007825032230

  Basis Set: AUG-CC-PVTZ
    Blend: AUG-CC-PVTZ
  Basis Set: (AUG-CC-PVTZ AUX)
    Blend: AUG-CC-PVTZ-JKFIT
	 Reference Energy          =    -453.6802334133388399 [Eh]
	 Singles Energy            =      -0.0000000000000000 [Eh]
	 Same-Spin Energy          =      -0.4871370582368365 [Eh]
	 Opposite-Spin Energy      =      -1.4808652909322522 [Eh]
	 Correlation Energy        =      -1.9680023491690886 [Eh]
	 Total Energy              =    -455.6482357625079089 [Eh]

	 ================> DF-SCS-MP2 Energies <==================
	-----------------------------------------------------------
	 SCS Same-Spin Scale       =       0.3333333333333333 [-]
	 SCS Opposite-Spin Scale   =       1.2000000000000000 [-]
	 SCS Same-Spin Energy      =      -0.1623790194122788 [Eh]
	 SCS Opposite-Spin Energy  =      -1.7770383491187025 [Eh]
	 SCS Correlation Energy    =      -1.9394173685309812 [Eh]
	 SCS Total Energy          =    -455.6196507818698365 [Eh]
	-----------------------------------------------------------

  Dipole Moment: [D]
     X:    -1.5302      Y:    -1.2947      Z:     1.0572     Total:     2.2661

*** Psi4 exiting successfully. Buy a developer a beer!
