                               Psi4 1.4a3.dev225

  ==> Input File <==

--------------------------------------------------------------------------
#psi4
#
memory 32 gb

molecule  {
0 1
  O        2.3476870     0.7564740    -0.5170070
  N        0.1051940     2.2022940     0.2485340
  N        2.3184480    -1.3288730     0.3923020
  C        0.2041490    -0.2277810    -0.0328410
  C       -0.5292580     0.9782650     0.0721850
  C       -0.4780620    -1.4467680    -0.1744800
  C       -1.9322610     0.8976940     0.1244170
  C       -1.8678090    -1.5041600    -0.1507450
  C       -2.6189327    -0.2765487     0.0037281
  C        1.6942170    -0.1960210    -0.0707790
  H        0.0963370    -2.3571300    -0.3293910
  H       -2.5048800     1.8176440     0.2323000
  H       -2.3796530    -2.4547020    -0.2729900
  H       -3.6801520    -0.3414970     0.0246030
  H        1.0340450     2.2328410    -0.1623240
  H       -0.4673770     3.0011870     0.0009920
  H        1.8426920    -1.9076120     1.0707290
  H        3.3240540    -1.2501130     0.4893940
units angstrom
no_reorient  #important for SAPT in psi4, default
symmetry c1  #important for SAPT in psi4, default
}

set PROPERTIES_ORIGIN ["COM"]
properties('MP2/aug-cc-pvtz', properties = ['dipole'])
--------------------------------------------------------------------------

    Molecular point group: c1
  Charge       = 0
  Multiplicity = 1
  Basis Set: AUG-CC-PVTZ
    Blend: AUG-CC-PVTZ
  Basis Set: (AUG-CC-PVTZ AUX)
    Blend: AUG-CC-PVTZ-JKFIT

    Orbital Energies [Eh]
    ---------------------

    Doubly Occupied:

       1A    -20.525777     2A    -15.587230     3A    -15.561633
       4A    -11.363009     5A    -11.299089     6A    -11.254339
       7A    -11.254191     8A    -11.242814     9A    -11.236024
      10A    -11.234541    11A     -1.379627    12A     -1.228190
      13A     -1.213742    14A     -1.134147    15A     -1.039211
      16A     -0.995296    17A     -0.878222    18A     -0.832112
      19A     -0.793797    20A     -0.735622    21A     -0.699418
      22A     -0.691700    23A     -0.673324    24A     -0.637061
      25A     -0.607119    26A     -0.604036    27A     -0.587263
      28A     -0.575150    29A     -0.545936    30A     -0.525869
      31A     -0.501913    32A     -0.452817    33A     -0.435429
      34A     -0.420001    35A     -0.355879    36A     -0.300337

  @DF-RHF Final Energy:  -453.68367597125427

   => Energetics <=

    Nuclear Repulsion Energy =            499.3264739948371016
    One-Electron Energy =               -1607.2165704054909838
    Two-Electron Energy =                 654.2064204393994942
    Total Energy =                       -453.6836759712542744
  Basis Set: (AUG-CC-PVTZ AUX)
    Blend: AUG-CC-PVTZ-RI
    Molecular point group: c1

    Geometry (in Angstrom), charge = 0, multiplicity = 1:

       Center              X                  Y                   Z               Mass
    ------------   -----------------  -----------------  -----------------  -----------------
         O            2.330065277880     0.743559142352    -0.509830708688    15.994914619570
         N            0.087572277880     2.189379142352     0.255710291312    14.003074004430
         N            2.300826277880    -1.341787857648     0.399478291312    14.003074004430
         C            0.186527277880    -0.240695857648    -0.025664708688    12.000000000000
         C           -0.546879722120     0.965350142352     0.079361291312    12.000000000000
         C           -0.495683722120    -1.459682857648    -0.167303708688    12.000000000000
         C           -1.949882722120     0.884779142352     0.131593291312    12.000000000000
         C           -1.885430722120    -1.517074857648    -0.143568708688    12.000000000000
         C           -2.636554422120    -0.289463557648     0.010904391312    12.000000000000
         C            1.676595277880    -0.208935857648    -0.063602708688    12.000000000000
         H            0.078715277880    -2.370044857648    -0.322214708688     1.007825032230
         H           -2.522501722120     1.804729142352     0.239476291312     1.007825032230
         H           -2.397274722120    -2.467616857648    -0.265813708688     1.007825032230
         H           -3.697773722120    -0.354411857648     0.031779291312     1.007825032230
         H            1.016423277880     2.219926142352    -0.155147708688     1.007825032230
         H           -0.484998722120     2.988272142352     0.008168291312     1.007825032230
         H            1.825070277880    -1.920526857648     1.077905291312     1.007825032230
         H            3.306432277880    -1.263027857648     0.496570291312     1.007825032230

  Basis Set: AUG-CC-PVTZ
    Blend: AUG-CC-PVTZ
  Basis Set: (AUG-CC-PVTZ AUX)
    Blend: AUG-CC-PVTZ-JKFIT
	 Reference Energy          =    -453.6836759712542744 [Eh]
	 Singles Energy            =      -0.0000000000000000 [Eh]
	 Same-Spin Energy          =      -0.4860390749552326 [Eh]
	 Opposite-Spin Energy      =      -1.4791025085815210 [Eh]
	 Correlation Energy        =      -1.9651415835367536 [Eh]
	 Total Energy              =    -455.6488175547910373 [Eh]

	 ================> DF-SCS-MP2 Energies <==================
	-----------------------------------------------------------
	 SCS Same-Spin Scale       =       0.3333333333333333 [-]
	 SCS Opposite-Spin Scale   =       1.2000000000000000 [-]
	 SCS Same-Spin Energy      =      -0.1620130249850775 [Eh]
	 SCS Opposite-Spin Energy  =      -1.7749230102978253 [Eh]
	 SCS Correlation Energy    =      -1.9369360352829028 [Eh]
	 SCS Total Energy          =    -455.6206120065371579 [Eh]
	-----------------------------------------------------------

  Dipole Moment: [D]
     X:    -1.1636      Y:    -1.3227      Z:     1.0667     Total:     2.0594

*** Psi4 exiting successfully. Buy a developer a beer!
