                               Psi4 1.4a3.dev225

  ==> Input File <==

--------------------------------------------------------------------------
#psi4
#
memory 32 gb

molecule  {
0 1
  O        2.3476870     0.7564740    -0.5170070
  N        0.1051940     2.2022940     0.2485340
  N        2.3184480    -1.3288730     0.3923020
  C        0.2041490    -0.2277810    -0.0328410
  C       -0.6205514     0.8021355     0.0468096
  C       -0.4780620    -1.4467680    -0.1744800
  C       -1.9322610     0.8976940     0.1244170
  C       -1.8678090    -1.5041600    -0.1507450
  C       -2.5929860    -0.3189550    -0.0016080
  C        1.6942170    -0.1960210    -0.0707790
  H        0.0963370    -2.3571300    -0.3293910
  H       -2.5048800     1.8176440     0.2323000
  H       -2.3796530    -2.4547020    -0.2729900
  H       -3.6801520    -0.3414970     0.0246030
  H        1.0340450     2.2328410    -0.1623240
  H       -0.4673770     3.0011870     0.0009920
  H        1.8426920    -1.9076120     1.0707290
  H        3.3240540    -1.2501130     0.4893940
units angstrom
no_reorient  #important for SAPT in psi4, default
symmetry c1  #important for SAPT in psi4, default
}

set PROPERTIES_ORIGIN ["COM"]
properties('MP2/aug-cc-pvtz', properties = ['dipole'])
--------------------------------------------------------------------------

    Molecular point group: c1
  Charge       = 0
  Multiplicity = 1
  Basis Set: AUG-CC-PVTZ
    Blend: AUG-CC-PVTZ
  Basis Set: (AUG-CC-PVTZ AUX)
    Blend: AUG-CC-PVTZ-JKFIT

    Orbital Energies [Eh]
    ---------------------

    Doubly Occupied:

       1A    -20.530146     2A    -15.593541     3A    -15.535866
       4A    -11.372005     5A    -11.282987     6A    -11.260896
       7A    -11.258082     8A    -11.246346     9A    -11.241529
      10A    -11.235226    11A     -1.383197    12A     -1.221285
      13A     -1.202766    14A     -1.117602    15A     -1.055524
      16A     -1.010392    17A     -0.886611    18A     -0.845721
      19A     -0.797783    20A     -0.744244    21A     -0.702607
      22A     -0.672574    23A     -0.659828    24A     -0.638733
      25A     -0.626040    26A     -0.590318    27A     -0.581958
      28A     -0.579776    29A     -0.539980    30A     -0.532827
      31A     -0.495827    32A     -0.438689    33A     -0.428198
      34A     -0.419609    35A     -0.359988    36A     -0.325128

  @DF-RHF Final Energy:  -453.64260023799096

   => Energetics <=

    Nuclear Repulsion Energy =            501.0163370468808353
    One-Electron Energy =               -1610.4902242800924341
    Two-Electron Energy =                 655.8312869952206938
    Total Energy =                       -453.6426002379909050
  Basis Set: (AUG-CC-PVTZ AUX)
    Blend: AUG-CC-PVTZ-RI
    Molecular point group: c1

    Geometry (in Angstrom), charge = 0, multiplicity = 1:

       Center              X                  Y                   Z               Mass
    ------------   -----------------  -----------------  -----------------  -----------------
         O            2.335828465371     0.762832690810    -0.507122138360    15.994914619570
         N            0.093335465371     2.208652690810     0.258418861640    14.003074004430
         N            2.306589465371    -1.322514309190     0.402186861640    14.003074004430
         C            0.192290465371    -0.221422309190    -0.022956138360    12.000000000000
         C           -0.632409934629     0.808494190810     0.056694461640    12.000000000000
         C           -0.489920534629    -1.440409309190    -0.164595138360    12.000000000000
         C           -1.944119534629     0.904052690810     0.134301861640    12.000000000000
         C           -1.879667534629    -1.497801309190    -0.140860138360    12.000000000000
         C           -2.604844534629    -0.312596309190     0.008276861640    12.000000000000
         C            1.682358465371    -0.189662309190    -0.060894138360    12.000000000000
         H            0.084478465371    -2.350771309190    -0.319506138360     1.007825032230
         H           -2.516738534629     1.824002690810     0.242184861640     1.007825032230
         H           -2.391511534629    -2.448343309190    -0.263105138360     1.007825032230
         H           -3.692010534629    -0.335138309190     0.034487861640     1.007825032230
         H            1.022186465371     2.239199690810    -0.152439138360     1.007825032230
         H           -0.479235534629     3.007545690810     0.010876861640     1.007825032230
         H            1.830833465371    -1.901253309190     1.080613861640     1.007825032230
         H            3.312195465371    -1.243754309190     0.499278861640     1.007825032230

  Basis Set: AUG-CC-PVTZ
    Blend: AUG-CC-PVTZ
  Basis Set: (AUG-CC-PVTZ AUX)
    Blend: AUG-CC-PVTZ-JKFIT
	 Reference Energy          =    -453.6426002379909619 [Eh]
	 Singles Energy            =      -0.0000000000000000 [Eh]
	 Same-Spin Energy          =      -0.4866166061040417 [Eh]
	 Opposite-Spin Energy      =      -1.4814809383620648 [Eh]
	 Correlation Energy        =      -1.9680975444661066 [Eh]
	 Total Energy              =    -455.6106977824570663 [Eh]

	 ================> DF-SCS-MP2 Energies <==================
	-----------------------------------------------------------
	 SCS Same-Spin Scale       =       0.3333333333333333 [-]
	 SCS Opposite-Spin Scale   =       1.2000000000000000 [-]
	 SCS Same-Spin Energy      =      -0.1622055353680139 [Eh]
	 SCS Opposite-Spin Energy  =      -1.7777771260344777 [Eh]
	 SCS Correlation Energy    =      -1.9399826614024915 [Eh]
	 SCS Total Energy          =    -455.5825828993934579 [Eh]
	-----------------------------------------------------------

  Dipole Moment: [D]
     X:    -1.5229      Y:    -2.4733      Z:     0.9215     Total:     3.0473

*** Psi4 exiting successfully. Buy a developer a beer!
