                               Psi4 1.4a3.dev225

  ==> Input File <==

--------------------------------------------------------------------------
#psi4
#
memory 32 gb

molecule  {
0 1
  O        2.3476870     0.7564740    -0.5170070
  N        0.1051940     2.2022940     0.2485340
  N        2.3184480    -1.3288730     0.3923020
  C        0.2041490    -0.2277810    -0.0328410
  C       -0.5292580     0.9782650     0.0721850
  C       -0.5266502    -1.5335863    -0.1845678
  C       -1.9322610     0.8976940     0.1244170
  C       -1.8678090    -1.5041600    -0.1507450
  C       -2.5929860    -0.3189550    -0.0016080
  C        1.6942170    -0.1960210    -0.0707790
  H        0.0963370    -2.3571300    -0.3293910
  H       -2.5048800     1.8176440     0.2323000
  H       -2.3796530    -2.4547020    -0.2729900
  H       -3.6801520    -0.3414970     0.0246030
  H        1.0340450     2.2328410    -0.1623240
  H       -0.4673770     3.0011870     0.0009920
  H        1.8426920    -1.9076120     1.0707290
  H        3.3240540    -1.2501130     0.4893940
units angstrom
no_reorient  #important for SAPT in psi4, default
symmetry c1  #important for SAPT in psi4, default
}

set PROPERTIES_ORIGIN ["COM"]
properties('MP2/aug-cc-pvtz', properties = ['dipole'])
--------------------------------------------------------------------------

    Molecular point group: c1
  Charge       = 0
  Multiplicity = 1
  Basis Set: AUG-CC-PVTZ
    Blend: AUG-CC-PVTZ
  Basis Set: (AUG-CC-PVTZ AUX)
    Blend: AUG-CC-PVTZ-JKFIT

    Orbital Energies [Eh]
    ---------------------

    Doubly Occupied:

       1A    -20.523420     2A    -15.585971     3A    -15.559968
       4A    -11.361038     5A    -11.297421     6A    -11.256319
       7A    -11.255270     8A    -11.247081     9A    -11.239874
      10A    -11.230573    11A     -1.377340    12A     -1.226116
      13A     -1.211740    14A     -1.136248    15A     -1.027066
      16A     -1.006682    17A     -0.881235    18A     -0.832792
      19A     -0.789521    20A     -0.732052    21A     -0.703335
      22A     -0.689371    23A     -0.672064    24A     -0.635210
      25A     -0.617908    26A     -0.607042    27A     -0.580568
      28A     -0.574055    29A     -0.538111    30A     -0.525748
      31A     -0.503339    32A     -0.457164    33A     -0.432287
      34A     -0.419320    35A     -0.343727    36A     -0.309478

  @DF-RHF Final Energy:  -453.67534259981119

   => Energetics <=

    Nuclear Repulsion Energy =            498.3626812192161424
    One-Electron Energy =               -1605.3031413227220128
    Two-Electron Energy =                 653.2651175036945688
    Total Energy =                       -453.6753425998111879
  Basis Set: (AUG-CC-PVTZ AUX)
    Blend: AUG-CC-PVTZ-RI
    Molecular point group: c1

    Geometry (in Angstrom), charge = 0, multiplicity = 1:

       Center              X                  Y                   Z               Mass
    ------------   -----------------  -----------------  -----------------  -----------------
         O            2.332062122550     0.754955977974    -0.508470413102    15.994914619570
         N            0.089569122550     2.200775977974     0.257070586898    14.003074004430
         N            2.302823122550    -1.330391022026     0.400838586898    14.003074004430
         C            0.188524122550    -0.229299022026    -0.024304413102    12.000000000000
         C           -0.544882877450     0.976746977974     0.080721586898    12.000000000000
         C           -0.542275077450    -1.535104322026    -0.176031213102    12.000000000000
         C           -1.947885877450     0.896175977974     0.132953586898    12.000000000000
         C           -1.883433877450    -1.505678022026    -0.142208413102    12.000000000000
         C           -2.608610877450    -0.320473022026     0.006928586898    12.000000000000
         C            1.678592122550    -0.197539022026    -0.062242413102    12.000000000000
         H            0.080712122550    -2.358648022026    -0.320854413102     1.007825032230
         H           -2.520504877450     1.816125977974     0.240836586898     1.007825032230
         H           -2.395277877450    -2.456220022026    -0.264453413102     1.007825032230
         H           -3.695776877450    -0.343015022026     0.033139586898     1.007825032230
         H            1.018420122550     2.231322977974    -0.153787413102     1.007825032230
         H           -0.483001877450     2.999668977974     0.009528586898     1.007825032230
         H            1.827067122550    -1.909130022026     1.079265586898     1.007825032230
         H            3.308429122550    -1.251631022026     0.497930586898     1.007825032230

  Basis Set: AUG-CC-PVTZ
    Blend: AUG-CC-PVTZ
  Basis Set: (AUG-CC-PVTZ AUX)
    Blend: AUG-CC-PVTZ-JKFIT
	 Reference Energy          =    -453.6753425998111879 [Eh]
	 Singles Energy            =      -0.0000000000000000 [Eh]
	 Same-Spin Energy          =      -0.4859296785824742 [Eh]
	 Opposite-Spin Energy      =      -1.4794589154284705 [Eh]
	 Correlation Energy        =      -1.9653885940109448 [Eh]
	 Total Energy              =    -455.6407311938221483 [Eh]

	 ================> DF-SCS-MP2 Energies <==================
	-----------------------------------------------------------
	 SCS Same-Spin Scale       =       0.3333333333333333 [-]
	 SCS Opposite-Spin Scale   =       1.2000000000000000 [-]
	 SCS Same-Spin Energy      =      -0.1619765595274914 [Eh]
	 SCS Opposite-Spin Energy  =      -1.7753506985141645 [Eh]
	 SCS Correlation Energy    =      -1.9373272580416558 [Eh]
	 SCS Total Energy          =    -455.6126698578528362 [Eh]
	-----------------------------------------------------------

  Dipole Moment: [D]
     X:    -1.2577      Y:    -1.3462      Z:     1.0619     Total:     2.1265

*** Psi4 exiting successfully. Buy a developer a beer!
