                               Psi4 1.4a3.dev225

  ==> Input File <==

--------------------------------------------------------------------------
#psi4
#
memory 32 gb

molecule  {
0 1
  O        2.3476870     0.7564740    -0.5170070
  N        0.1051940     2.2022940     0.2485340
  N        2.3184480    -1.3288730     0.3923020
  C        0.2041490    -0.2277810    -0.0328410
  C       -0.6418782     1.0348116     0.1448845
  C       -0.4780620    -1.4467680    -0.1744800
  C       -1.9322610     0.8976940     0.1244170
  C       -1.8678090    -1.5041600    -0.1507450
  C       -2.5929860    -0.3189550    -0.0016080
  C        1.6942170    -0.1960210    -0.0707790
  H        0.0963370    -2.3571300    -0.3293910
  H       -2.5048800     1.8176440     0.2323000
  H       -2.3796530    -2.4547020    -0.2729900
  H       -3.6801520    -0.3414970     0.0246030
  H        1.0340450     2.2328410    -0.1623240
  H       -0.4673770     3.0011870     0.0009920
  H        1.8426920    -1.9076120     1.0707290
  H        3.3240540    -1.2501130     0.4893940
units angstrom
no_reorient  #important for SAPT in psi4, default
symmetry c1  #important for SAPT in psi4, default
}

set PROPERTIES_ORIGIN ["COM"]
properties('MP2/aug-cc-pvtz', properties = ['dipole'])
--------------------------------------------------------------------------

    Molecular point group: c1
  Charge       = 0
  Multiplicity = 1
  Basis Set: AUG-CC-PVTZ
    Blend: AUG-CC-PVTZ
  Basis Set: (AUG-CC-PVTZ AUX)
    Blend: AUG-CC-PVTZ-JKFIT

    Orbital Energies [Eh]
    ---------------------

    Doubly Occupied:

       1A    -20.526485     2A    -15.587710     3A    -15.557689
       4A    -11.364939     5A    -11.294070     6A    -11.257082
       7A    -11.256920     8A    -11.253805     9A    -11.232892
      10A    -11.220439    11A     -1.379739    12A     -1.225795
      13A     -1.214032    14A     -1.137760    15A     -1.039992
      16A     -1.001745    17A     -0.885830    18A     -0.818257
      19A     -0.796572    20A     -0.736085    21A     -0.701451
      22A     -0.690071    23A     -0.672350    24A     -0.640988
      25A     -0.618003    26A     -0.593365    27A     -0.585963
      28A     -0.573169    29A     -0.544879    30A     -0.530971
      31A     -0.490224    32A     -0.453643    33A     -0.436660
      34A     -0.420251    35A     -0.355009    36A     -0.303169

  @DF-RHF Final Energy:  -453.66467215964775

   => Energetics <=

    Nuclear Repulsion Energy =            498.9623885566248305
    One-Electron Energy =               -1606.4581101092801418
    Two-Electron Energy =                 653.8310493930075609
    Total Energy =                       -453.6646721596478073
  Basis Set: (AUG-CC-PVTZ AUX)
    Blend: AUG-CC-PVTZ-RI
    Molecular point group: c1

    Geometry (in Angstrom), charge = 0, multiplicity = 1:

       Center              X                  Y                   Z               Mass
    ------------   -----------------  -----------------  -----------------  -----------------
         O            2.337709361377     0.742312052597    -0.515771757039    15.994914619570
         N            0.095216361377     2.188132052597     0.249769242961    14.003074004430
         N            2.308470361377    -1.343034947403     0.393537242961    14.003074004430
         C            0.194171361377    -0.241942947403    -0.031605757039    12.000000000000
         C           -0.651855838623     1.020649652597     0.146119742961    12.000000000000
         C           -0.488039638623    -1.460929947403    -0.173244757039    12.000000000000
         C           -1.942238638623     0.883532052597     0.125652242961    12.000000000000
         C           -1.877786638623    -1.518321947403    -0.149509757039    12.000000000000
         C           -2.602963638623    -0.333116947403    -0.000372757039    12.000000000000
         C            1.684239361377    -0.210182947403    -0.069543757039    12.000000000000
         H            0.086359361377    -2.371291947403    -0.328155757039     1.007825032230
         H           -2.514857638623     1.803482052597     0.233535242961     1.007825032230
         H           -2.389630638623    -2.468863947403    -0.271754757039     1.007825032230
         H           -3.690129638623    -0.355658947403     0.025838242961     1.007825032230
         H            1.024067361377     2.218679052597    -0.161088757039     1.007825032230
         H           -0.477354638623     2.987025052597     0.002227242961     1.007825032230
         H            1.832714361377    -1.921773947403     1.071964242961     1.007825032230
         H            3.314076361377    -1.264274947403     0.490629242961     1.007825032230

  Basis Set: AUG-CC-PVTZ
    Blend: AUG-CC-PVTZ
  Basis Set: (AUG-CC-PVTZ AUX)
    Blend: AUG-CC-PVTZ-JKFIT
	 Reference Energy          =    -453.6646721596477505 [Eh]
	 Singles Energy            =      -0.0000000000000000 [Eh]
	 Same-Spin Energy          =      -0.4861289544788877 [Eh]
	 Opposite-Spin Energy      =      -1.4797938001809978 [Eh]
	 Correlation Energy        =      -1.9659227546598856 [Eh]
	 Total Energy              =    -455.6305949143076077 [Eh]

	 ================> DF-SCS-MP2 Energies <==================
	-----------------------------------------------------------
	 SCS Same-Spin Scale       =       0.3333333333333333 [-]
	 SCS Opposite-Spin Scale   =       1.2000000000000000 [-]
	 SCS Same-Spin Energy      =      -0.1620429848262959 [Eh]
	 SCS Opposite-Spin Energy  =      -1.7757525602171973 [Eh]
	 SCS Correlation Energy    =      -1.9377955450434932 [Eh]
	 SCS Total Energy          =    -455.6024677046912643 [Eh]
	-----------------------------------------------------------

  Dipole Moment: [D]
     X:    -1.1050      Y:    -1.4484      Z:     1.0642     Total:     2.1099

*** Psi4 exiting successfully. Buy a developer a beer!
