                               Psi4 1.4a3.dev225

  ==> Input File <==

--------------------------------------------------------------------------
#psi4
#
memory 32 gb

molecule  {
0 1
  O        2.3476870     0.7564740    -0.5170070
  N        0.2307796     2.1288841     0.2462364
  N        2.3184480    -1.3288730     0.3923020
  C        0.2041490    -0.2277810    -0.0328410
  C       -0.5292580     0.9782650     0.0721850
  C       -0.4780620    -1.4467680    -0.1744800
  C       -1.9322610     0.8976940     0.1244170
  C       -1.8678090    -1.5041600    -0.1507450
  C       -2.5929860    -0.3189550    -0.0016080
  C        1.6942170    -0.1960210    -0.0707790
  H        0.0963370    -2.3571300    -0.3293910
  H       -2.5048800     1.8176440     0.2323000
  H       -2.3796530    -2.4547020    -0.2729900
  H       -3.6801520    -0.3414970     0.0246030
  H        1.0340450     2.2328410    -0.1623240
  H       -0.4673770     3.0011870     0.0009920
  H        1.8426920    -1.9076120     1.0707290
  H        3.3240540    -1.2501130     0.4893940
units angstrom
no_reorient  #important for SAPT in psi4, default
symmetry c1  #important for SAPT in psi4, default
}

set PROPERTIES_ORIGIN ["COM"]
properties('MP2/aug-cc-pvtz', properties = ['dipole'])
--------------------------------------------------------------------------

    Molecular point group: c1
  Charge       = 0
  Multiplicity = 1
  Basis Set: AUG-CC-PVTZ
    Blend: AUG-CC-PVTZ
  Basis Set: (AUG-CC-PVTZ AUX)
    Blend: AUG-CC-PVTZ-JKFIT

    Orbital Energies [Eh]
    ---------------------

    Doubly Occupied:

       1A    -20.524466     2A    -15.586847     3A    -15.562888
       4A    -11.362380     5A    -11.298799     6A    -11.255564
       7A    -11.255421     8A    -11.242540     9A    -11.238677
      10A    -11.233192    11A     -1.379159    12A     -1.229827
      13A     -1.213494    14A     -1.138636    15A     -1.036789
      16A     -1.001984    17A     -0.879618    18A     -0.833123
      19A     -0.797259    20A     -0.737382    21A     -0.709626
      22A     -0.690624    23A     -0.657509    24A     -0.643904
      25A     -0.613247    26A     -0.596989    27A     -0.577081
      28A     -0.573695    29A     -0.540856    30A     -0.525347
      31A     -0.504369    32A     -0.457242    33A     -0.435080
      34A     -0.418982    35A     -0.352767    36A     -0.305403

  @DF-RHF Final Energy:  -453.65634333145135

   => Energetics <=

    Nuclear Repulsion Energy =            500.9351235504524311
    One-Electron Energy =               -1610.3613979174842825
    Two-Electron Energy =                 655.7699310355806119
    Total Energy =                       -453.6563433314513532
  Basis Set: (AUG-CC-PVTZ AUX)
    Blend: AUG-CC-PVTZ-RI
    Molecular point group: c1

    Geometry (in Angstrom), charge = 0, multiplicity = 1:

       Center              X                  Y                   Z               Mass
    ------------   -----------------  -----------------  -----------------  -----------------
         O            2.314852216532     0.754854148159    -0.509123637742    15.994914619570
         N            0.197944816532     2.127264248159     0.254119762258    14.003074004430
         N            2.285613216532    -1.330492851841     0.400185362258    14.003074004430
         C            0.171314216532    -0.229400851841    -0.024957637742    12.000000000000
         C           -0.562092783468     0.976645148159     0.080068362258    12.000000000000
         C           -0.510896783468    -1.448387851841    -0.166596637742    12.000000000000
         C           -1.965095783468     0.896074148159     0.132300362258    12.000000000000
         C           -1.900643783468    -1.505779851841    -0.142861637742    12.000000000000
         C           -2.625820783468    -0.320574851841     0.006275362258    12.000000000000
         C            1.661382216532    -0.197640851841    -0.062895637742    12.000000000000
         H            0.063502216532    -2.358749851841    -0.321507637742     1.007825032230
         H           -2.537714783468     1.816024148159     0.240183362258     1.007825032230
         H           -2.412487783468    -2.456321851841    -0.265106637742     1.007825032230
         H           -3.712986783468    -0.343116851841     0.032486362258     1.007825032230
         H            1.001210216532     2.231221148159    -0.154440637742     1.007825032230
         H           -0.500211783468     2.999567148159     0.008875362258     1.007825032230
         H            1.809857216532    -1.909231851841     1.078612362258     1.007825032230
         H            3.291219216532    -1.251732851841     0.497277362258     1.007825032230

  Basis Set: AUG-CC-PVTZ
    Blend: AUG-CC-PVTZ
  Basis Set: (AUG-CC-PVTZ AUX)
    Blend: AUG-CC-PVTZ-JKFIT
	 Reference Energy          =    -453.6563433314513532 [Eh]
	 Singles Energy            =      -0.0000000000000000 [Eh]
	 Same-Spin Energy          =      -0.4867124799557619 [Eh]
	 Opposite-Spin Energy      =      -1.4807138272519178 [Eh]
	 Correlation Energy        =      -1.9674263072076799 [Eh]
	 Total Energy              =    -455.6237696386590414 [Eh]

	 ================> DF-SCS-MP2 Energies <==================
	-----------------------------------------------------------
	 SCS Same-Spin Scale       =       0.3333333333333333 [-]
	 SCS Opposite-Spin Scale   =       1.2000000000000000 [-]
	 SCS Same-Spin Energy      =      -0.1622374933185873 [Eh]
	 SCS Opposite-Spin Energy  =      -1.7768565927023012 [Eh]
	 SCS Correlation Energy    =      -1.9390940860208885 [Eh]
	 SCS Total Energy          =    -455.5954374174722261 [Eh]
	-----------------------------------------------------------

  Dipole Moment: [D]
     X:    -1.2859      Y:    -1.3569      Z:     1.0514     Total:     2.1448

*** Psi4 exiting successfully. Buy a developer a beer!
