                               Psi4 1.4a3.dev225

  ==> Input File <==

--------------------------------------------------------------------------
#psi4
#
memory 32 gb

molecule  {
0 1
  O        2.3476870     0.7564740    -0.5170070
  N        0.1051940     2.2022940     0.2485340
  N        2.3184480    -1.3288730     0.3923020
  C        0.2041490    -0.2277810    -0.0328410
  C       -0.5292580     0.9782650     0.0721850
  C       -0.4780620    -1.4467680    -0.1744800
  C       -1.9322610     0.8976940     0.1244170
  C       -1.8678090    -1.5041600    -0.1507450
  C       -2.5929860    -0.3189550    -0.0016080
  C        1.6942170    -0.1960210    -0.0707790
  H        0.0963370    -2.3571300    -0.3293910
  H       -2.5048800     1.8176440     0.2323000
  H       -2.3796530    -2.4547020    -0.2729900
  H       -3.6801520    -0.3414970     0.0246030
  H        1.0340450     2.2328410    -0.1623240
  H       -0.4673770     3.0011870     0.0009920
  H        1.8426920    -1.9076120     1.0707290
  H        3.3439012    -1.2485585     0.4913103
units angstrom
no_reorient  #important for SAPT in psi4, default
symmetry c1  #important for SAPT in psi4, default
}

set PROPERTIES_ORIGIN ["COM"]
properties('MP2/aug-cc-pvtz', properties = ['dipole'])
--------------------------------------------------------------------------

    Molecular point group: c1
  Charge       = 0
  Multiplicity = 1
  Basis Set: AUG-CC-PVTZ
    Blend: AUG-CC-PVTZ
  Basis Set: (AUG-CC-PVTZ AUX)
    Blend: AUG-CC-PVTZ-JKFIT

    Orbital Energies [Eh]
    ---------------------

    Doubly Occupied:

       1A    -20.526262     2A    -15.589430     3A    -15.560033
       4A    -11.363614     5A    -11.297130     6A    -11.255868
       7A    -11.253226     8A    -11.244385     9A    -11.234560
      10A    -11.232073    11A     -1.379880    12A     -1.227130
      13A     -1.211945    14A     -1.136908    15A     -1.036281
      16A     -0.998502    17A     -0.876545    18A     -0.833371
      19A     -0.792210    20A     -0.735266    21A     -0.697582
      22A     -0.687872    23A     -0.671365    24A     -0.637782
      25A     -0.608666    26A     -0.603899    27A     -0.586164
      28A     -0.574810    29A     -0.539375    30A     -0.523408
      31A     -0.509943    32A     -0.455082    33A     -0.435557
      34A     -0.420123    35A     -0.352163    36A     -0.303189

  @DF-RHF Final Energy:  -453.68563195241580

   => Energetics <=

    Nuclear Repulsion Energy =            499.6423887261818209
    One-Electron Energy =               -1607.8728456012290735
    Two-Electron Energy =                 654.5448249226315056
    Total Energy =                       -453.6856319524158607
  Basis Set: (AUG-CC-PVTZ AUX)
    Blend: AUG-CC-PVTZ-RI
    Molecular point group: c1

    Geometry (in Angstrom), charge = 0, multiplicity = 1:

       Center              X                  Y                   Z               Mass
    ------------   -----------------  -----------------  -----------------  -----------------
         O            2.327629925943     0.747287609786    -0.509374290688    15.994914619570
         N            0.085136925943     2.193107609786     0.256166709312    14.003074004430
         N            2.298390925943    -1.338059390214     0.399934709312    14.003074004430
         C            0.184091925943    -0.236967390214    -0.025208290688    12.000000000000
         C           -0.549315074057     0.969078609786     0.079817709312    12.000000000000
         C           -0.498119074057    -1.455954390214    -0.166847290688    12.000000000000
         C           -1.952318074057     0.888507609786     0.132049709312    12.000000000000
         C           -1.887866074057    -1.513346390214    -0.143112290688    12.000000000000
         C           -2.613043074057    -0.328141390214     0.006024709312    12.000000000000
         C            1.674159925943    -0.205207390214    -0.063146290688    12.000000000000
         H            0.076279925943    -2.366316390214    -0.321758290688     1.007825032230
         H           -2.524937074057     1.808457609786     0.239932709312     1.007825032230
         H           -2.399710074057    -2.463888390214    -0.265357290688     1.007825032230
         H           -3.700209074057    -0.350683390214     0.032235709312     1.007825032230
         H            1.013987925943     2.223654609786    -0.154691290688     1.007825032230
         H           -0.487434074057     2.992000609786     0.008624709312     1.007825032230
         H            1.822634925943    -1.916798390214     1.078361709312     1.007825032230
         H            3.323844125943    -1.257744890214     0.498943009312     1.007825032230

  Basis Set: AUG-CC-PVTZ
    Blend: AUG-CC-PVTZ
  Basis Set: (AUG-CC-PVTZ AUX)
    Blend: AUG-CC-PVTZ-JKFIT
	 Reference Energy          =    -453.6856319524158039 [Eh]
	 Singles Energy            =      -0.0000000000000000 [Eh]
	 Same-Spin Energy          =      -0.4863171698492200 [Eh]
	 Opposite-Spin Energy      =      -1.4792284341626323 [Eh]
	 Correlation Energy        =      -1.9655456040118522 [Eh]
	 Total Energy              =    -455.6511775564276832 [Eh]

	 ================> DF-SCS-MP2 Energies <==================
	-----------------------------------------------------------
	 SCS Same-Spin Scale       =       0.3333333333333333 [-]
	 SCS Opposite-Spin Scale   =       1.2000000000000000 [-]
	 SCS Same-Spin Energy      =      -0.1621057232830733 [Eh]
	 SCS Opposite-Spin Energy  =      -1.7750741209951586 [Eh]
	 SCS Correlation Energy    =      -1.9371798442782320 [Eh]
	 SCS Total Energy          =    -455.6228117966940090 [Eh]
	-----------------------------------------------------------

  Dipole Moment: [D]
     X:    -1.1080      Y:    -1.3559      Z:     1.0631     Total:     2.0485

*** Psi4 exiting successfully. Buy a developer a beer!
