                               Psi4 1.4a3.dev225

  ==> Input File <==

--------------------------------------------------------------------------
#psi4
#
memory 32 gb

molecule  {
0 1
  O        2.3476870     0.7564740    -0.5170070
  N        0.1051940     2.2022940     0.2485340
  N        2.3184480    -1.3288730     0.3923020
  C        0.2041490    -0.2277810    -0.0328410
  C       -0.5292580     0.9782650     0.0721850
  C       -0.4780620    -1.4467680    -0.1744800
  C       -1.9322610     0.8976940     0.1244170
  C       -1.8678090    -1.5041600    -0.1507450
  C       -2.5929860    -0.3189550    -0.0016080
  C        1.6942170    -0.1960210    -0.0707790
  H        0.0963370    -2.3571300    -0.3293910
  H       -2.5048800     1.8176440     0.2323000
  H       -2.3796530    -2.4547020    -0.2729900
  H       -3.6801520    -0.3414970     0.0246030
  H        1.0340450     2.2328410    -0.1623240
  H       -0.4673770     3.0011870     0.0009920
  H        1.7822211    -1.8921384     1.0378549
  H        3.3240540    -1.2501130     0.4893940
units angstrom
no_reorient  #important for SAPT in psi4, default
symmetry c1  #important for SAPT in psi4, default
}

set PROPERTIES_ORIGIN ["COM"]
properties('MP2/aug-cc-pvtz', properties = ['dipole'])
--------------------------------------------------------------------------

    Molecular point group: c1
  Charge       = 0
  Multiplicity = 1
  Basis Set: AUG-CC-PVTZ
    Blend: AUG-CC-PVTZ
  Basis Set: (AUG-CC-PVTZ AUX)
    Blend: AUG-CC-PVTZ-JKFIT

    Orbital Energies [Eh]
    ---------------------

    Doubly Occupied:

       1A    -20.525576     2A    -15.587773     3A    -15.560212
       4A    -11.362471     5A    -11.297487     6A    -11.256506
       7A    -11.253608     8A    -11.244836     9A    -11.235029
      10A    -11.232670    11A     -1.379730    12A     -1.227395
      13A     -1.214838    14A     -1.137439    15A     -1.036886
      16A     -0.998958    17A     -0.876884    18A     -0.834015
      19A     -0.790474    20A     -0.738457    21A     -0.700869
      22A     -0.688192    23A     -0.674305    24A     -0.637304
      25A     -0.609697    26A     -0.604537    27A     -0.586262
      28A     -0.575844    29A     -0.539823    30A     -0.523609
      31A     -0.510519    32A     -0.455483    33A     -0.434602
      34A     -0.420069    35A     -0.352696    36A     -0.303553

  @DF-RHF Final Energy:  -453.68608290097603

   => Energetics <=

    Nuclear Repulsion Energy =            499.9106133355364250
    One-Electron Energy =               -1608.3761698536309268
    Two-Electron Energy =                 654.7794736171184695
    Total Energy =                       -453.6860829009759755
  Basis Set: (AUG-CC-PVTZ AUX)
    Blend: AUG-CC-PVTZ-RI
    Molecular point group: c1

    Geometry (in Angstrom), charge = 0, multiplicity = 1:

       Center              X                  Y                   Z               Mass
    ------------   -----------------  -----------------  -----------------  -----------------
         O            2.328224842984     0.747184510861    -0.509116597816    15.994914619570
         N            0.085731842984     2.193004510861     0.256424402184    14.003074004430
         N            2.298985842984    -1.338162489139     0.400192402184    14.003074004430
         C            0.184686842984    -0.237070489139    -0.024950597816    12.000000000000
         C           -0.548720157016     0.968975510861     0.080075402184    12.000000000000
         C           -0.497524157016    -1.456057489139    -0.166589597816    12.000000000000
         C           -1.951723157016     0.888404510861     0.132307402184    12.000000000000
         C           -1.887271157016    -1.513449489139    -0.142854597816    12.000000000000
         C           -2.612448157016    -0.328244489139     0.006282402184    12.000000000000
         C            1.674754842984    -0.205310489139    -0.062888597816    12.000000000000
         H            0.076874842984    -2.366419489139    -0.321500597816     1.007825032230
         H           -2.524342157016     1.808354510861     0.240190402184     1.007825032230
         H           -2.399115157016    -2.463991489139    -0.265099597816     1.007825032230
         H           -3.699614157016    -0.350786489139     0.032493402184     1.007825032230
         H            1.014582842984     2.223551510861    -0.154433597816     1.007825032230
         H           -0.486839157016     2.991897510861     0.008882402184     1.007825032230
         H            1.762758942984    -1.901427889139     1.045745302184     1.007825032230
         H            3.304591842984    -1.259402489139     0.497284402184     1.007825032230

  Basis Set: AUG-CC-PVTZ
    Blend: AUG-CC-PVTZ
  Basis Set: (AUG-CC-PVTZ AUX)
    Blend: AUG-CC-PVTZ-JKFIT
	 Reference Energy          =    -453.6860829009760323 [Eh]
	 Singles Energy            =      -0.0000000000000000 [Eh]
	 Same-Spin Energy          =      -0.4863154706364947 [Eh]
	 Opposite-Spin Energy      =      -1.4790174994384444 [Eh]
	 Correlation Energy        =      -1.9653329700749391 [Eh]
	 Total Energy              =    -455.6514158710509719 [Eh]

	 ================> DF-SCS-MP2 Energies <==================
	-----------------------------------------------------------
	 SCS Same-Spin Scale       =       0.3333333333333333 [-]
	 SCS Opposite-Spin Scale   =       1.2000000000000000 [-]
	 SCS Same-Spin Energy      =      -0.1621051568788316 [Eh]
	 SCS Opposite-Spin Energy  =      -1.7748209993261332 [Eh]
	 SCS Correlation Energy    =      -1.9369261562049649 [Eh]
	 SCS Total Energy          =    -455.6230090571809797 [Eh]
	-----------------------------------------------------------

  Dipole Moment: [D]
     X:    -1.1811      Y:    -1.3478      Z:     1.0213     Total:     2.0627

*** Psi4 exiting successfully. Buy a developer a beer!
