                               Psi4 1.4a3.dev225

  ==> Input File <==

--------------------------------------------------------------------------
#psi4
#
memory 32 gb

molecule  {
0 1
  O        2.3476870     0.7564740    -0.5170070
  N        0.0174993     2.2423402     0.2593898
  N        2.3184480    -1.3288730     0.3923020
  C        0.2041490    -0.2277810    -0.0328410
  C       -0.5292580     0.9782650     0.0721850
  C       -0.4780620    -1.4467680    -0.1744800
  C       -1.9322610     0.8976940     0.1244170
  C       -1.8678090    -1.5041600    -0.1507450
  C       -2.5929860    -0.3189550    -0.0016080
  C        1.6942170    -0.1960210    -0.0707790
  H        0.0963370    -2.3571300    -0.3293910
  H       -2.5048800     1.8176440     0.2323000
  H       -2.3796530    -2.4547020    -0.2729900
  H       -3.6801520    -0.3414970     0.0246030
  H        1.0340450     2.2328410    -0.1623240
  H       -0.4673770     3.0011870     0.0009920
  H        1.8426920    -1.9076120     1.0707290
  H        3.3240540    -1.2501130     0.4893940
units angstrom
no_reorient  #important for SAPT in psi4, default
symmetry c1  #important for SAPT in psi4, default
}

set PROPERTIES_ORIGIN ["COM"]
properties('MP2/aug-cc-pvtz', properties = ['dipole'])
--------------------------------------------------------------------------

    Molecular point group: c1
  Charge       = 0
  Multiplicity = 1
  Basis Set: AUG-CC-PVTZ
    Blend: AUG-CC-PVTZ
  Basis Set: (AUG-CC-PVTZ AUX)
    Blend: AUG-CC-PVTZ-JKFIT

    Orbital Energies [Eh]
    ---------------------

    Doubly Occupied:

       1A    -20.528362     2A    -15.588724     3A    -15.558337
       4A    -11.365118     5A    -11.297828     6A    -11.256509
       7A    -11.252069     8A    -11.246515     9A    -11.232610
      10A    -11.232194    11A     -1.381621    12A     -1.228472
      13A     -1.215237    14A     -1.137735    15A     -1.037040
      16A     -0.999132    17A     -0.876936    18A     -0.837863
      19A     -0.791484    20A     -0.739465    21A     -0.708416
      22A     -0.681732    23A     -0.674198    24A     -0.634919
      25A     -0.616540    26A     -0.600043    27A     -0.578794
      28A     -0.575855    29A     -0.538773    30A     -0.521309
      31A     -0.512335    32A     -0.454890    33A     -0.435410
      34A     -0.421860    35A     -0.352296    36A     -0.302904

  @DF-RHF Final Energy:  -453.67321965155276

   => Energetics <=

    Nuclear Repulsion Energy =            499.1543103812436470
    One-Electron Energy =               -1606.8280105346775599
    Two-Electron Energy =                 654.0004805018811567
    Total Energy =                       -453.6732196515526994
  Basis Set: (AUG-CC-PVTZ AUX)
    Blend: AUG-CC-PVTZ-RI
    Molecular point group: c1

    Geometry (in Angstrom), charge = 0, multiplicity = 1:

       Center              X                  Y                   Z               Mass
    ------------   -----------------  -----------------  -----------------  -----------------
         O            2.336802087359     0.743177745136    -0.510477327843    15.994914619570
         N            0.006614387359     2.229043945136     0.265919472157    14.003074004430
         N            2.307563087359    -1.342169254864     0.398831672157    14.003074004430
         C            0.193264087359    -0.241077254864    -0.026311327843    12.000000000000
         C           -0.540142912641     0.964968745136     0.078714672157    12.000000000000
         C           -0.488946912641    -1.460064254864    -0.167950327843    12.000000000000
         C           -1.943145912641     0.884397745136     0.130946672157    12.000000000000
         C           -1.878693912641    -1.517456254864    -0.144215327843    12.000000000000
         C           -2.603870912641    -0.332251254864     0.004921672157    12.000000000000
         C            1.683332087359    -0.209317254864    -0.064249327843    12.000000000000
         H            0.085452087359    -2.370426254864    -0.322861327843     1.007825032230
         H           -2.515764912641     1.804347745136     0.238829672157     1.007825032230
         H           -2.390537912641    -2.467998254864    -0.266460327843     1.007825032230
         H           -3.691036912641    -0.354793254864     0.031132672157     1.007825032230
         H            1.023160087359     2.219544745136    -0.155794327843     1.007825032230
         H           -0.478261912641     2.987890745136     0.007521672157     1.007825032230
         H            1.831807087359    -1.920908254864     1.077258672157     1.007825032230
         H            3.313169087359    -1.263409254864     0.495923672157     1.007825032230

  Basis Set: AUG-CC-PVTZ
    Blend: AUG-CC-PVTZ
  Basis Set: (AUG-CC-PVTZ AUX)
    Blend: AUG-CC-PVTZ-JKFIT
	 Reference Energy          =    -453.6732196515527562 [Eh]
	 Singles Energy            =      -0.0000000000000000 [Eh]
	 Same-Spin Energy          =      -0.4864217029396196 [Eh]
	 Opposite-Spin Energy      =      -1.4794873476974810 [Eh]
	 Correlation Energy        =      -1.9659090506371006 [Eh]
	 Total Energy              =    -455.6391287021898506 [Eh]

	 ================> DF-SCS-MP2 Energies <==================
	-----------------------------------------------------------
	 SCS Same-Spin Scale       =       0.3333333333333333 [-]
	 SCS Opposite-Spin Scale   =       1.2000000000000000 [-]
	 SCS Same-Spin Energy      =      -0.1621405676465399 [Eh]
	 SCS Opposite-Spin Energy  =      -1.7753848172369773 [Eh]
	 SCS Correlation Energy    =      -1.9375253848835172 [Eh]
	 SCS Total Energy          =    -455.6107450364362990 [Eh]
	-----------------------------------------------------------

  Dipole Moment: [D]
     X:    -1.0260      Y:    -1.4349      Z:     1.0379     Total:     2.0467

*** Psi4 exiting successfully. Buy a developer a beer!
