                               Psi4 1.4a3.dev225

  ==> Input File <==

--------------------------------------------------------------------------
#psi4
#
memory 32 gb

molecule  {
0 1
  O        2.3476870     0.7564740    -0.5170070
  N        0.1051940     2.2022940     0.2485340
  N        2.3184480    -1.3288730     0.3923020
  C        0.2041490    -0.2277810    -0.0328410
  C       -0.5292580     0.9782650     0.0721850
  C       -0.4780620    -1.4467680    -0.1744800
  C       -1.9322610     0.8976940     0.1244170
  C       -1.8678090    -1.5041600    -0.1507450
  C       -2.6967726    -0.1493296     0.0197363
  C        1.6942170    -0.1960210    -0.0707790
  H        0.0963370    -2.3571300    -0.3293910
  H       -2.5048800     1.8176440     0.2323000
  H       -2.3796530    -2.4547020    -0.2729900
  H       -3.6801520    -0.3414970     0.0246030
  H        1.0340450     2.2328410    -0.1623240
  H       -0.4673770     3.0011870     0.0009920
  H        1.8426920    -1.9076120     1.0707290
  H        3.3240540    -1.2501130     0.4893940
units angstrom
no_reorient  #important for SAPT in psi4, default
symmetry c1  #important for SAPT in psi4, default
}

set PROPERTIES_ORIGIN ["COM"]
properties('MP2/aug-cc-pvtz', properties = ['dipole'])
--------------------------------------------------------------------------

    Molecular point group: c1
  Charge       = 0
  Multiplicity = 1
  Basis Set: AUG-CC-PVTZ
    Blend: AUG-CC-PVTZ
  Basis Set: (AUG-CC-PVTZ AUX)
    Blend: AUG-CC-PVTZ-JKFIT

    Orbital Energies [Eh]
    ---------------------

    Doubly Occupied:

       1A    -20.524217     2A    -15.586108     3A    -15.565834
       4A    -11.361353     5A    -11.304342     6A    -11.256520
       7A    -11.249669     8A    -11.243859     9A    -11.239422
      10A    -11.234772    11A     -1.378227    12A     -1.231094
      13A     -1.212569    14A     -1.129674    15A     -1.050174
      16A     -0.985004    17A     -0.884203    18A     -0.826536
      19A     -0.795113    20A     -0.733830    21A     -0.714196
      22A     -0.695055    23A     -0.672580    24A     -0.635592
      25A     -0.611057    26A     -0.604256    27A     -0.586488
      28A     -0.574383    29A     -0.556790    30A     -0.528359
      31A     -0.467837    32A     -0.448203    33A     -0.434520
      34A     -0.418522    35A     -0.370119    36A     -0.291921

  @DF-RHF Final Energy:  -453.64524399216083

   => Energetics <=

    Nuclear Repulsion Energy =            498.1628827513522424
    One-Electron Energy =               -1604.8114600328369761
    Two-Electron Energy =                 653.0033332893239049
    Total Energy =                       -453.6452439921607720
  Basis Set: (AUG-CC-PVTZ AUX)
    Blend: AUG-CC-PVTZ-RI
    Molecular point group: c1

    Geometry (in Angstrom), charge = 0, multiplicity = 1:

       Center              X                  Y                   Z               Mass
    ------------   -----------------  -----------------  -----------------  -----------------
         O            2.336930290773     0.732339179817    -0.511242536034    15.994914619570
         N            0.094437290773     2.178159179817     0.254298463966    14.003074004430
         N            2.307691290773    -1.353007820183     0.398066463966    14.003074004430
         C            0.193392290773    -0.251915820183    -0.027076536034    12.000000000000
         C           -0.540014709227     0.954130179817     0.077949463966    12.000000000000
         C           -0.488818709227    -1.470902820183    -0.168715536034    12.000000000000
         C           -1.943017709227     0.873559179817     0.130181463966    12.000000000000
         C           -1.878565709227    -1.528294820183    -0.144980536034    12.000000000000
         C           -2.707529309227    -0.173464420183     0.025500763966    12.000000000000
         C            1.683460290773    -0.220155820183    -0.065014536034    12.000000000000
         H            0.085580290773    -2.381264820183    -0.323626536034     1.007825032230
         H           -2.515636709227     1.793509179817     0.238064463966     1.007825032230
         H           -2.390409709227    -2.478836820183    -0.267225536034     1.007825032230
         H           -3.690908709227    -0.365631820183     0.030367463966     1.007825032230
         H            1.023288290773     2.208706179817    -0.156559536034     1.007825032230
         H           -0.478133709227     2.977052179817     0.006756463966     1.007825032230
         H            1.831935290773    -1.931746820183     1.076493463966     1.007825032230
         H            3.313297290773    -1.274247820183     0.495158463966     1.007825032230

  Basis Set: AUG-CC-PVTZ
    Blend: AUG-CC-PVTZ
  Basis Set: (AUG-CC-PVTZ AUX)
    Blend: AUG-CC-PVTZ-JKFIT
	 Reference Energy          =    -453.6452439921608288 [Eh]
	 Singles Energy            =      -0.0000000000000000 [Eh]
	 Same-Spin Energy          =      -0.4856566131041862 [Eh]
	 Opposite-Spin Energy      =      -1.4814270303179224 [Eh]
	 Correlation Energy        =      -1.9670836434221086 [Eh]
	 Total Energy              =    -455.6123276355829148 [Eh]

	 ================> DF-SCS-MP2 Energies <==================
	-----------------------------------------------------------
	 SCS Same-Spin Scale       =       0.3333333333333333 [-]
	 SCS Opposite-Spin Scale   =       1.2000000000000000 [-]
	 SCS Same-Spin Energy      =      -0.1618855377013954 [Eh]
	 SCS Opposite-Spin Energy  =      -1.7777124363815069 [Eh]
	 SCS Correlation Energy    =      -1.9395979740829024 [Eh]
	 SCS Total Energy          =    -455.5848419662437436 [Eh]
	-----------------------------------------------------------

  Dipole Moment: [D]
     X:    -1.2510      Y:    -1.2264      Z:     1.0819     Total:     2.0590

*** Psi4 exiting successfully. Buy a developer a beer!
