                               Psi4 1.4a3.dev225

  ==> Input File <==

--------------------------------------------------------------------------
#psi4
#
memory 32 gb

molecule  {
0 1
  O        2.3476870     0.7564740    -0.5170070
  N        0.1051940     2.2022940     0.2485340
  N        2.3184480    -1.3288730     0.3923020
  C        0.2041490    -0.2277810    -0.0328410
  C       -0.5292580     0.9782650     0.0721850
  C       -0.4780620    -1.4467680    -0.1744800
  C       -1.9322610     0.8976940     0.1244170
  C       -1.8678090    -1.5041600    -0.1507450
  C       -2.6448793    -0.2341423     0.0090642
  C        1.6942170    -0.1960210    -0.0707790
  H        0.0963370    -2.3571300    -0.3293910
  H       -2.5048800     1.8176440     0.2323000
  H       -2.3796530    -2.4547020    -0.2729900
  H       -3.6801520    -0.3414970     0.0246030
  H        1.0340450     2.2328410    -0.1623240
  H       -0.4673770     3.0011870     0.0009920
  H        1.8426920    -1.9076120     1.0707290
  H        3.3240540    -1.2501130     0.4893940
units angstrom
no_reorient  #important for SAPT in psi4, default
symmetry c1  #important for SAPT in psi4, default
}

set PROPERTIES_ORIGIN ["COM"]
properties('MP2/aug-cc-pvtz', properties = ['dipole'])
--------------------------------------------------------------------------

    Molecular point group: c1
  Charge       = 0
  Multiplicity = 1
  Basis Set: AUG-CC-PVTZ
    Blend: AUG-CC-PVTZ
  Basis Set: (AUG-CC-PVTZ AUX)
    Blend: AUG-CC-PVTZ-JKFIT

    Orbital Energies [Eh]
    ---------------------

    Doubly Occupied:

       1A    -20.525164     2A    -15.586790     3A    -15.563129
       4A    -11.362364     5A    -11.300943     6A    -11.255105
       7A    -11.252569     8A    -11.241453     9A    -11.239276
      10A    -11.234499    11A     -1.379076    12A     -1.229199
      13A     -1.213287    14A     -1.132012    15A     -1.042604
      16A     -0.991700    17A     -0.879871    18A     -0.830098
      19A     -0.794445    20A     -0.734946    21A     -0.702218
      22A     -0.694142    23A     -0.673065    24A     -0.636400
      25A     -0.607161    26A     -0.603487    27A     -0.588020
      28A     -0.574922    29A     -0.551267    30A     -0.526955
      31A     -0.492107    32A     -0.450912    33A     -0.435109
      34A     -0.419515    35A     -0.360277    36A     -0.297374

  @DF-RHF Final Energy:  -453.67527592216749

   => Energetics <=

    Nuclear Repulsion Energy =            498.9218817406672315
    One-Electron Energy =               -1606.3913951807132889
    Two-Electron Energy =                 653.7942375178785142
    Total Energy =                       -453.6752759221675433
  Basis Set: (AUG-CC-PVTZ AUX)
    Blend: AUG-CC-PVTZ-RI
    Molecular point group: c1

    Geometry (in Angstrom), charge = 0, multiplicity = 1:

       Center              X                  Y                   Z               Mass
    ------------   -----------------  -----------------  -----------------  -----------------
         O            2.332353612571     0.739819151901    -0.510301320743    15.994914619570
         N            0.089860612571     2.185639151901     0.255239679257    14.003074004430
         N            2.303114612571    -1.345527848099     0.399007679257    14.003074004430
         C            0.188815612571    -0.244435848099    -0.026135320743    12.000000000000
         C           -0.544591387429     0.961610151901     0.078890679257    12.000000000000
         C           -0.493395387429    -1.463422848099    -0.167774320743    12.000000000000
         C           -1.947594387429     0.881039151901     0.131122679257    12.000000000000
         C           -1.883142387429    -1.520814848099    -0.144039320743    12.000000000000
         C           -2.660212687429    -0.250797148099     0.015769879257    12.000000000000
         C            1.678883612571    -0.212675848099    -0.064073320743    12.000000000000
         H            0.081003612571    -2.373784848099    -0.322685320743     1.007825032230
         H           -2.520213387429     1.800989151901     0.239005679257     1.007825032230
         H           -2.394986387429    -2.471356848099    -0.266284320743     1.007825032230
         H           -3.695485387429    -0.358151848099     0.031308679257     1.007825032230
         H            1.018711612571     2.216186151901    -0.155618320743     1.007825032230
         H           -0.482710387429     2.984532151901     0.007697679257     1.007825032230
         H            1.827358612571    -1.924266848099     1.077434679257     1.007825032230
         H            3.308720612571    -1.266767848099     0.496099679257     1.007825032230

  Basis Set: AUG-CC-PVTZ
    Blend: AUG-CC-PVTZ
  Basis Set: (AUG-CC-PVTZ AUX)
    Blend: AUG-CC-PVTZ-JKFIT
	 Reference Energy          =    -453.6752759221674864 [Eh]
	 Singles Energy            =      -0.0000000000000000 [Eh]
	 Same-Spin Energy          =      -0.4858681566684100 [Eh]
	 Opposite-Spin Energy      =      -1.4796060350457414 [Eh]
	 Correlation Energy        =      -1.9654741917141514 [Eh]
	 Total Energy              =    -455.6407501138816656 [Eh]

	 ================> DF-SCS-MP2 Energies <==================
	-----------------------------------------------------------
	 SCS Same-Spin Scale       =       0.3333333333333333 [-]
	 SCS Opposite-Spin Scale   =       1.2000000000000000 [-]
	 SCS Same-Spin Energy      =      -0.1619560522228033 [Eh]
	 SCS Opposite-Spin Energy  =      -1.7755272420548895 [Eh]
	 SCS Correlation Energy    =      -1.9374832942776929 [Eh]
	 SCS Total Energy          =    -455.6127592164451698 [Eh]
	-----------------------------------------------------------

  Dipole Moment: [D]
     X:    -1.1952      Y:    -1.2910      Z:     1.0718     Total:     2.0601

*** Psi4 exiting successfully. Buy a developer a beer!
