                               Psi4 1.4a3.dev225

  ==> Input File <==

--------------------------------------------------------------------------
#psi4
#
memory 32 gb

molecule  {
0 1
  O        2.3476870     0.7564740    -0.5170070
  N        0.1051940     2.2022940     0.2485340
  N        2.3184480    -1.3288730     0.3923020
  C        0.2041490    -0.2277810    -0.0328410
  C       -0.5292580     0.9782650     0.0721850
  C       -0.4780620    -1.4467680    -0.1744800
  C       -1.9322610     0.8976940     0.1244170
  C       -1.8678090    -1.5041600    -0.1507450
  C       -2.6342333    -0.3447702    -0.0049939
  C        1.6942170    -0.1960210    -0.0707790
  H        0.0963370    -2.3571300    -0.3293910
  H       -2.5048800     1.8176440     0.2323000
  H       -2.3796530    -2.4547020    -0.2729900
  H       -3.6801520    -0.3414970     0.0246030
  H        1.0340450     2.2328410    -0.1623240
  H       -0.4673770     3.0011870     0.0009920
  H        1.8426920    -1.9076120     1.0707290
  H        3.3240540    -1.2501130     0.4893940
units angstrom
no_reorient  #important for SAPT in psi4, default
symmetry c1  #important for SAPT in psi4, default
}

set PROPERTIES_ORIGIN ["COM"]
properties('MP2/aug-cc-pvtz', properties = ['dipole'])
--------------------------------------------------------------------------

    Molecular point group: c1
  Charge       = 0
  Multiplicity = 1
  Basis Set: AUG-CC-PVTZ
    Blend: AUG-CC-PVTZ
  Basis Set: (AUG-CC-PVTZ AUX)
    Blend: AUG-CC-PVTZ-JKFIT

    Orbital Energies [Eh]
    ---------------------

    Doubly Occupied:

       1A    -20.527199     2A    -15.588266     3A    -15.558837
       4A    -11.364393     5A    -11.296117     6A    -11.256837
       7A    -11.254928     8A    -11.246288     9A    -11.238056
      10A    -11.233637    11A     -1.380877    12A     -1.225758
      13A     -1.214769    14A     -1.134088    15A     -1.034226
      16A     -0.996927    17A     -0.880969    18A     -0.831894
      19A     -0.793324    20A     -0.736117    21A     -0.701629
      22A     -0.689427    23A     -0.673237    24A     -0.636851
      25A     -0.612425    26A     -0.604584    27A     -0.583656
      28A     -0.575528    29A     -0.540580    30A     -0.525355
      31A     -0.507009    32A     -0.454039    33A     -0.436401
      34A     -0.421068    35A     -0.347893    36A     -0.303668

  @DF-RHF Final Energy:  -453.68262397654411

   => Energetics <=

    Nuclear Repulsion Energy =            498.9013646506704731
    One-Electron Energy =               -1606.3542651883096823
    Two-Electron Energy =                 653.7702765610949882
    Total Energy =                       -453.6826239765441642
  Basis Set: (AUG-CC-PVTZ AUX)
    Blend: AUG-CC-PVTZ-RI
    Molecular point group: c1

    Geometry (in Angstrom), charge = 0, multiplicity = 1:

       Center              X                  Y                   Z               Mass
    ------------   -----------------  -----------------  -----------------  -----------------
         O            2.331414699144     0.749575869983    -0.509061480536    15.994914619570
         N            0.088921699144     2.195395869983     0.256479519464    14.003074004430
         N            2.302175699144    -1.335771130017     0.400247519464    14.003074004430
         C            0.187876699144    -0.234679130017    -0.024895480536    12.000000000000
         C           -0.545530300856     0.971366869983     0.080130519464    12.000000000000
         C           -0.494334300856    -1.453666130017    -0.166534480536    12.000000000000
         C           -1.948533300856     0.890795869983     0.132362519464    12.000000000000
         C           -1.884081300856    -1.511058130017    -0.142799480536    12.000000000000
         C           -2.650505600856    -0.351668330017     0.002951619464    12.000000000000
         C            1.677944699144    -0.202919130017    -0.062833480536    12.000000000000
         H            0.080064699144    -2.364028130017    -0.321445480536     1.007825032230
         H           -2.521152300856     1.810745869983     0.240245519464     1.007825032230
         H           -2.395925300856    -2.461600130017    -0.265044480536     1.007825032230
         H           -3.696424300856    -0.348395130017     0.032548519464     1.007825032230
         H            1.017772699144     2.225942869983    -0.154378480536     1.007825032230
         H           -0.483649300856     2.994288869983     0.008937519464     1.007825032230
         H            1.826419699144    -1.914510130017     1.078674519464     1.007825032230
         H            3.307781699144    -1.257011130017     0.497339519464     1.007825032230

  Basis Set: AUG-CC-PVTZ
    Blend: AUG-CC-PVTZ
  Basis Set: (AUG-CC-PVTZ AUX)
    Blend: AUG-CC-PVTZ-JKFIT
	 Reference Energy          =    -453.6826239765441073 [Eh]
	 Singles Energy            =      -0.0000000000000000 [Eh]
	 Same-Spin Energy          =      -0.4863803734467903 [Eh]
	 Opposite-Spin Energy      =      -1.4795665114282572 [Eh]
	 Correlation Energy        =      -1.9659468848750477 [Eh]
	 Total Energy              =    -455.6485708614191594 [Eh]

	 ================> DF-SCS-MP2 Energies <==================
	-----------------------------------------------------------
	 SCS Same-Spin Scale       =       0.3333333333333333 [-]
	 SCS Opposite-Spin Scale   =       1.2000000000000000 [-]
	 SCS Same-Spin Energy      =      -0.1621267911489301 [Eh]
	 SCS Opposite-Spin Energy  =      -1.7754798137139087 [Eh]
	 SCS Correlation Energy    =      -1.9376066048628389 [Eh]
	 SCS Total Energy          =    -455.6202305814069291 [Eh]
	-----------------------------------------------------------

  Dipole Moment: [D]
     X:    -1.1191      Y:    -1.3843      Z:     1.0587     Total:     2.0711

*** Psi4 exiting successfully. Buy a developer a beer!
