                               Psi4 1.4a3.dev225

  ==> Input File <==

--------------------------------------------------------------------------
#psi4
#
memory 32 gb

molecule  {
0 1
  O        2.3476870     0.7564740    -0.5170070
  N        0.1051940     2.2022940     0.2485340
  N        2.3184480    -1.3288730     0.3923020
  C        0.2041490    -0.2277810    -0.0328410
  C       -0.5292580     0.9782650     0.0721850
  C       -0.4780620    -1.4467680    -0.1744800
  C       -1.9322610     0.8976940     0.1244170
  C       -1.8678090    -1.5041600    -0.1507450
  C       -2.5929860    -0.3189550    -0.0016080
  C        1.6942170    -0.1960210    -0.0707790
  H        0.0963370    -2.3571300    -0.3293910
  H       -2.5048800     1.8176440     0.2323000
  H       -2.3796530    -2.4547020    -0.2729900
  H       -3.4802530    -0.3373522     0.0197835
  H        1.0340450     2.2328410    -0.1623240
  H       -0.4673770     3.0011870     0.0009920
  H        1.8426920    -1.9076120     1.0707290
  H        3.3240540    -1.2501130     0.4893940
units angstrom
no_reorient  #important for SAPT in psi4, default
symmetry c1  #important for SAPT in psi4, default
}

set PROPERTIES_ORIGIN ["COM"]
properties('MP2/aug-cc-pvtz', properties = ['dipole'])
--------------------------------------------------------------------------

    Molecular point group: c1
  Charge       = 0
  Multiplicity = 1
  Basis Set: AUG-CC-PVTZ
    Blend: AUG-CC-PVTZ
  Basis Set: (AUG-CC-PVTZ AUX)
    Blend: AUG-CC-PVTZ-JKFIT

    Orbital Energies [Eh]
    ---------------------

    Doubly Occupied:

       1A    -20.526212     2A    -15.587460     3A    -15.559527
       4A    -11.363447     5A    -11.296221     6A    -11.254918
       7A    -11.244051     8A    -11.233674     9A    -11.231161
      10A    -11.229155    11A     -1.379982    12A     -1.226675
      13A     -1.213971    14A     -1.139011    15A     -1.044088
      16A     -0.997939    17A     -0.892580    18A     -0.833186
      19A     -0.797477    20A     -0.736373    21A     -0.719296
      22A     -0.693534    23A     -0.673248    24A     -0.637909
      25A     -0.615616    26A     -0.604402    27A     -0.586424
      28A     -0.575487    29A     -0.547055    30A     -0.526534
      31A     -0.510363    32A     -0.454526    33A     -0.435653
      34A     -0.420286    35A     -0.351773    36A     -0.302497

  @DF-RHF Final Energy:  -453.65205761449073

   => Energetics <=

    Nuclear Repulsion Energy =            500.9361315935321954
    One-Electron Energy =               -1610.2929604302551070
    Two-Electron Energy =                 655.7047712222320115
    Total Energy =                       -453.6520576144907864
  Basis Set: (AUG-CC-PVTZ AUX)
    Blend: AUG-CC-PVTZ-RI
    Molecular point group: c1

    Geometry (in Angstrom), charge = 0, multiplicity = 1:

       Center              X                  Y                   Z               Mass
    ------------   -----------------  -----------------  -----------------  -----------------
         O            2.326296280300     0.747268423406    -0.509324398544    15.994914619570
         N            0.083803280300     2.193088423406     0.256216601456    14.003074004430
         N            2.297057280300    -1.338078576594     0.399984601456    14.003074004430
         C            0.182758280300    -0.236986576594    -0.025158398544    12.000000000000
         C           -0.550648719700     0.969059423406     0.079867601456    12.000000000000
         C           -0.499452719700    -1.455973576594    -0.166797398544    12.000000000000
         C           -1.953651719700     0.888488423406     0.132099601456    12.000000000000
         C           -1.889199719700    -1.513365576594    -0.143062398544    12.000000000000
         C           -2.614376719700    -0.328160576594     0.006074601456    12.000000000000
         C            1.672826280300    -0.205226576594    -0.063096398544    12.000000000000
         H            0.074946280300    -2.366335576594    -0.321708398544     1.007825032230
         H           -2.526270719700     1.808438423406     0.239982601456     1.007825032230
         H           -2.401043719700    -2.463907576594    -0.265307398544     1.007825032230
         H           -3.501643719700    -0.346557776594     0.027466101456     1.007825032230
         H            1.012654280300     2.223635423406    -0.154641398544     1.007825032230
         H           -0.488767719700     2.991981423406     0.008674601456     1.007825032230
         H            1.821301280300    -1.916817576594     1.078411601456     1.007825032230
         H            3.302663280300    -1.259318576594     0.497076601456     1.007825032230

  Basis Set: AUG-CC-PVTZ
    Blend: AUG-CC-PVTZ
  Basis Set: (AUG-CC-PVTZ AUX)
    Blend: AUG-CC-PVTZ-JKFIT
	 Reference Energy          =    -453.6520576144907295 [Eh]
	 Singles Energy            =      -0.0000000000000000 [Eh]
	 Same-Spin Energy          =      -0.4860364389273407 [Eh]
	 Opposite-Spin Energy      =      -1.4784398207624176 [Eh]
	 Correlation Energy        =      -1.9644762596897585 [Eh]
	 Total Energy              =    -455.6165338741805044 [Eh]

	 ================> DF-SCS-MP2 Energies <==================
	-----------------------------------------------------------
	 SCS Same-Spin Scale       =       0.3333333333333333 [-]
	 SCS Opposite-Spin Scale   =       1.2000000000000000 [-]
	 SCS Same-Spin Energy      =      -0.1620121463091136 [Eh]
	 SCS Opposite-Spin Energy  =      -1.7741277849149011 [Eh]
	 SCS Correlation Energy    =      -1.9361399312240146 [Eh]
	 SCS Total Energy          =    -455.5881975457147632 [Eh]
	-----------------------------------------------------------

  Dipole Moment: [D]
     X:    -1.1729      Y:    -1.3576      Z:     1.0620     Total:     2.0848

*** Psi4 exiting successfully. Buy a developer a beer!
