                               Psi4 1.4a3.dev225

  ==> Input File <==

--------------------------------------------------------------------------
#psi4
#
memory 32 gb

molecule  {
0 1
  O        2.3476870     0.7564740    -0.5170070
  N        0.1051940     2.2022940     0.2485340
  N        2.3184480    -1.3288730     0.3923020
  C        0.2041490    -0.2277810    -0.0328410
  C       -0.5292580     0.9782650     0.0721850
  C       -0.4780620    -1.4467680    -0.1744800
  C       -1.9322610     0.8976940     0.1244170
  C       -1.8678090    -1.5041600    -0.1507450
  C       -2.5929860    -0.3189550    -0.0016080
  C        1.6942170    -0.1960210    -0.0707790
  H        0.0963370    -2.3571300    -0.3293910
  H       -2.5048800     1.8176440     0.2323000
  H       -2.3796530    -2.4547020    -0.2729900
  H       -3.8800510    -0.3456418     0.0294225
  H        1.0340450     2.2328410    -0.1623240
  H       -0.4673770     3.0011870     0.0009920
  H        1.8426920    -1.9076120     1.0707290
  H        3.3240540    -1.2501130     0.4893940
units angstrom
no_reorient  #important for SAPT in psi4, default
symmetry c1  #important for SAPT in psi4, default
}

set PROPERTIES_ORIGIN ["COM"]
properties('MP2/aug-cc-pvtz', properties = ['dipole'])
--------------------------------------------------------------------------

    Molecular point group: c1
  Charge       = 0
  Multiplicity = 1
  Basis Set: AUG-CC-PVTZ
    Blend: AUG-CC-PVTZ
  Basis Set: (AUG-CC-PVTZ AUX)
    Blend: AUG-CC-PVTZ-JKFIT

    Orbital Energies [Eh]
    ---------------------

    Doubly Occupied:

       1A    -20.527187     2A    -15.588397     3A    -15.561110
       4A    -11.364501     5A    -11.298801     6A    -11.274736
       7A    -11.257589     8A    -11.245431     9A    -11.236822
      10A    -11.234436    11A     -1.380964    12A     -1.228310
      13A     -1.214951    14A     -1.137508    15A     -1.034194
      16A     -1.000003    17A     -0.870654    18A     -0.835050
      19A     -0.791319    20A     -0.737131    21A     -0.697261
      22A     -0.675188    23A     -0.672654    24A     -0.638227
      25A     -0.607169    26A     -0.600295    27A     -0.586151
      28A     -0.575285    29A     -0.535175    30A     -0.517524
      31A     -0.501389    32A     -0.456377    33A     -0.436101
      34A     -0.421065    35A     -0.353577    36A     -0.304532

  @DF-RHF Final Energy:  -453.66445893836391

   => Energetics <=

    Nuclear Repulsion Energy =            498.8269845109592779
    One-Electron Energy =               -1606.1887574912684613
    Two-Electron Energy =                 653.6973140419451056
    Total Energy =                       -453.6644589383639641
  Basis Set: (AUG-CC-PVTZ AUX)
    Blend: AUG-CC-PVTZ-RI
    Molecular point group: c1

    Geometry (in Angstrom), charge = 0, multiplicity = 1:

       Center              X                  Y                   Z               Mass
    ------------   -----------------  -----------------  -----------------  -----------------
         O            2.329257588438     0.747329824563    -0.509395794722    15.994914619570
         N            0.086764588438     2.193149824563     0.256145205278    14.003074004430
         N            2.300018588438    -1.338017175437     0.399913205278    14.003074004430
         C            0.185719588438    -0.236925175437    -0.025229794722    12.000000000000
         C           -0.547687411562     0.969120824563     0.079796205278    12.000000000000
         C           -0.496491411562    -1.455912175437    -0.166868794722    12.000000000000
         C           -1.950690411562     0.888549824563     0.132028205278    12.000000000000
         C           -1.886238411562    -1.513304175437    -0.143133794722    12.000000000000
         C           -2.611415411562    -0.328099175437     0.006003205278    12.000000000000
         C            1.675787588438    -0.205165175437    -0.063167794722    12.000000000000
         H            0.077907588438    -2.366274175437    -0.321779794722     1.007825032230
         H           -2.523309411562     1.808499824563     0.239911205278     1.007825032230
         H           -2.398082411562    -2.463846175437    -0.265378794722     1.007825032230
         H           -3.898480411562    -0.354785975437     0.037033705278     1.007825032230
         H            1.015615588438     2.223696824563    -0.154712794722     1.007825032230
         H           -0.485806411562     2.992042824563     0.008603205278     1.007825032230
         H            1.824262588438    -1.916756175437     1.078340205278     1.007825032230
         H            3.305624588438    -1.259257175437     0.497005205278     1.007825032230

  Basis Set: AUG-CC-PVTZ
    Blend: AUG-CC-PVTZ
  Basis Set: (AUG-CC-PVTZ AUX)
    Blend: AUG-CC-PVTZ-JKFIT
	 Reference Energy          =    -453.6644589383639072 [Eh]
	 Singles Energy            =      -0.0000000000000000 [Eh]
	 Same-Spin Energy          =      -0.4866815022475115 [Eh]
	 Opposite-Spin Energy      =      -1.4811312296130179 [Eh]
	 Correlation Energy        =      -1.9678127318605294 [Eh]
	 Total Energy              =    -455.6322716702244406 [Eh]

	 ================> DF-SCS-MP2 Energies <==================
	-----------------------------------------------------------
	 SCS Same-Spin Scale       =       0.3333333333333333 [-]
	 SCS Opposite-Spin Scale   =       1.2000000000000000 [-]
	 SCS Same-Spin Energy      =      -0.1622271674158371 [Eh]
	 SCS Opposite-Spin Energy  =      -1.7773574755356214 [Eh]
	 SCS Correlation Energy    =      -1.9395846429514585 [Eh]
	 SCS Total Energy          =    -455.6040435813153522 [Eh]
	-----------------------------------------------------------

  Dipole Moment: [D]
     X:    -1.0073      Y:    -1.3483      Z:     1.0597     Total:     1.9889

*** Psi4 exiting successfully. Buy a developer a beer!
