                               Psi4 1.4a3.dev225

  ==> Input File <==

--------------------------------------------------------------------------
#psi4
#
memory 32 gb

molecule  {
0 1
  O        2.3476870     0.7564740    -0.5170070
  N        0.1051940     2.2022940     0.2485340
  N        2.3184480    -1.3288730     0.3923020
  C        0.2041490    -0.2277810    -0.0328410
  C       -0.5292580     0.9782650     0.0721850
  C       -0.4780620    -1.4467680    -0.1744800
  C       -1.9322610     0.8976940     0.1244170
  C       -1.8678090    -1.5041600    -0.1507450
  C       -2.5929860    -0.3189550    -0.0016080
  C        1.6942170    -0.1960210    -0.0707790
  H        0.0963370    -2.3571300    -0.3293910
  H       -2.5048800     1.8176440     0.2323000
  H       -2.3796530    -2.4547020    -0.2729900
  H       -3.6301773    -0.3404608     0.0233981
  H        1.0340450     2.2328410    -0.1623240
  H       -0.4673770     3.0011870     0.0009920
  H        1.8426920    -1.9076120     1.0707290
  H        3.3240540    -1.2501130     0.4893940
units angstrom
no_reorient  #important for SAPT in psi4, default
symmetry c1  #important for SAPT in psi4, default
}

set PROPERTIES_ORIGIN ["COM"]
properties('MP2/aug-cc-pvtz', properties = ['dipole'])
--------------------------------------------------------------------------

    Molecular point group: c1
  Charge       = 0
  Multiplicity = 1
  Basis Set: AUG-CC-PVTZ
    Blend: AUG-CC-PVTZ
  Basis Set: (AUG-CC-PVTZ AUX)
    Blend: AUG-CC-PVTZ-JKFIT

    Orbital Energies [Eh]
    ---------------------

    Doubly Occupied:

       1A    -20.526363     2A    -15.587624     3A    -15.559909
       4A    -11.363621     5A    -11.296875     6A    -11.255616
       7A    -11.247395     8A    -11.244234     9A    -11.234216
      10A    -11.231712    11A     -1.380143    12A     -1.227000
      13A     -1.214144    14A     -1.137287    15A     -1.037893
      16A     -0.998340    17A     -0.880130    18A     -0.833578
      19A     -0.793697    20A     -0.736283    21A     -0.701768
      22A     -0.690941    23A     -0.673469    24A     -0.637893
      25A     -0.610636    26A     -0.604357    27A     -0.586369
      28A     -0.575331    29A     -0.541412    30A     -0.524724
      31A     -0.510255    32A     -0.454923    33A     -0.435691
      34A     -0.420417    35A     -0.352028    36A     -0.303007

  @DF-RHF Final Energy:  -453.68589623674194

   => Energetics <=

    Nuclear Repulsion Energy =            500.0222891535765939
    One-Electron Energy =               -1608.5978068403353518
    Two-Electron Energy =                 654.8896214500167616
    Total Energy =                       -453.6858962367419963
  Basis Set: (AUG-CC-PVTZ AUX)
    Blend: AUG-CC-PVTZ-RI
    Molecular point group: c1

    Geometry (in Angstrom), charge = 0, multiplicity = 1:

       Center              X                  Y                   Z               Mass
    ------------   -----------------  -----------------  -----------------  -----------------
         O            2.327406771222     0.747291448840    -0.509351171926    15.994914619570
         N            0.084913771222     2.193111448840     0.256189828074    14.003074004430
         N            2.298167771222    -1.338055551160     0.399957828074    14.003074004430
         C            0.183868771222    -0.236963551160    -0.025185171926    12.000000000000
         C           -0.549538228778     0.969082448840     0.079840828074    12.000000000000
         C           -0.498342228778    -1.455950551160    -0.166824171926    12.000000000000
         C           -1.952541228778     0.888511448840     0.132072828074    12.000000000000
         C           -1.888089228778    -1.513342551160    -0.143089171926    12.000000000000
         C           -2.613266228778    -0.328137551160     0.006047828074    12.000000000000
         C            1.673936771222    -0.205203551160    -0.063123171926    12.000000000000
         H            0.076056771222    -2.366312551160    -0.321735171926     1.007825032230
         H           -2.525160228778     1.808461448840     0.239955828074     1.007825032230
         H           -2.399933228778    -2.463884551160    -0.265334171926     1.007825032230
         H           -3.650457528778    -0.349643351160     0.031053928074     1.007825032230
         H            1.013764771222     2.223658448840    -0.154668171926     1.007825032230
         H           -0.487657228778     2.992004448840     0.008647828074     1.007825032230
         H            1.822411771222    -1.916794551160     1.078384828074     1.007825032230
         H            3.303773771222    -1.259295551160     0.497049828074     1.007825032230

  Basis Set: AUG-CC-PVTZ
    Blend: AUG-CC-PVTZ
  Basis Set: (AUG-CC-PVTZ AUX)
    Blend: AUG-CC-PVTZ-JKFIT
	 Reference Energy          =    -453.6858962367419394 [Eh]
	 Singles Energy            =      -0.0000000000000000 [Eh]
	 Same-Spin Energy          =      -0.4861045898352725 [Eh]
	 Opposite-Spin Energy      =      -1.4785830535593321 [Eh]
	 Correlation Energy        =      -1.9646876433946046 [Eh]
	 Total Energy              =    -455.6505838801365371 [Eh]

	 ================> DF-SCS-MP2 Energies <==================
	-----------------------------------------------------------
	 SCS Same-Spin Scale       =       0.3333333333333333 [-]
	 SCS Opposite-Spin Scale   =       1.2000000000000000 [-]
	 SCS Same-Spin Energy      =      -0.1620348632784242 [Eh]
	 SCS Opposite-Spin Energy  =      -1.7742996642711983 [Eh]
	 SCS Correlation Energy    =      -1.9363345275496224 [Eh]
	 SCS Total Energy          =    -455.6222307642915439 [Eh]
	-----------------------------------------------------------

  Dipole Moment: [D]
     X:    -1.1467      Y:    -1.3561      Z:     1.0617     Total:     2.0691

*** Psi4 exiting successfully. Buy a developer a beer!
