                               Psi4 1.4a3.dev225

  ==> Input File <==

--------------------------------------------------------------------------
#psi4
#
memory 32 gb

molecule  {
0 1
  O        2.3476870     0.7564740    -0.5170070
  N        0.1051940     2.2022940     0.2485340
  N        2.3184480    -1.3288730     0.3923020
  C        0.2041490    -0.2277810    -0.0328410
  C       -0.5292580     0.9782650     0.0721850
  C       -0.4780620    -1.4467680    -0.1744800
  C       -1.9322610     0.8976940     0.1244170
  C       -1.8678090    -1.5041600    -0.1507450
  C       -2.5929860    -0.3189550    -0.0016080
  C        1.6942170    -0.1960210    -0.0707790
  H        0.0963370    -2.3571300    -0.3293910
  H       -2.5048800     1.8176440     0.2323000
  H       -2.3796530    -2.4547020    -0.2729900
  H       -3.6801520    -0.3414970     0.0246030
  H        1.0340450     2.2328410    -0.1623240
  H       -0.4673770     3.0011870     0.0009920
  H        1.8273453    -1.9040052     1.0628144
  H        3.3240540    -1.2501130     0.4893940
units angstrom
no_reorient  #important for SAPT in psi4, default
symmetry c1  #important for SAPT in psi4, default
}

set PROPERTIES_ORIGIN ["COM"]
properties('MP2/aug-cc-pvtz', properties = ['dipole'])
--------------------------------------------------------------------------

    Molecular point group: c1
  Charge       = 0
  Multiplicity = 1
  Basis Set: AUG-CC-PVTZ
    Blend: AUG-CC-PVTZ
  Basis Set: (AUG-CC-PVTZ AUX)
    Blend: AUG-CC-PVTZ-JKFIT

    Orbital Energies [Eh]
    ---------------------

    Doubly Occupied:

       1A    -20.526248     2A    -15.587751     3A    -15.560119
       4A    -11.363416     5A    -11.297248     6A    -11.256067
       7A    -11.253356     8A    -11.244490     9A    -11.234706
      10A    -11.232257    11A     -1.380120    12A     -1.227235
      13A     -1.214385    14A     -1.137169    15A     -1.036682
      16A     -0.998666    17A     -0.877184    18A     -0.833826
      19A     -0.792278    20A     -0.736895    21A     -0.699361
      22A     -0.687995    23A     -0.673794    24A     -0.637780
      25A     -0.609206    26A     -0.604244    27A     -0.586341
      28A     -0.575444    29A     -0.539561    30A     -0.523532
      31A     -0.510142    32A     -0.455221    33A     -0.435461
      34A     -0.420400    35A     -0.352338    36A     -0.303317

  @DF-RHF Final Energy:  -453.68663103720274

   => Energetics <=

    Nuclear Repulsion Energy =            499.7933625439954426
    One-Electron Energy =               -1608.1515198692984541
    Two-Electron Energy =                 654.6715262881001536
    Total Energy =                       -453.6866310372028011
  Basis Set: (AUG-CC-PVTZ AUX)
    Blend: AUG-CC-PVTZ-RI
    Molecular point group: c1

    Geometry (in Angstrom), charge = 0, multiplicity = 1:

       Center              X                  Y                   Z               Mass
    ------------   -----------------  -----------------  -----------------  -----------------
         O            2.327890607543     0.747272408378    -0.509301473105    15.994914619570
         N            0.085397607543     2.193092408378     0.256239526895    14.003074004430
         N            2.298651607543    -1.338074591622     0.400007526895    14.003074004430
         C            0.184352607543    -0.236982591622    -0.025135473105    12.000000000000
         C           -0.549054392457     0.969063408378     0.079890526895    12.000000000000
         C           -0.497858392457    -1.455969591622    -0.166774473105    12.000000000000
         C           -1.952057392457     0.888492408378     0.132122526895    12.000000000000
         C           -1.887605392457    -1.513361591622    -0.143039473105    12.000000000000
         C           -2.612782392457    -0.328156591622     0.006097526895    12.000000000000
         C            1.674420607543    -0.205222591622    -0.063073473105    12.000000000000
         H            0.076540607543    -2.366331591622    -0.321685473105     1.007825032230
         H           -2.524676392457     1.808442408378     0.240005526895     1.007825032230
         H           -2.399449392457    -2.463903591622    -0.265284473105     1.007825032230
         H           -3.699948392457    -0.350698591622     0.032308526895     1.007825032230
         H            1.014248607543     2.223639408378    -0.154618473105     1.007825032230
         H           -0.487173392457     2.991985408378     0.008697526895     1.007825032230
         H            1.807548907543    -1.913206791622     1.070519926895     1.007825032230
         H            3.304257607543    -1.259314591622     0.497099526895     1.007825032230

  Basis Set: AUG-CC-PVTZ
    Blend: AUG-CC-PVTZ
  Basis Set: (AUG-CC-PVTZ AUX)
    Blend: AUG-CC-PVTZ-JKFIT
	 Reference Energy          =    -453.6866310372027442 [Eh]
	 Singles Energy            =      -0.0000000000000000 [Eh]
	 Same-Spin Energy          =      -0.4862110509699512 [Eh]
	 Opposite-Spin Energy      =      -1.4789125495433266 [Eh]
	 Correlation Energy        =      -1.9651236005132779 [Eh]
	 Total Energy              =    -455.6517546377160102 [Eh]

	 ================> DF-SCS-MP2 Energies <==================
	-----------------------------------------------------------
	 SCS Same-Spin Scale       =       0.3333333333333333 [-]
	 SCS Opposite-Spin Scale   =       1.2000000000000000 [-]
	 SCS Same-Spin Energy      =      -0.1620703503233171 [Eh]
	 SCS Opposite-Spin Energy  =      -1.7746950594519919 [Eh]
	 SCS Correlation Energy    =      -1.9367654097753089 [Eh]
	 SCS Total Energy          =    -455.6233964469780631 [Eh]
	-----------------------------------------------------------

  Dipole Moment: [D]
     X:    -1.1416      Y:    -1.3537      Z:     1.0518     Total:     2.0596

*** Psi4 exiting successfully. Buy a developer a beer!
