                               Psi4 1.4a3.dev225

  ==> Input File <==

--------------------------------------------------------------------------
#psi4
#
memory 32 gb

molecule  {
0 1
  O        2.3476870     0.7564740    -0.5170070
  N        0.1051940     2.2022940     0.2485340
  N        2.3184480    -1.3288730     0.3923020
  C        0.2041490    -0.2277810    -0.0328410
  C       -0.5188950     0.9612237     0.0707010
  C       -0.4780620    -1.4467680    -0.1744800
  C       -1.9322610     0.8976940     0.1244170
  C       -1.8678090    -1.5041600    -0.1507450
  C       -2.5929860    -0.3189550    -0.0016080
  C        1.6942170    -0.1960210    -0.0707790
  H        0.0963370    -2.3571300    -0.3293910
  H       -2.5048800     1.8176440     0.2323000
  H       -2.3796530    -2.4547020    -0.2729900
  H       -3.6801520    -0.3414970     0.0246030
  H        1.0340450     2.2328410    -0.1623240
  H       -0.4673770     3.0011870     0.0009920
  H        1.8426920    -1.9076120     1.0707290
  H        3.3240540    -1.2501130     0.4893940
units angstrom
no_reorient  #important for SAPT in psi4, default
symmetry c1  #important for SAPT in psi4, default
}

set PROPERTIES_ORIGIN ["COM"]
properties('MP2/aug-cc-pvtz', properties = ['dipole'])
--------------------------------------------------------------------------

    Molecular point group: c1
  Charge       = 0
  Multiplicity = 1
  Basis Set: AUG-CC-PVTZ
    Blend: AUG-CC-PVTZ
  Basis Set: (AUG-CC-PVTZ AUX)
    Blend: AUG-CC-PVTZ-JKFIT

    Orbital Energies [Eh]
    ---------------------

    Doubly Occupied:

       1A    -20.526749     2A    -15.588101     3A    -15.558792
       4A    -11.364060     5A    -11.296343     6A    -11.255965
       7A    -11.252950     8A    -11.243068     9A    -11.236378
      10A    -11.232883    11A     -1.380543    12A     -1.224011
      13A     -1.214489    14A     -1.137148    15A     -1.038051
      16A     -0.998674    17A     -0.876744    18A     -0.836219
      19A     -0.792361    20A     -0.736870    21A     -0.698377
      22A     -0.685951    23A     -0.673054    24A     -0.637720
      25A     -0.610454    26A     -0.603692    27A     -0.586282
      28A     -0.575745    29A     -0.538448    30A     -0.522256
      31A     -0.512596    32A     -0.453649    33A     -0.435788
      34A     -0.420694    35A     -0.352796    36A     -0.304495

  @DF-RHF Final Energy:  -453.68626421031371

   => Energetics <=

    Nuclear Repulsion Energy =            499.9215625409290737
    One-Electron Energy =               -1608.4108607041246159
    Two-Electron Energy =                 654.8030339528818331
    Total Energy =                       -453.6862642103137659
  Basis Set: (AUG-CC-PVTZ AUX)
    Blend: AUG-CC-PVTZ-RI
    Molecular point group: c1

    Geometry (in Angstrom), charge = 0, multiplicity = 1:

       Center              X                  Y                   Z               Mass
    ------------   -----------------  -----------------  -----------------  -----------------
         O            2.326862979847     0.748802064561    -0.509229216723    15.994914619570
         N            0.084369979847     2.194622064561     0.256311783277    14.003074004430
         N            2.297623979847    -1.336544935439     0.400079783277    14.003074004430
         C            0.183324979847    -0.235452935439    -0.025063216723    12.000000000000
         C           -0.539719020153     0.953551764561     0.078478783277    12.000000000000
         C           -0.498886020153    -1.454439935439    -0.166702216723    12.000000000000
         C           -1.953085020153     0.890022064561     0.132194783277    12.000000000000
         C           -1.888633020153    -1.511831935439    -0.142967216723    12.000000000000
         C           -2.613810020153    -0.326626935439     0.006169783277    12.000000000000
         C            1.673392979847    -0.203692935439    -0.063001216723    12.000000000000
         H            0.075512979847    -2.364801935439    -0.321613216723     1.007825032230
         H           -2.525704020153     1.809972064561     0.240077783277     1.007825032230
         H           -2.400477020153    -2.462373935439    -0.265212216723     1.007825032230
         H           -3.700976020153    -0.349168935439     0.032380783277     1.007825032230
         H            1.013220979847     2.225169064561    -0.154546216723     1.007825032230
         H           -0.488201020153     2.993515064561     0.008769783277     1.007825032230
         H            1.821867979847    -1.915283935439     1.078506783277     1.007825032230
         H            3.303229979847    -1.257784935439     0.497171783277     1.007825032230

  Basis Set: AUG-CC-PVTZ
    Blend: AUG-CC-PVTZ
  Basis Set: (AUG-CC-PVTZ AUX)
    Blend: AUG-CC-PVTZ-JKFIT
	 Reference Energy          =    -453.6862642103137091 [Eh]
	 Singles Energy            =      -0.0000000000000000 [Eh]
	 Same-Spin Energy          =      -0.4860988393676613 [Eh]
	 Opposite-Spin Energy      =      -1.4789343008892368 [Eh]
	 Correlation Energy        =      -1.9650331402568981 [Eh]
	 Total Energy              =    -455.6512973505705872 [Eh]

	 ================> DF-SCS-MP2 Energies <==================
	-----------------------------------------------------------
	 SCS Same-Spin Scale       =       0.3333333333333333 [-]
	 SCS Opposite-Spin Scale   =       1.2000000000000000 [-]
	 SCS Same-Spin Energy      =      -0.1620329464558871 [Eh]
	 SCS Opposite-Spin Energy  =      -1.7747211610670841 [Eh]
	 SCS Correlation Energy    =      -1.9367541075229713 [Eh]
	 SCS Total Energy          =    -455.6230183178366815 [Eh]
	-----------------------------------------------------------

  Dipole Moment: [D]
     X:    -1.1544      Y:    -1.4145      Z:     1.0532     Total:     2.1078

*** Psi4 exiting successfully. Buy a developer a beer!
