                               Psi4 1.3.2 release

  ==> Input File <==

--------------------------------------------------------------------------
#psi4
#
memory 32 gb

molecule  {
0 1
  N       -0.2981960    -1.1935180     0.0024800
  C       -0.8989770     0.0078150    -0.0038810
  C       -0.1842220     1.2188990    -0.0098900
  C        1.2026080     1.1704100     0.0047310
  C        1.8420610    -0.0727780     0.0063770
  C        1.0476300    -1.2144680     0.0024310
  H       -0.7133720     2.1685100    -0.0287310
  H        1.7800030     2.0919190     0.0058730
  H        2.9240706    -0.1531782     0.1135494
  H        1.4978930    -2.2058730     0.0048570
  N       -2.2904670    -0.0069960    -0.0835250
  H       -2.7545740     0.7554310     0.3970350
  H       -2.6685370    -0.9125390     0.1761140
units angstrom
no_reorient  #important for SAPT in psi4, default
symmetry c1  #important for SAPT in psi4, default
}

set PROPERTIES_ORIGIN ["COM"]
properties('MP2/aug-cc-pvtz', properties = ['dipole'])
--------------------------------------------------------------------------

    Molecular point group: c1
  Charge       = 0
  Multiplicity = 1
  Basis Set: AUG-CC-PVTZ
    Blend: AUG-CC-PVTZ
  Basis Set: (AUG-CC-PVTZ AUX)
    Blend: AUG-CC-PVTZ-JKFIT

    Orbital Energies [Eh]
    ---------------------

    Doubly Occupied:

       1A    -15.569347     2A    -15.554443     3A    -11.316698
       4A    -11.275996     5A    -11.259848     6A    -11.233423
       7A    -11.227675     8A     -1.277646     9A     -1.183582
      10A     -1.082928    11A     -1.005508    12A     -0.861455
      13A     -0.837905    14A     -0.716294    15A     -0.698980
      16A     -0.659166    17A     -0.621837    18A     -0.604525
      19A     -0.566613    20A     -0.561083    21A     -0.527004
      22A     -0.460028    23A     -0.419004    24A     -0.380444
      25A     -0.312039

  @DF-RHF Final Energy:  -301.84244253786562

   => Energetics <=

    Nuclear Repulsion Energy =            274.7966685906054067
    One-Electron Energy =                -952.8512818205015265
    Two-Electron Energy =                 376.2121706920305542
    Total Energy =                       -301.8424425378656224
  Basis Set: (AUG-CC-PVTZ AUX)
    Blend: AUG-CC-PVTZ-RI
    Molecular point group: c1

    Geometry (in Angstrom), charge = 0, multiplicity = 1:

       Center              X                  Y                   Z               Mass
    ------------   -----------------  -----------------  -----------------  -----------------
         N           -0.297408747356    -1.175077016650     0.007410546286    14.003074004430
         C           -0.898189747356     0.026255983350     0.001049546286    12.000000000000
         C           -0.183434747356     1.237339983350    -0.004959453714    12.000000000000
         C            1.203395252644     1.188850983350     0.009661546286    12.000000000000
         C            1.842848252644    -0.054337016650     0.011307546286    12.000000000000
         C            1.048417252644    -1.196027016650     0.007361546286    12.000000000000
         H           -0.712584747356     2.186950983350    -0.023800453714     1.007825032230
         H            1.780790252644     2.110359983350     0.010803546286     1.007825032230
         H            2.924857852644    -0.134737216650     0.118479946286     1.007825032230
         H            1.498680252644    -2.187432016650     0.009787546286     1.007825032230
         N           -2.289679747356     0.011444983350    -0.078594453714    14.003074004430
         H           -2.753786747356     0.773871983350     0.401965546286     1.007825032230
         H           -2.667749747356    -0.894098016650     0.181044546286     1.007825032230

  Basis Set: AUG-CC-PVTZ
    Blend: AUG-CC-PVTZ
  Basis Set: (AUG-CC-PVTZ AUX)
    Blend: AUG-CC-PVTZ-JKFIT
	 Reference Energy          =    -301.8424425378656224 [Eh]
	 Singles Energy            =      -0.0000000000000000 [Eh]
	 Same-Spin Energy          =      -0.3283391392740453 [Eh]
	 Opposite-Spin Energy      =      -1.0131334675427230 [Eh]
	 Correlation Energy        =      -1.3414726068167684 [Eh]
	 Total Energy              =    -303.1839151446823735 [Eh]

	 ================> DF-SCS-MP2 Energies <==================
	-----------------------------------------------------------
	 SCS Same-Spin Scale       =       0.3333333333333333 [-]
	 SCS Opposite-Spin Scale   =       1.2000000000000000 [-]
	 SCS Same-Spin Energy      =      -0.1094463797580151 [Eh]
	 SCS Opposite-Spin Energy  =      -1.2157601610512676 [Eh]
	 SCS Correlation Energy    =      -1.3252065408092828 [Eh]
	 SCS Total Energy          =    -303.1676490786749127 [Eh]
	-----------------------------------------------------------

  Dipole Moment: [D]
     X:     0.0091      Y:     1.7502      Z:     1.0693     Total:     2.0510

*** Psi4 exiting successfully. Buy a developer a beer!
