                               Psi4 1.3.2 release

  ==> Input File <==

--------------------------------------------------------------------------
#psi4
#
memory 32 gb

molecule  {
0 1
  N       -0.2981960    -1.1935180     0.0024800
  C       -0.8989770     0.0078150    -0.0038810
  C       -0.1842220     1.2188990    -0.0098900
  C        1.2026080     1.1704100     0.0047310
  C        1.8420610    -0.0727780     0.0063770
  C        1.0476300    -1.2144680     0.0024310
  H       -0.7133720     2.1685100    -0.0287310
  H        1.7779965     2.0919197     0.2558649
  H        2.9246290    -0.1531180     0.0135510
  H        1.4978930    -2.2058730     0.0048570
  N       -2.2904670    -0.0069960    -0.0835250
  H       -2.7545740     0.7554310     0.3970350
  H       -2.6685370    -0.9125390     0.1761140
units angstrom
no_reorient  #important for SAPT in psi4, default
symmetry c1  #important for SAPT in psi4, default
}

set PROPERTIES_ORIGIN ["COM"]
properties('MP2/aug-cc-pvtz', properties = ['dipole'])
--------------------------------------------------------------------------

    Molecular point group: c1
  Charge       = 0
  Multiplicity = 1
  Basis Set: AUG-CC-PVTZ
    Blend: AUG-CC-PVTZ
  Basis Set: (AUG-CC-PVTZ AUX)
    Blend: AUG-CC-PVTZ-JKFIT

    Orbital Energies [Eh]
    ---------------------

    Doubly Occupied:

       1A    -15.569397     2A    -15.554854     3A    -11.316740
       4A    -11.276119     5A    -11.262421     6A    -11.233779
       7A    -11.227807     8A     -1.277833     9A     -1.183717
      10A     -1.082497    11A     -1.005875    12A     -0.860308
      13A     -0.837246    14A     -0.714326    15A     -0.698357
      16A     -0.660037    17A     -0.621732    18A     -0.604666
      19A     -0.567748    20A     -0.556344    21A     -0.526835
      22A     -0.459756    23A     -0.419838    24A     -0.379334
      25A     -0.312188

  @DF-RHF Final Energy:  -301.83865622353568

   => Energetics <=

    Nuclear Repulsion Energy =            274.7120405092458668
    One-Electron Energy =                -952.6818853944824923
    Two-Electron Energy =                 376.1311886617009463
    Total Energy =                       -301.8386562235356791
  Basis Set: (AUG-CC-PVTZ AUX)
    Blend: AUG-CC-PVTZ-RI
    Molecular point group: c1

    Geometry (in Angstrom), charge = 0, multiplicity = 1:

       Center              X                  Y                   Z               Mass
    ------------   -----------------  -----------------  -----------------  -----------------
         N           -0.297393230255    -1.175077669223     0.005803292438    14.003074004430
         C           -0.898174230255     0.026255330777    -0.000557707562    12.000000000000
         C           -0.183419230255     1.237339330777    -0.006566707562    12.000000000000
         C            1.203410769745     1.188850330777     0.008054292438    12.000000000000
         C            1.842863769745    -0.054337669223     0.009700292438    12.000000000000
         C            1.048432769745    -1.196027669223     0.005754292438    12.000000000000
         H           -0.712569230255     2.186950330777    -0.025407707562     1.007825032230
         H            1.778799269745     2.110360030777     0.259188192438     1.007825032230
         H            2.925431769745    -0.134677669223     0.016874292438     1.007825032230
         H            1.498695769745    -2.187432669223     0.008180292438     1.007825032230
         N           -2.289664230255     0.011444330777    -0.080201707562    14.003074004430
         H           -2.753771230255     0.773871330777     0.400358292438     1.007825032230
         H           -2.667734230255    -0.894098669223     0.179437292438     1.007825032230

  Basis Set: AUG-CC-PVTZ
    Blend: AUG-CC-PVTZ
  Basis Set: (AUG-CC-PVTZ AUX)
    Blend: AUG-CC-PVTZ-JKFIT
	 Reference Energy          =    -301.8386562235356791 [Eh]
	 Singles Energy            =      -0.0000000000000000 [Eh]
	 Same-Spin Energy          =      -0.3285863469596032 [Eh]
	 Opposite-Spin Energy      =      -1.0136220434172374 [Eh]
	 Correlation Energy        =      -1.3422083903768405 [Eh]
	 Total Energy              =    -303.1808646139125472 [Eh]

	 ================> DF-SCS-MP2 Energies <==================
	-----------------------------------------------------------
	 SCS Same-Spin Scale       =       0.3333333333333333 [-]
	 SCS Opposite-Spin Scale   =       1.2000000000000000 [-]
	 SCS Same-Spin Energy      =      -0.1095287823198677 [Eh]
	 SCS Opposite-Spin Energy  =      -1.2163464521006848 [Eh]
	 SCS Correlation Energy    =      -1.3258752344205527 [Eh]
	 SCS Total Energy          =    -303.1645314579562296 [Eh]
	-----------------------------------------------------------

  Dipole Moment: [D]
     X:    -0.0050      Y:     1.7080      Z:     1.1520     Total:     2.0602

*** Psi4 exiting successfully. Buy a developer a beer!
