                               Psi4 1.3.2 release

  ==> Input File <==

--------------------------------------------------------------------------
#psi4
#
memory 32 gb

molecule  {
0 1
  N       -0.2981960    -1.1935180     0.0024800
  C       -0.8989770     0.0078150    -0.0038810
  C       -0.1842220     1.2188990    -0.0098900
  C        1.2026080     1.1704100     0.0047310
  C        1.8420610    -0.0727780     0.0063770
  C        1.0476300    -1.2144680     0.0024310
  H       -0.7133720     2.1685100    -0.0287310
  H        1.7800030     2.0919190     0.0058730
  H        2.9246290    -0.1531180     0.0135510
  H        1.4978930    -2.2058730     0.0048570
  N       -2.2943657    -0.0062994     0.0163965
  H       -2.7545740     0.7554310     0.3970350
  H       -2.6685370    -0.9125390     0.1761140
units angstrom
no_reorient  #important for SAPT in psi4, default
symmetry c1  #important for SAPT in psi4, default
}

set PROPERTIES_ORIGIN ["COM"]
properties('MP2/aug-cc-pvtz', properties = ['dipole'])
--------------------------------------------------------------------------

    Molecular point group: c1
  Charge       = 0
  Multiplicity = 1
  Basis Set: AUG-CC-PVTZ
    Blend: AUG-CC-PVTZ
  Basis Set: (AUG-CC-PVTZ AUX)
    Blend: AUG-CC-PVTZ-JKFIT

    Orbital Energies [Eh]
    ---------------------

    Doubly Occupied:

       1A    -15.562231     2A    -15.553140     3A    -11.318020
       4A    -11.275476     5A    -11.259231     6A    -11.232322
       7A    -11.225752     8A     -1.277605     9A     -1.187029
      10A     -1.082122    11A     -1.006839    12A     -0.861493
      13A     -0.840195    14A     -0.723275    15A     -0.708002
      16A     -0.660447    17A     -0.630889    18A     -0.603857
      19A     -0.567261    20A     -0.561475    21A     -0.526254
      22A     -0.456078    23A     -0.418574    24A     -0.379761
      25A     -0.308721

  @DF-RHF Final Energy:  -301.84273444144037

   => Energetics <=

    Nuclear Repulsion Energy =            275.0134239999831038
    One-Electron Energy =                -953.2602184678306685
    Two-Electron Energy =                 376.4040600264072509
    Total Energy =                       -301.8427344414403706
  Basis Set: (AUG-CC-PVTZ AUX)
    Blend: AUG-CC-PVTZ-RI
    Molecular point group: c1

    Geometry (in Angstrom), charge = 0, multiplicity = 1:

       Center              X                  Y                   Z               Mass
    ------------   -----------------  -----------------  -----------------  -----------------
         N           -0.296834273828    -1.175181374854    -0.006394711524    14.003074004430
         C           -0.897615273828     0.026151625146    -0.012755711524    12.000000000000
         C           -0.182860273828     1.237235625146    -0.018764711524    12.000000000000
         C            1.203969726172     1.188746625146    -0.004143711524    12.000000000000
         C            1.843422726172    -0.054441374854    -0.002497711524    12.000000000000
         C            1.048991726172    -1.196131374854    -0.006443711524    12.000000000000
         H           -0.712010273828     2.186846625146    -0.037605711524     1.007825032230
         H            1.781364726172     2.110255625146    -0.003001711524     1.007825032230
         H            2.925990726172    -0.134781374854     0.004676288476     1.007825032230
         H            1.499254726172    -2.187536374854    -0.004017711524     1.007825032230
         N           -2.293003973828     0.012037225146     0.007521788476    14.003074004430
         H           -2.753212273828     0.773767625146     0.388160288476     1.007825032230
         H           -2.667175273828    -0.894202374854     0.167239288476     1.007825032230

  Basis Set: AUG-CC-PVTZ
    Blend: AUG-CC-PVTZ
  Basis Set: (AUG-CC-PVTZ AUX)
    Blend: AUG-CC-PVTZ-JKFIT
	 Reference Energy          =    -301.8427344414403706 [Eh]
	 Singles Energy            =      -0.0000000000000000 [Eh]
	 Same-Spin Energy          =      -0.3279699860074904 [Eh]
	 Opposite-Spin Energy      =      -1.0119122210257756 [Eh]
	 Correlation Energy        =      -1.3398822070332659 [Eh]
	 Total Energy              =    -303.1826166484736405 [Eh]

	 ================> DF-SCS-MP2 Energies <==================
	-----------------------------------------------------------
	 SCS Same-Spin Scale       =       0.3333333333333333 [-]
	 SCS Opposite-Spin Scale   =       1.2000000000000000 [-]
	 SCS Same-Spin Energy      =      -0.1093233286691635 [Eh]
	 SCS Opposite-Spin Energy  =      -1.2142946652309308 [Eh]
	 SCS Correlation Energy    =      -1.3236179939000943 [Eh]
	 SCS Total Energy          =    -303.1663524353404569 [Eh]
	-----------------------------------------------------------

  Dipole Moment: [D]
     X:    -0.1273      Y:     1.7660      Z:     0.7852     Total:     1.9368

*** Psi4 exiting successfully. Buy a developer a beer!
