                               Psi4 1.3.2 release

  ==> Input File <==

--------------------------------------------------------------------------
#psi4
#
memory 32 gb

molecule  {
0 1
  N       -0.2981960    -1.1935180     0.0024800
  C       -0.8989770     0.0078150    -0.0038810
  C       -0.1842220     1.2188990    -0.0098900
  C        1.2026080     1.1704100     0.0047310
  C        1.8420610    -0.0727780     0.0063770
  C        1.0476300    -1.2144680     0.0024310
  H       -0.7133720     2.1685100    -0.0287310
  H        1.7800030     2.0919190     0.0058730
  H        2.9229538    -0.1532985     0.3135463
  H        1.4978930    -2.2058730     0.0048570
  N       -2.2904670    -0.0069960    -0.0835250
  H       -2.7545740     0.7554310     0.3970350
  H       -2.6685370    -0.9125390     0.1761140
units angstrom
no_reorient  #important for SAPT in psi4, default
symmetry c1  #important for SAPT in psi4, default
}

set PROPERTIES_ORIGIN ["COM"]
properties('MP2/aug-cc-pvtz', properties = ['dipole'])
--------------------------------------------------------------------------

    Molecular point group: c1
  Charge       = 0
  Multiplicity = 1
  Basis Set: AUG-CC-PVTZ
    Blend: AUG-CC-PVTZ
  Basis Set: (AUG-CC-PVTZ AUX)
    Blend: AUG-CC-PVTZ-JKFIT

    Orbital Energies [Eh]
    ---------------------

    Doubly Occupied:

       1A    -15.570181     2A    -15.554899     3A    -11.317639
       4A    -11.276822     5A    -11.260319     6A    -11.233708
       7A    -11.230558     8A     -1.278313     9A     -1.184222
      10A     -1.082944    11A     -1.004955    12A     -0.861795
      13A     -0.836784    14A     -0.716203    15A     -0.699310
      16A     -0.654123    17A     -0.622030    18A     -0.604345
      19A     -0.567059    20A     -0.559393    21A     -0.525750
      22A     -0.458940    23A     -0.418832    24A     -0.380697
      25A     -0.312226

  @DF-RHF Final Energy:  -301.83708182290189

   => Energetics <=

    Nuclear Repulsion Energy =            274.6647527335098289
    One-Electron Energy =                -952.5795767561884304
    Two-Electron Energy =                 376.0777421997767647
    Total Energy =                       -301.8370818229018937
  Basis Set: (AUG-CC-PVTZ AUX)
    Blend: AUG-CC-PVTZ-RI
    Molecular point group: c1

    Geometry (in Angstrom), charge = 0, multiplicity = 1:

       Center              X                  Y                   Z               Mass
    ------------   -----------------  -----------------  -----------------  -----------------
         N           -0.297396780297    -1.175075727577     0.005267481506    14.003074004430
         C           -0.898177780297     0.026257272423    -0.001093518494    12.000000000000
         C           -0.183422780297     1.237341272423    -0.007102518494    12.000000000000
         C            1.203407219703     1.188852272423     0.007518481506    12.000000000000
         C            1.842860219703    -0.054335727577     0.009164481506    12.000000000000
         C            1.048429219703    -1.196025727577     0.005218481506    12.000000000000
         H           -0.712572780297     2.186952272423    -0.025943518494     1.007825032230
         H            1.780802219703     2.110361272423     0.008660481506     1.007825032230
         H            2.923753019703    -0.134856227577     0.316333781506     1.007825032230
         H            1.498692219703    -2.187430727577     0.007644481506     1.007825032230
         N           -2.289667780297     0.011446272423    -0.080737518494    14.003074004430
         H           -2.753774780297     0.773873272423     0.399822481506     1.007825032230
         H           -2.667737780297    -0.894096727577     0.178901481506     1.007825032230

  Basis Set: AUG-CC-PVTZ
    Blend: AUG-CC-PVTZ
  Basis Set: (AUG-CC-PVTZ AUX)
    Blend: AUG-CC-PVTZ-JKFIT
	 Reference Energy          =    -301.8370818229018937 [Eh]
	 Singles Energy            =      -0.0000000000000000 [Eh]
	 Same-Spin Energy          =      -0.3284975931606874 [Eh]
	 Opposite-Spin Energy      =      -1.0135848705833528 [Eh]
	 Correlation Energy        =      -1.3420824637440403 [Eh]
	 Total Energy              =    -303.1791642866459142 [Eh]

	 ================> DF-SCS-MP2 Energies <==================
	-----------------------------------------------------------
	 SCS Same-Spin Scale       =       0.3333333333333333 [-]
	 SCS Opposite-Spin Scale   =       1.2000000000000000 [-]
	 SCS Same-Spin Energy      =      -0.1094991977202291 [Eh]
	 SCS Opposite-Spin Energy  =      -1.2163018447000233 [Eh]
	 SCS Correlation Energy    =      -1.3258010424202524 [Eh]
	 SCS Total Energy          =    -303.1628828653221603 [Eh]
	-----------------------------------------------------------

  Dipole Moment: [D]
     X:    -0.0744      Y:     1.7516      Z:     1.1963     Total:     2.1225

*** Psi4 exiting successfully. Buy a developer a beer!
