                               Psi4 1.3.2 release

  ==> Input File <==

--------------------------------------------------------------------------
#psi4
#
memory 32 gb

molecule  {
0 1
  N       -0.2981960    -1.1935180     0.0024800
  C       -0.8989770     0.0078150    -0.0038810
  C       -0.1842220     1.2188990    -0.0098900
  C        1.2026080     1.1704100     0.0047310
  C        1.8420610    -0.0727780     0.0063770
  C        1.0476300    -1.2144680     0.0024310
  H       -0.7133720     2.1685100    -0.0287310
  H        1.7800030     2.0919190     0.0058730
  H        2.9235122    -0.1532383     0.2135478
  H        1.4978930    -2.2058730     0.0048570
  N       -2.2904670    -0.0069960    -0.0835250
  H       -2.7545740     0.7554310     0.3970350
  H       -2.6685370    -0.9125390     0.1761140
units angstrom
no_reorient  #important for SAPT in psi4, default
symmetry c1  #important for SAPT in psi4, default
}

set PROPERTIES_ORIGIN ["COM"]
properties('MP2/aug-cc-pvtz', properties = ['dipole'])
--------------------------------------------------------------------------

    Molecular point group: c1
  Charge       = 0
  Multiplicity = 1
  Basis Set: AUG-CC-PVTZ
    Blend: AUG-CC-PVTZ
  Basis Set: (AUG-CC-PVTZ AUX)
    Blend: AUG-CC-PVTZ-JKFIT

    Orbital Energies [Eh]
    ---------------------

    Doubly Occupied:

       1A    -15.569674     2A    -15.554616     3A    -11.317055
       4A    -11.276312     5A    -11.260015     6A    -11.233522
       7A    -11.228773     8A     -1.277901     9A     -1.183829
      10A     -1.082923    11A     -1.005284    12A     -0.861579
      13A     -0.837452    14A     -0.716229    15A     -0.699100
      16A     -0.657201    17A     -0.621906    18A     -0.604497
      19A     -0.566780    20A     -0.560164    21A     -0.526867
      22A     -0.459557    23A     -0.418908    24A     -0.380540
      25A     -0.312119

  @DF-RHF Final Energy:  -301.84054740170711

   => Energetics <=

    Nuclear Repulsion Energy =            274.7459547581875654
    One-Electron Energy =                -952.7473987785460849
    Two-Electron Energy =                 376.1608966186514635
    Total Energy =                       -301.8405474017071128
  Basis Set: (AUG-CC-PVTZ AUX)
    Blend: AUG-CC-PVTZ-RI
    Molecular point group: c1

    Geometry (in Angstrom), charge = 0, multiplicity = 1:

       Center              X                  Y                   Z               Mass
    ------------   -----------------  -----------------  -----------------  -----------------
         N           -0.297402763826    -1.175076372649     0.006339014431    14.003074004430
         C           -0.898183763826     0.026256627351    -0.000021985569    12.000000000000
         C           -0.183428763826     1.237340627351    -0.006030985569    12.000000000000
         C            1.203401236174     1.188851627351     0.008590014431    12.000000000000
         C            1.842854236174    -0.054336372649     0.010236014431    12.000000000000
         C            1.048423236174    -1.196026372649     0.006290014431    12.000000000000
         H           -0.712578763826     2.186951627351    -0.024871985569     1.007825032230
         H            1.780796236174     2.110360627351     0.009732014431     1.007825032230
         H            2.924305436174    -0.134796672649     0.217406814431     1.007825032230
         H            1.498686236174    -2.187431372649     0.008716014431     1.007825032230
         N           -2.289673763826     0.011445627351    -0.079665985569    14.003074004430
         H           -2.753780763826     0.773872627351     0.400894014431     1.007825032230
         H           -2.667743763826    -0.894097372649     0.179973014431     1.007825032230

  Basis Set: AUG-CC-PVTZ
    Blend: AUG-CC-PVTZ
  Basis Set: (AUG-CC-PVTZ AUX)
    Blend: AUG-CC-PVTZ-JKFIT
	 Reference Energy          =    -301.8405474017071128 [Eh]
	 Singles Energy            =      -0.0000000000000000 [Eh]
	 Same-Spin Energy          =      -0.3283997376431389 [Eh]
	 Opposite-Spin Energy      =      -1.0132862573069903 [Eh]
	 Correlation Energy        =      -1.3416859949501292 [Eh]
	 Total Energy              =    -303.1822333966572387 [Eh]

	 ================> DF-SCS-MP2 Energies <==================
	-----------------------------------------------------------
	 SCS Same-Spin Scale       =       0.3333333333333333 [-]
	 SCS Opposite-Spin Scale   =       1.2000000000000000 [-]
	 SCS Same-Spin Energy      =      -0.1094665792143796 [Eh]
	 SCS Opposite-Spin Energy  =      -1.2159435087683883 [Eh]
	 SCS Correlation Energy    =      -1.3254100879827679 [Eh]
	 SCS Total Energy          =    -303.1659574896899016 [Eh]
	-----------------------------------------------------------

  Dipole Moment: [D]
     X:    -0.0232      Y:     1.7505      Z:     1.1339     Total:     2.0858

*** Psi4 exiting successfully. Buy a developer a beer!
