                               Psi4 1.3.2 release

  ==> Input File <==

--------------------------------------------------------------------------
#psi4
#
memory 32 gb

molecule  {
0 1
  N       -0.2981960    -1.1935180     0.0024800
  C       -0.8989770     0.0078150    -0.0038810
  C       -0.1842220     1.2188990    -0.0098900
  C        1.2026080     1.1704100     0.0047310
  C        1.8420610    -0.0727780     0.0063770
  C        1.0476300    -1.2144680     0.0024310
  H       -0.7133720     2.1685100    -0.0287310
  H        1.7796017     2.0919191     0.0558714
  H        2.9246290    -0.1531180     0.0135510
  H        1.4978930    -2.2058730     0.0048570
  N       -2.2904670    -0.0069960    -0.0835250
  H       -2.7545740     0.7554310     0.3970350
  H       -2.6685370    -0.9125390     0.1761140
units angstrom
no_reorient  #important for SAPT in psi4, default
symmetry c1  #important for SAPT in psi4, default
}

set PROPERTIES_ORIGIN ["COM"]
properties('MP2/aug-cc-pvtz', properties = ['dipole'])
--------------------------------------------------------------------------

    Molecular point group: c1
  Charge       = 0
  Multiplicity = 1
  Basis Set: AUG-CC-PVTZ
    Blend: AUG-CC-PVTZ
  Basis Set: (AUG-CC-PVTZ AUX)
    Blend: AUG-CC-PVTZ-JKFIT

    Orbital Energies [Eh]
    ---------------------

    Doubly Occupied:

       1A    -15.569220     2A    -15.554400     3A    -11.316571
       4A    -11.275890     5A    -11.259908     6A    -11.233397
       7A    -11.227328     8A     -1.277562     9A     -1.183494
      10A     -1.082920    11A     -1.005596    12A     -0.861369
      13A     -0.838039    14A     -0.716234    15A     -0.698918
      16A     -0.659792    17A     -0.621885    18A     -0.604476
      19A     -0.566755    20A     -0.561628    21A     -0.526378
      22A     -0.460246    23A     -0.419211    24A     -0.380337
      25A     -0.311985

  @DF-RHF Final Energy:  -301.84289170039978

   => Energetics <=

    Nuclear Repulsion Energy =            274.8103253302990083
    One-Electron Energy =                -952.8793574742904866
    Two-Electron Energy =                 376.2261404435917598
    Total Energy =                       -301.8428917003997753
  Basis Set: (AUG-CC-PVTZ AUX)
    Blend: AUG-CC-PVTZ-RI
    Molecular point group: c1

    Geometry (in Angstrom), charge = 0, multiplicity = 1:

       Center              X                  Y                   Z               Mass
    ------------   -----------------  -----------------  -----------------  -----------------
         N           -0.297410430759    -1.175077662794     0.007946320785    14.003074004430
         C           -0.898191430759     0.026255337206     0.001585320785    12.000000000000
         C           -0.183436430759     1.237339337206    -0.004423679215    12.000000000000
         C            1.203393569241     1.188850337206     0.010197320785    12.000000000000
         C            1.842846569241    -0.054337662794     0.011843320785    12.000000000000
         C            1.048415569241    -1.196027662794     0.007897320785    12.000000000000
         H           -0.712586430759     2.186950337206    -0.023264679215     1.007825032230
         H            1.780387269241     2.110359437206     0.061337720785     1.007825032230
         H            2.925414569241    -0.134677662794     0.019017320785     1.007825032230
         H            1.498678569241    -2.187432662794     0.010323320785     1.007825032230
         N           -2.289681430759     0.011444337206    -0.078058679215    14.003074004430
         H           -2.753788430759     0.773871337206     0.402501320785     1.007825032230
         H           -2.667751430759    -0.894098662794     0.181580320785     1.007825032230

  Basis Set: AUG-CC-PVTZ
    Blend: AUG-CC-PVTZ
  Basis Set: (AUG-CC-PVTZ AUX)
    Blend: AUG-CC-PVTZ-JKFIT
	 Reference Energy          =    -301.8428917003997753 [Eh]
	 Singles Energy            =      -0.0000000000000000 [Eh]
	 Same-Spin Energy          =      -0.3283292340991594 [Eh]
	 Opposite-Spin Energy      =      -1.0131033893288639 [Eh]
	 Correlation Energy        =      -1.3414326234280232 [Eh]
	 Total Energy              =    -303.1843243238278092 [Eh]

	 ================> DF-SCS-MP2 Energies <==================
	-----------------------------------------------------------
	 SCS Same-Spin Scale       =       0.3333333333333333 [-]
	 SCS Opposite-Spin Scale   =       1.2000000000000000 [-]
	 SCS Same-Spin Energy      =      -0.1094430780330531 [Eh]
	 SCS Opposite-Spin Energy  =      -1.2157240671946365 [Eh]
	 SCS Correlation Energy    =      -1.3251671452276896 [Eh]
	 SCS Total Energy          =    -303.1680588456274563 [Eh]
	-----------------------------------------------------------

  Dipole Moment: [D]
     X:     0.0204      Y:     1.7486      Z:     1.0336     Total:     2.0313

*** Psi4 exiting successfully. Buy a developer a beer!
