                               Psi4 1.3.2 release

  ==> Input File <==

--------------------------------------------------------------------------
#psi4
#
memory 32 gb

molecule  {
0 1
  N       -0.2981960    -1.1935180     0.0024800
  C       -0.8989770     0.0078150    -0.0038810
  C       -0.1842220     1.2188990    -0.0098900
  C        1.2026080     1.1704100     0.0047310
  C        1.8420610    -0.0727780     0.0063770
  C        1.0476300    -1.2144680     0.0024310
  H       -0.7133720     2.1685100    -0.0287310
  H        1.7800030     2.0919190     0.0058730
  H        2.9237914    -0.1532082     0.1635486
  H        1.4978930    -2.2058730     0.0048570
  N       -2.2904670    -0.0069960    -0.0835250
  H       -2.7545740     0.7554310     0.3970350
  H       -2.6685370    -0.9125390     0.1761140
units angstrom
no_reorient  #important for SAPT in psi4, default
symmetry c1  #important for SAPT in psi4, default
}

set PROPERTIES_ORIGIN ["COM"]
properties('MP2/aug-cc-pvtz', properties = ['dipole'])
--------------------------------------------------------------------------

    Molecular point group: c1
  Charge       = 0
  Multiplicity = 1
  Basis Set: AUG-CC-PVTZ
    Blend: AUG-CC-PVTZ
  Basis Set: (AUG-CC-PVTZ AUX)
    Blend: AUG-CC-PVTZ-JKFIT

    Orbital Energies [Eh]
    ---------------------

    Doubly Occupied:

       1A    -15.569487     2A    -15.554516     3A    -11.316847
       4A    -11.276129     5A    -11.259915     6A    -11.233462
       7A    -11.228135     8A     -1.277754     9A     -1.183687
      10A     -1.082924    11A     -1.005412    12A     -0.861505
      13A     -0.837711    14A     -0.716261    15A     -0.699030
      16A     -0.658341    17A     -0.621863    18A     -0.604526
      19A     -0.566681    20A     -0.560611    21A     -0.527048
      22A     -0.459812    23A     -0.418953    24A     -0.380485
      25A     -0.312076

  @DF-RHF Final Energy:  -301.84167058683960

   => Energetics <=

    Nuclear Repulsion Energy =            274.7753349062118673
    One-Electron Energy =                -952.8076668049187674
    Two-Electron Energy =                 376.1906613118672453
    Total Energy =                       -301.8416705868395979
  Basis Set: (AUG-CC-PVTZ AUX)
    Blend: AUG-CC-PVTZ-RI
    Molecular point group: c1

    Geometry (in Angstrom), charge = 0, multiplicity = 1:

       Center              X                  Y                   Z               Mass
    ------------   -----------------  -----------------  -----------------  -----------------
         N           -0.297405755591    -1.175076695185     0.006874780358    14.003074004430
         C           -0.898186755591     0.026256304815     0.000513780358    12.000000000000
         C           -0.183431755591     1.237340304815    -0.005495219642    12.000000000000
         C            1.203398244409     1.188851304815     0.009125780358    12.000000000000
         C            1.842851244409    -0.054336695185     0.010771780358    12.000000000000
         C            1.048420244409    -1.196026695185     0.006825780358    12.000000000000
         H           -0.712581755591     2.186951304815    -0.024336219642     1.007825032230
         H            1.780793244409     2.110360304815     0.010267780358     1.007825032230
         H            2.924581644409    -0.134766895185     0.167943380358     1.007825032230
         H            1.498683244409    -2.187431695185     0.009251780358     1.007825032230
         N           -2.289676755591     0.011445304815    -0.079130219642    14.003074004430
         H           -2.753783755591     0.773872304815     0.401429780358     1.007825032230
         H           -2.667746755591    -0.894097695185     0.180508780358     1.007825032230

  Basis Set: AUG-CC-PVTZ
    Blend: AUG-CC-PVTZ
  Basis Set: (AUG-CC-PVTZ AUX)
    Blend: AUG-CC-PVTZ-JKFIT
	 Reference Energy          =    -301.8416705868395979 [Eh]
	 Singles Energy            =      -0.0000000000000000 [Eh]
	 Same-Spin Energy          =      -0.3283645930568208 [Eh]
	 Opposite-Spin Energy      =      -1.0131934398761540 [Eh]
	 Correlation Energy        =      -1.3415580329329748 [Eh]
	 Total Energy              =    -303.1832286197725921 [Eh]

	 ================> DF-SCS-MP2 Energies <==================
	-----------------------------------------------------------
	 SCS Same-Spin Scale       =       0.3333333333333333 [-]
	 SCS Opposite-Spin Scale   =       1.2000000000000000 [-]
	 SCS Same-Spin Energy      =      -0.1094548643522736 [Eh]
	 SCS Opposite-Spin Energy  =      -1.2158321278513846 [Eh]
	 SCS Correlation Energy    =      -1.3252869922036583 [Eh]
	 SCS Total Energy          =    -303.1669575790432418 [Eh]
	-----------------------------------------------------------

  Dipole Moment: [D]
     X:    -0.0046      Y:     1.7502      Z:     1.1018     Total:     2.0682

*** Psi4 exiting successfully. Buy a developer a beer!
