                               Psi4 1.3.2 release

  ==> Input File <==

--------------------------------------------------------------------------
#psi4
#
memory 32 gb

molecule  {
0 1
  N       -0.2981960    -1.1935180     0.0024800
  C       -0.8989770     0.0078150    -0.0038810
  C       -0.1842220     1.2188990    -0.0098900
  C        1.2026080     1.1704100     0.0047310
  C        1.8420610    -0.0727780     0.0063770
  C        1.0476300    -1.2144680     0.0024310
  H       -0.7139210     2.1691321     0.0212621
  H        1.7800030     2.0919190     0.0058730
  H        2.9246290    -0.1531180     0.0135510
  H        1.4978930    -2.2058730     0.0048570
  N       -2.2904670    -0.0069960    -0.0835250
  H       -2.7545740     0.7554310     0.3970350
  H       -2.6685370    -0.9125390     0.1761140
units angstrom
no_reorient  #important for SAPT in psi4, default
symmetry c1  #important for SAPT in psi4, default
}

set PROPERTIES_ORIGIN ["COM"]
properties('MP2/aug-cc-pvtz', properties = ['dipole'])
--------------------------------------------------------------------------

    Molecular point group: c1
  Charge       = 0
  Multiplicity = 1
  Basis Set: AUG-CC-PVTZ
    Blend: AUG-CC-PVTZ
  Basis Set: (AUG-CC-PVTZ AUX)
    Blend: AUG-CC-PVTZ-JKFIT

    Orbital Energies [Eh]
    ---------------------

    Doubly Occupied:

       1A    -15.569242     2A    -15.554391     3A    -11.316596
       4A    -11.275882     5A    -11.259819     6A    -11.233564
       7A    -11.227305     8A     -1.277572     9A     -1.183509
      10A     -1.082945    11A     -1.005583    12A     -0.861401
      13A     -0.838081    14A     -0.716271    15A     -0.698948
      16A     -0.659885    17A     -0.621749    18A     -0.604102
      19A     -0.566606    20A     -0.562565    21A     -0.525881
      22A     -0.460405    23A     -0.419141    24A     -0.380395
      25A     -0.311989

  @DF-RHF Final Energy:  -301.84290005909173

   => Energetics <=

    Nuclear Repulsion Energy =            274.8096902140586053
    One-Electron Energy =                -952.8775258276665454
    Two-Electron Energy =                 376.2249355545162075
    Total Energy =                       -301.8429000590917326
  Basis Set: (AUG-CC-PVTZ AUX)
    Blend: AUG-CC-PVTZ-RI
    Molecular point group: c1

    Geometry (in Angstrom), charge = 0, multiplicity = 1:

       Center              X                  Y                   Z               Mass
    ------------   -----------------  -----------------  -----------------  -----------------
         N           -0.297408848081    -1.175084327829     0.007946377577    14.003074004430
         C           -0.898189848081     0.026248672171     0.001585377577    12.000000000000
         C           -0.183434848081     1.237332672171    -0.004423622423    12.000000000000
         C            1.203395151919     1.188843672171     0.010197377577    12.000000000000
         C            1.842848151919    -0.054344327829     0.011843377577    12.000000000000
         C            1.048417151919    -1.196034327829     0.007897377577    12.000000000000
         H           -0.713133848081     2.187565772171     0.026728477577     1.007825032230
         H            1.780790151919     2.110352672171     0.011339377577     1.007825032230
         H            2.925416151919    -0.134684327829     0.019017377577     1.007825032230
         H            1.498680151919    -2.187439327829     0.010323377577     1.007825032230
         N           -2.289679848081     0.011437672171    -0.078058622423    14.003074004430
         H           -2.753786848081     0.773864672171     0.402501377577     1.007825032230
         H           -2.667749848081    -0.894105327829     0.181580377577     1.007825032230

  Basis Set: AUG-CC-PVTZ
    Blend: AUG-CC-PVTZ
  Basis Set: (AUG-CC-PVTZ AUX)
    Blend: AUG-CC-PVTZ-JKFIT
	 Reference Energy          =    -301.8429000590917326 [Eh]
	 Singles Energy            =      -0.0000000000000000 [Eh]
	 Same-Spin Energy          =      -0.3283236722522724 [Eh]
	 Opposite-Spin Energy      =      -1.0131071277127659 [Eh]
	 Correlation Energy        =      -1.3414307999650383 [Eh]
	 Total Energy              =    -303.1843308590567858 [Eh]

	 ================> DF-SCS-MP2 Energies <==================
	-----------------------------------------------------------
	 SCS Same-Spin Scale       =       0.3333333333333333 [-]
	 SCS Opposite-Spin Scale   =       1.2000000000000000 [-]
	 SCS Same-Spin Energy      =      -0.1094412240840908 [Eh]
	 SCS Opposite-Spin Energy  =      -1.2157285532553190 [Eh]
	 SCS Correlation Energy    =      -1.3251697773394098 [Eh]
	 SCS Total Energy          =    -303.1680698364311297 [Eh]
	-----------------------------------------------------------

  Dipole Moment: [D]
     X:     0.0212      Y:     1.7495      Z:     1.0340     Total:     2.0323

*** Psi4 exiting successfully. Buy a developer a beer!
