                               Psi4 1.3.2 release

  ==> Input File <==

--------------------------------------------------------------------------
#psi4
#
memory 32 gb

molecule  {
0 1
  N       -0.2981960    -1.1935180     0.0024800
  C       -0.8989770     0.0078150    -0.0038810
  C       -0.1842220     1.2188990    -0.0098900
  C        1.2026080     1.1704100     0.0047310
  C        1.8420610    -0.0727780     0.0063770
  C        1.0476300    -1.2144680     0.0024310
  H       -0.7133720     2.1685100    -0.0287310
  H        1.7800030     2.0919190     0.0058730
  H        2.9246290    -0.1531180     0.0135510
  H        1.4980511    -2.2058273    -0.0951429
  N       -2.2904670    -0.0069960    -0.0835250
  H       -2.7545740     0.7554310     0.3970350
  H       -2.6685370    -0.9125390     0.1761140
units angstrom
no_reorient  #important for SAPT in psi4, default
symmetry c1  #important for SAPT in psi4, default
}

set PROPERTIES_ORIGIN ["COM"]
properties('MP2/aug-cc-pvtz', properties = ['dipole'])
--------------------------------------------------------------------------

    Molecular point group: c1
  Charge       = 0
  Multiplicity = 1
  Basis Set: AUG-CC-PVTZ
    Blend: AUG-CC-PVTZ
  Basis Set: (AUG-CC-PVTZ AUX)
    Blend: AUG-CC-PVTZ-JKFIT

    Orbital Energies [Eh]
    ---------------------

    Doubly Occupied:

       1A    -15.569224     2A    -15.554406     3A    -11.316629
       4A    -11.276288     5A    -11.259852     6A    -11.233484
       7A    -11.227388     8A     -1.277581     9A     -1.183490
      10A     -1.082992    11A     -1.005506    12A     -0.861171
      13A     -0.838056    14A     -0.716000    15A     -0.698958
      16A     -0.659849    17A     -0.621776    18A     -0.603550
      19A     -0.566820    20A     -0.561764    21A     -0.527146
      22A     -0.459386    23A     -0.419278    24A     -0.380347
      25A     -0.312026

  @DF-RHF Final Energy:  -301.84238986999014

   => Energetics <=

    Nuclear Repulsion Energy =            274.7973204495683603
    One-Electron Energy =                -952.8534814473576944
    Two-Electron Energy =                 376.2137711277991912
    Total Energy =                       -301.8423898699901429
  Basis Set: (AUG-CC-PVTZ AUX)
    Blend: AUG-CC-PVTZ-RI
    Molecular point group: c1

    Geometry (in Angstrom), charge = 0, multiplicity = 1:

       Center              X                  Y                   Z               Mass
    ------------   -----------------  -----------------  -----------------  -----------------
         N           -0.297416425004    -1.175078151421     0.009553626067    14.003074004430
         C           -0.898197425004     0.026254848579     0.003192626067    12.000000000000
         C           -0.183442425004     1.237338848579    -0.002816373933    12.000000000000
         C            1.203387574996     1.188849848579     0.011804626067    12.000000000000
         C            1.842840574996    -0.054338151421     0.013450626067    12.000000000000
         C            1.048409574996    -1.196028151421     0.009504626067    12.000000000000
         H           -0.712592425004     2.186949848579    -0.021657373933     1.007825032230
         H            1.780782574996     2.110358848579     0.012946626067     1.007825032230
         H            2.925408574996    -0.134678151421     0.020624626067     1.007825032230
         H            1.498830674996    -2.187387451421    -0.088069273933     1.007825032230
         N           -2.289687425004     0.011443848579    -0.076451373933    14.003074004430
         H           -2.753794425004     0.773870848579     0.404108626067     1.007825032230
         H           -2.667757425004    -0.894099151421     0.183187626067     1.007825032230

  Basis Set: AUG-CC-PVTZ
    Blend: AUG-CC-PVTZ
  Basis Set: (AUG-CC-PVTZ AUX)
    Blend: AUG-CC-PVTZ-JKFIT
	 Reference Energy          =    -301.8423898699901429 [Eh]
	 Singles Energy            =      -0.0000000000000000 [Eh]
	 Same-Spin Energy          =      -0.3283589952030893 [Eh]
	 Opposite-Spin Energy      =      -1.0131592460851222 [Eh]
	 Correlation Energy        =      -1.3415182412882114 [Eh]
	 Total Energy              =    -303.1839081112783560 [Eh]

	 ================> DF-SCS-MP2 Energies <==================
	-----------------------------------------------------------
	 SCS Same-Spin Scale       =       0.3333333333333333 [-]
	 SCS Opposite-Spin Scale   =       1.2000000000000000 [-]
	 SCS Same-Spin Energy      =      -0.1094529984010297 [Eh]
	 SCS Opposite-Spin Energy  =      -1.2157910953021467 [Eh]
	 SCS Correlation Energy    =      -1.3252440937031764 [Eh]
	 SCS Total Energy          =    -303.1676339636933335 [Eh]
	-----------------------------------------------------------

  Dipole Moment: [D]
     X:     0.0172      Y:     1.7579      Z:     0.9511     Total:     1.9988

*** Psi4 exiting successfully. Buy a developer a beer!
