                               Psi4 1.3.2 release

  ==> Input File <==

--------------------------------------------------------------------------
#psi4
#
memory 32 gb

molecule  {
0 1
  N       -0.2981960    -1.1935180     0.0024800
  C       -0.8989770     0.0078150    -0.0038810
  C       -0.1842220     1.2188990    -0.0098900
  C        1.2026080     1.1704100     0.0047310
  C        1.8420610    -0.0727780     0.0063770
  C        1.0476300    -1.2144680     0.0024310
  H       -0.7133720     2.1685100    -0.0287310
  H        1.7800030     2.0919190     0.0058730
  H        2.9246290    -0.1531180     0.0135510
  H        1.4982093    -2.2057815    -0.1951427
  N       -2.2904670    -0.0069960    -0.0835250
  H       -2.7545740     0.7554310     0.3970350
  H       -2.6685370    -0.9125390     0.1761140
units angstrom
no_reorient  #important for SAPT in psi4, default
symmetry c1  #important for SAPT in psi4, default
}

set PROPERTIES_ORIGIN ["COM"]
properties('MP2/aug-cc-pvtz', properties = ['dipole'])
--------------------------------------------------------------------------

    Molecular point group: c1
  Charge       = 0
  Multiplicity = 1
  Basis Set: AUG-CC-PVTZ
    Blend: AUG-CC-PVTZ
  Basis Set: (AUG-CC-PVTZ AUX)
    Blend: AUG-CC-PVTZ-JKFIT

    Orbital Energies [Eh]
    ---------------------

    Doubly Occupied:

       1A    -15.569294     2A    -15.554560     3A    -11.316787
       4A    -11.277572     5A    -11.259981     6A    -11.233718
       7A    -11.227651     8A     -1.277690     9A     -1.183531
      10A     -1.083155    11A     -1.005288    12A     -0.860476
      13A     -0.838050    14A     -0.714904    15A     -0.699041
      16A     -0.659879    17A     -0.621755    18A     -0.601858
      19A     -0.567347    20A     -0.561109    21A     -0.527461
      22A     -0.458398    23A     -0.419306    24A     -0.380219
      25A     -0.312062

  @DF-RHF Final Energy:  -301.84027726066398

   => Energetics <=

    Nuclear Repulsion Energy =            274.7464037766608840
    One-Electron Energy =                -952.7511745950583872
    Two-Electron Energy =                 376.1644935577334650
    Total Energy =                       -301.8402772606639815
  Basis Set: (AUG-CC-PVTZ AUX)
    Blend: AUG-CC-PVTZ-RI
    Molecular point group: c1

    Geometry (in Angstrom), charge = 0, multiplicity = 1:

       Center              X                  Y                   Z               Mass
    ------------   -----------------  -----------------  -----------------  -----------------
         N           -0.297418120195    -1.175078642190     0.010625172923    14.003074004430
         C           -0.898199120195     0.026254357810     0.004264172923    12.000000000000
         C           -0.183444120195     1.237338357810    -0.001744827077    12.000000000000
         C            1.203385879805     1.188849357810     0.012876172923    12.000000000000
         C            1.842838879805    -0.054338642190     0.014522172923    12.000000000000
         C            1.048407879805    -1.196028642190     0.010576172923    12.000000000000
         H           -0.712594120195     2.186949357810    -0.020585827077     1.007825032230
         H            1.780780879805     2.110358357810     0.014018172923     1.007825032230
         H            2.925406879805    -0.134678642190     0.021696172923     1.007825032230
         H            1.498987179805    -2.187342142190    -0.186997527077     1.007825032230
         N           -2.289689120195     0.011443357810    -0.075379827077    14.003074004430
         H           -2.753796120195     0.773870357810     0.405180172923     1.007825032230
         H           -2.667759120195    -0.894099642190     0.184259172923     1.007825032230

  Basis Set: AUG-CC-PVTZ
    Blend: AUG-CC-PVTZ
  Basis Set: (AUG-CC-PVTZ AUX)
    Blend: AUG-CC-PVTZ-JKFIT
	 Reference Energy          =    -301.8402772606639815 [Eh]
	 Singles Energy            =      -0.0000000000000000 [Eh]
	 Same-Spin Energy          =      -0.3284897053140555 [Eh]
	 Opposite-Spin Energy      =      -1.0134177593829472 [Eh]
	 Correlation Energy        =      -1.3419074646970026 [Eh]
	 Total Energy              =    -303.1821847253609690 [Eh]

	 ================> DF-SCS-MP2 Energies <==================
	-----------------------------------------------------------
	 SCS Same-Spin Scale       =       0.3333333333333333 [-]
	 SCS Opposite-Spin Scale   =       1.2000000000000000 [-]
	 SCS Same-Spin Energy      =      -0.1094965684380185 [Eh]
	 SCS Opposite-Spin Energy  =      -1.2161013112595367 [Eh]
	 SCS Correlation Energy    =      -1.3255978796975552 [Eh]
	 SCS Total Energy          =    -303.1658751403615497 [Eh]
	-----------------------------------------------------------

  Dipole Moment: [D]
     X:     0.0045      Y:     1.7802      Z:     0.8997     Total:     1.9947

*** Psi4 exiting successfully. Buy a developer a beer!
