                               Psi4 1.3.2 release

  ==> Input File <==

--------------------------------------------------------------------------
#psi4
#
memory 32 gb

molecule  {
0 1
  N       -0.2981960    -1.1935180     0.0024800
  C       -0.8989770     0.0078150    -0.0038810
  C       -0.1842220     1.2188990    -0.0098900
  C        1.2026080     1.1704100     0.0047310
  C        1.8420610    -0.0727780     0.0063770
  C        1.0476300    -1.2144680     0.0024310
  H       -0.7133720     2.1685100    -0.0287310
  H        1.7800030     2.0919190     0.0058730
  H        2.9246290    -0.1531180     0.0135510
  H        1.4981302    -2.2058044    -0.1451428
  N       -2.2904670    -0.0069960    -0.0835250
  H       -2.7545740     0.7554310     0.3970350
  H       -2.6685370    -0.9125390     0.1761140
units angstrom
no_reorient  #important for SAPT in psi4, default
symmetry c1  #important for SAPT in psi4, default
}

set PROPERTIES_ORIGIN ["COM"]
properties('MP2/aug-cc-pvtz', properties = ['dipole'])
--------------------------------------------------------------------------

    Molecular point group: c1
  Charge       = 0
  Multiplicity = 1
  Basis Set: AUG-CC-PVTZ
    Blend: AUG-CC-PVTZ
  Basis Set: (AUG-CC-PVTZ AUX)
    Blend: AUG-CC-PVTZ-JKFIT

    Orbital Energies [Eh]
    ---------------------

    Doubly Occupied:

       1A    -15.569252     2A    -15.554468     3A    -11.316695
       4A    -11.276824     5A    -11.259906     6A    -11.233581
       7A    -11.227498     8A     -1.277625     9A     -1.183506
      10A     -1.083059    11A     -1.005412    12A     -0.860874
      13A     -0.838053    14A     -0.715540    15A     -0.698992
      16A     -0.659867    17A     -0.621759    18A     -0.602802
      19A     -0.567058    20A     -0.561474    21A     -0.527372
      22A     -0.458895    23A     -0.419309    24A     -0.380291
      25A     -0.312045

  @DF-RHF Final Energy:  -301.84152821685052

   => Energetics <=

    Nuclear Repulsion Energy =            274.7759956632139051
    One-Electron Energy =                -952.8107353837970095
    Two-Electron Energy =                 376.1932115037325275
    Total Energy =                       -301.8415282168505200
  Basis Set: (AUG-CC-PVTZ AUX)
    Blend: AUG-CC-PVTZ-RI
    Molecular point group: c1

    Geometry (in Angstrom), charge = 0, multiplicity = 1:

       Center              X                  Y                   Z               Mass
    ------------   -----------------  -----------------  -----------------  -----------------
         N           -0.297417272600    -1.175078396805     0.010089399495    14.003074004430
         C           -0.898198272600     0.026254603195     0.003728399495    12.000000000000
         C           -0.183443272600     1.237338603195    -0.002280600505    12.000000000000
         C            1.203386727400     1.188849603195     0.012340399495    12.000000000000
         C            1.842839727400    -0.054338396805     0.013986399495    12.000000000000
         C            1.048408727400    -1.196028396805     0.010040399495    12.000000000000
         H           -0.712593272600     2.186949603195    -0.021121600505     1.007825032230
         H            1.780781727400     2.110358603195     0.013482399495     1.007825032230
         H            2.925407727400    -0.134678396805     0.021160399495     1.007825032230
         H            1.498908927400    -2.187364796805    -0.137533400505     1.007825032230
         N           -2.289688272600     0.011443603195    -0.075915600505    14.003074004430
         H           -2.753795272600     0.773870603195     0.404644399495     1.007825032230
         H           -2.667758272600    -0.894099396805     0.183723399495     1.007825032230

  Basis Set: AUG-CC-PVTZ
    Blend: AUG-CC-PVTZ
  Basis Set: (AUG-CC-PVTZ AUX)
    Blend: AUG-CC-PVTZ-JKFIT
	 Reference Energy          =    -301.8415282168505200 [Eh]
	 Singles Energy            =      -0.0000000000000000 [Eh]
	 Same-Spin Energy          =      -0.3284132389989126 [Eh]
	 Opposite-Spin Energy      =      -1.0132617783948525 [Eh]
	 Correlation Energy        =      -1.3416750173937650 [Eh]
	 Total Energy              =    -303.1832032342442744 [Eh]

	 ================> DF-SCS-MP2 Energies <==================
	-----------------------------------------------------------
	 SCS Same-Spin Scale       =       0.3333333333333333 [-]
	 SCS Opposite-Spin Scale   =       1.2000000000000000 [-]
	 SCS Same-Spin Energy      =      -0.1094710796663042 [Eh]
	 SCS Opposite-Spin Energy  =      -1.2159141340738231 [Eh]
	 SCS Correlation Energy    =      -1.3253852137401272 [Eh]
	 SCS Total Energy          =    -303.1669134305906255 [Eh]
	-----------------------------------------------------------

  Dipole Moment: [D]
     X:     0.0119      Y:     1.7672      Z:     0.9252     Total:     1.9948

*** Psi4 exiting successfully. Buy a developer a beer!
