                               Psi4 1.3.2 release

  ==> Input File <==

--------------------------------------------------------------------------
#psi4
#
memory 32 gb

molecule  {
0 1
  N       -0.2981960    -1.1935180     0.0024800
  C       -0.8989770     0.0078150    -0.0038810
  C       -0.1842220     1.2188990    -0.0098900
  C        1.2026080     1.1704100     0.0047310
  C        1.8420610    -0.0727780     0.0063770
  C        1.0476300    -1.2144680     0.0024310
  H       -0.7133720     2.1685100    -0.0287310
  H        1.7800030     2.0919190     0.0058730
  H        2.9246290    -0.1531180     0.0135510
  H        1.4979721    -2.2058501    -0.0451429
  N       -2.2904670    -0.0069960    -0.0835250
  H       -2.7545740     0.7554310     0.3970350
  H       -2.6685370    -0.9125390     0.1761140
units angstrom
no_reorient  #important for SAPT in psi4, default
symmetry c1  #important for SAPT in psi4, default
}

set PROPERTIES_ORIGIN ["COM"]
properties('MP2/aug-cc-pvtz', properties = ['dipole'])
--------------------------------------------------------------------------

    Molecular point group: c1
  Charge       = 0
  Multiplicity = 1
  Basis Set: AUG-CC-PVTZ
    Blend: AUG-CC-PVTZ
  Basis Set: (AUG-CC-PVTZ AUX)
    Blend: AUG-CC-PVTZ-JKFIT

    Orbital Energies [Eh]
    ---------------------

    Doubly Occupied:

       1A    -15.569209     2A    -15.554376     3A    -11.316589
       4A    -11.275971     5A    -11.259820     6A    -11.233425
       7A    -11.227323     8A     -1.277557     9A     -1.183483
      10A     -1.082952    11A     -1.005565    12A     -0.861355
      13A     -0.838061    14A     -0.716268    15A     -0.698938
      16A     -0.659823    17A     -0.621803    18A     -0.604097
      19A     -0.566655    20A     -0.561960    21A     -0.526791
      22A     -0.459868    23A     -0.419216    24A     -0.380385
      25A     -0.312004

  @DF-RHF Final Energy:  -301.84289179570283

   => Energetics <=

    Nuclear Repulsion Energy =            274.8100813017302357
    One-Electron Energy =                -952.8789582277178170
    Two-Electron Energy =                 376.2259851302846982
    Total Energy =                       -301.8428917957028261
  Basis Set: (AUG-CC-PVTZ AUX)
    Blend: AUG-CC-PVTZ-RI
    Molecular point group: c1

    Geometry (in Angstrom), charge = 0, multiplicity = 1:

       Center              X                  Y                   Z               Mass
    ------------   -----------------  -----------------  -----------------  -----------------
         N           -0.297415578481    -1.175077907107     0.009017851568    14.003074004430
         C           -0.898196578481     0.026255092893     0.002656851568    12.000000000000
         C           -0.183441578481     1.237339092893    -0.003352148432    12.000000000000
         C            1.203388421519     1.188850092893     0.011268851568    12.000000000000
         C            1.842841421519    -0.054337907107     0.012914851568    12.000000000000
         C            1.048410421519    -1.196027907107     0.008968851568    12.000000000000
         H           -0.712591578481     2.186950092893    -0.022193148432     1.007825032230
         H            1.780783421519     2.110359092893     0.012410851568     1.007825032230
         H            2.925409421519    -0.134677907107     0.020088851568     1.007825032230
         H            1.498752521519    -2.187410007107    -0.038605048432     1.007825032230
         N           -2.289686578481     0.011444092893    -0.076987148432    14.003074004430
         H           -2.753793578481     0.773871092893     0.403572851568     1.007825032230
         H           -2.667756578481    -0.894098907107     0.182651851568     1.007825032230

  Basis Set: AUG-CC-PVTZ
    Blend: AUG-CC-PVTZ
  Basis Set: (AUG-CC-PVTZ AUX)
    Blend: AUG-CC-PVTZ-JKFIT
	 Reference Energy          =    -301.8428917957028261 [Eh]
	 Singles Energy            =      -0.0000000000000000 [Eh]
	 Same-Spin Energy          =      -0.3283271141099544 [Eh]
	 Opposite-Spin Energy      =      -1.0131036295276705 [Eh]
	 Correlation Energy        =      -1.3414307436376249 [Eh]
	 Total Energy              =    -303.1843225393404282 [Eh]

	 ================> DF-SCS-MP2 Energies <==================
	-----------------------------------------------------------
	 SCS Same-Spin Scale       =       0.3333333333333333 [-]
	 SCS Opposite-Spin Scale   =       1.2000000000000000 [-]
	 SCS Same-Spin Energy      =      -0.1094423713699848 [Eh]
	 SCS Opposite-Spin Energy  =      -1.2157243554332047 [Eh]
	 SCS Correlation Energy    =      -1.3251667268031895 [Eh]
	 SCS Total Energy          =    -303.1680585225060440 [Eh]
	-----------------------------------------------------------

  Dipole Moment: [D]
     X:     0.0203      Y:     1.7523      Z:     0.9771     Total:     2.0065

*** Psi4 exiting successfully. Buy a developer a beer!
