                               Psi4 1.3.2 release

  ==> Input File <==

--------------------------------------------------------------------------
#psi4
#
memory 32 gb

molecule  {
0 1
  N       -0.2981960    -1.1935180     0.0024800
  C       -0.8989770     0.0078150    -0.0038810
  C       -0.1842220     1.2188990    -0.0098900
  C        1.2026080     1.1704100     0.0047310
  C        1.8420610    -0.0727780     0.0063770
  C        1.0476300    -1.2144680     0.0024310
  H       -0.7133720     2.1685100    -0.0287310
  H        1.7783978     2.0919195     0.2058666
  H        2.9246290    -0.1531180     0.0135510
  H        1.4978930    -2.2058730     0.0048570
  N       -2.2904670    -0.0069960    -0.0835250
  H       -2.7545740     0.7554310     0.3970350
  H       -2.6685370    -0.9125390     0.1761140
units angstrom
no_reorient  #important for SAPT in psi4, default
symmetry c1  #important for SAPT in psi4, default
}

set PROPERTIES_ORIGIN ["COM"]
properties('MP2/aug-cc-pvtz', properties = ['dipole'])
--------------------------------------------------------------------------

    Molecular point group: c1
  Charge       = 0
  Multiplicity = 1
  Basis Set: AUG-CC-PVTZ
    Blend: AUG-CC-PVTZ
  Basis Set: (AUG-CC-PVTZ AUX)
    Blend: AUG-CC-PVTZ-JKFIT

    Orbital Energies [Eh]
    ---------------------

    Doubly Occupied:

       1A    -15.569332     2A    -15.554686     3A    -11.316667
       4A    -11.276034     5A    -11.261484     6A    -11.233619
       7A    -11.227630     8A     -1.277729     9A     -1.183633
      10A     -1.082646    11A     -1.005767    12A     -0.860673
      13A     -0.837543    14A     -0.714986    15A     -0.698581
      16A     -0.659940    17A     -0.621817    18A     -0.604610
      19A     -0.567540    20A     -0.558126    21A     -0.526690
      22A     -0.459896    23A     -0.419642    24A     -0.379686
      25A     -0.312110

  @DF-RHF Final Energy:  -301.84031235092937

   => Energetics <=

    Nuclear Repulsion Energy =            274.7485155019409149
    One-Electron Energy =                -952.7555190749486655
    Two-Electron Energy =                 376.1666912220783843
    Total Energy =                       -301.8403123509293664
  Basis Set: (AUG-CC-PVTZ AUX)
    Blend: AUG-CC-PVTZ-RI
    Molecular point group: c1

    Geometry (in Angstrom), charge = 0, multiplicity = 1:

       Center              X                  Y                   Z               Mass
    ------------   -----------------  -----------------  -----------------  -----------------
         N           -0.297397530381    -1.175077667080     0.006339048721    14.003074004430
         C           -0.898178530381     0.026255332920    -0.000021951279    12.000000000000
         C           -0.183423530381     1.237339332920    -0.006030951279    12.000000000000
         C            1.203406469619     1.188850332920     0.008590048721    12.000000000000
         C            1.842859469619    -0.054337667080     0.010236048721    12.000000000000
         C            1.048428469619    -1.196027667080     0.006290048721    12.000000000000
         H           -0.712573530381     2.186950332920    -0.024871951279     1.007825032230
         H            1.779196269619     2.110359832920     0.209725648721     1.007825032230
         H            2.925427469619    -0.134677667080     0.017410048721     1.007825032230
         H            1.498691469619    -2.187432667080     0.008716048721     1.007825032230
         N           -2.289668530381     0.011444332920    -0.079665951279    14.003074004430
         H           -2.753775530381     0.773871332920     0.400894048721     1.007825032230
         H           -2.667738530381    -0.894098667080     0.179973048721     1.007825032230

  Basis Set: AUG-CC-PVTZ
    Blend: AUG-CC-PVTZ
  Basis Set: (AUG-CC-PVTZ AUX)
    Blend: AUG-CC-PVTZ-JKFIT
	 Reference Energy          =    -301.8403123509293664 [Eh]
	 Singles Energy            =      -0.0000000000000000 [Eh]
	 Same-Spin Energy          =      -0.3284909299800085 [Eh]
	 Opposite-Spin Energy      =      -1.0134133897298547 [Eh]
	 Correlation Energy        =      -1.3419043197098632 [Eh]
	 Total Energy              =    -303.1822166706392068 [Eh]

	 ================> DF-SCS-MP2 Energies <==================
	-----------------------------------------------------------
	 SCS Same-Spin Scale       =       0.3333333333333333 [-]
	 SCS Opposite-Spin Scale   =       1.2000000000000000 [-]
	 SCS Same-Spin Energy      =      -0.1094969766600028 [Eh]
	 SCS Opposite-Spin Energy  =      -1.2160960676758257 [Eh]
	 SCS Correlation Energy    =      -1.3255930443358286 [Eh]
	 SCS Total Energy          =    -303.1659053952652130 [Eh]
	-----------------------------------------------------------

  Dipole Moment: [D]
     X:     0.0046      Y:     1.7230      Z:     1.1230     Total:     2.0567

*** Psi4 exiting successfully. Buy a developer a beer!
