                               Psi4 1.3.2 release

  ==> Input File <==

--------------------------------------------------------------------------
#psi4
#
memory 32 gb

molecule  {
0 1
  N       -0.2981960    -1.1935180     0.0024800
  C       -0.8989770     0.0078150    -0.0038810
  C       -0.1842220     1.2188990    -0.0098900
  C        1.2026080     1.1704100     0.0047310
  C        1.8420610    -0.0727780     0.0063770
  C        1.0476300    -1.2144680     0.0024310
  H       -0.7144701     2.1697543     0.0712552
  H        1.7800030     2.0919190     0.0058730
  H        2.9246290    -0.1531180     0.0135510
  H        1.4978930    -2.2058730     0.0048570
  N       -2.2904670    -0.0069960    -0.0835250
  H       -2.7545740     0.7554310     0.3970350
  H       -2.6685370    -0.9125390     0.1761140
units angstrom
no_reorient  #important for SAPT in psi4, default
symmetry c1  #important for SAPT in psi4, default
}

set PROPERTIES_ORIGIN ["COM"]
properties('MP2/aug-cc-pvtz', properties = ['dipole'])
--------------------------------------------------------------------------

    Molecular point group: c1
  Charge       = 0
  Multiplicity = 1
  Basis Set: AUG-CC-PVTZ
    Blend: AUG-CC-PVTZ
  Basis Set: (AUG-CC-PVTZ AUX)
    Blend: AUG-CC-PVTZ-JKFIT

    Orbital Energies [Eh]
    ---------------------

    Doubly Occupied:

       1A    -15.569291     2A    -15.554429     3A    -11.316659
       4A    -11.275949     5A    -11.259869     6A    -11.233906
       7A    -11.227333     8A     -1.277617     9A     -1.183555
      10A     -1.082940    11A     -1.005556    12A     -0.861316
      13A     -0.838092    14A     -0.716163    15A     -0.698975
      16A     -0.659700    17A     -0.621667    18A     -0.603601
      19A     -0.566665    20A     -0.563064    21A     -0.525309
      22A     -0.460488    23A     -0.419189    24A     -0.380341
      25A     -0.312014

  @DF-RHF Final Energy:  -301.84245895115862

   => Energetics <=

    Nuclear Repulsion Energy =            274.7963394162152895
    One-Electron Energy =                -952.8502208123226183
    Two-Electron Energy =                 376.2114224449486528
    Total Energy =                       -301.8424589511586191
  Basis Set: (AUG-CC-PVTZ AUX)
    Blend: AUG-CC-PVTZ-RI
    Molecular point group: c1

    Geometry (in Angstrom), charge = 0, multiplicity = 1:

       Center              X                  Y                   Z               Mass
    ------------   -----------------  -----------------  -----------------  -----------------
         N           -0.297402964206    -1.175090995007     0.007410677014    14.003074004430
         C           -0.898183964206     0.026242004993     0.001049677014    12.000000000000
         C           -0.183428964206     1.237326004993    -0.004959322986    12.000000000000
         C            1.203401035794     1.188837004993     0.009661677014    12.000000000000
         C            1.842854035794    -0.054350995007     0.011307677014    12.000000000000
         C            1.048423035794    -1.196040995007     0.007361677014    12.000000000000
         H           -0.713677064206     2.188181304993     0.076185877014     1.007825032230
         H            1.780796035794     2.110346004993     0.010803677014     1.007825032230
         H            2.925422035794    -0.134690995007     0.018481677014     1.007825032230
         H            1.498686035794    -2.187445995007     0.009787677014     1.007825032230
         N           -2.289673964206     0.011431004993    -0.078594322986    14.003074004430
         H           -2.753780964206     0.773858004993     0.401965677014     1.007825032230
         H           -2.667743964206    -0.894111995007     0.181044677014     1.007825032230

  Basis Set: AUG-CC-PVTZ
    Blend: AUG-CC-PVTZ
  Basis Set: (AUG-CC-PVTZ AUX)
    Blend: AUG-CC-PVTZ-JKFIT
	 Reference Energy          =    -301.8424589511586191 [Eh]
	 Singles Energy            =      -0.0000000000000000 [Eh]
	 Same-Spin Energy          =      -0.3283408046992892 [Eh]
	 Opposite-Spin Energy      =      -1.0131486227566824 [Eh]
	 Correlation Energy        =      -1.3414894274559717 [Eh]
	 Total Energy              =    -303.1839483786146161 [Eh]

	 ================> DF-SCS-MP2 Energies <==================
	-----------------------------------------------------------
	 SCS Same-Spin Scale       =       0.3333333333333333 [-]
	 SCS Opposite-Spin Scale   =       1.2000000000000000 [-]
	 SCS Same-Spin Energy      =      -0.1094469348997631 [Eh]
	 SCS Opposite-Spin Energy  =      -1.2157783473080188 [Eh]
	 SCS Correlation Energy    =      -1.3252252822077819 [Eh]
	 SCS Total Energy          =    -303.1676842333664013 [Eh]
	-----------------------------------------------------------

  Dipole Moment: [D]
     X:     0.0228      Y:     1.7446      Z:     1.0646     Total:     2.0439

*** Psi4 exiting successfully. Buy a developer a beer!
