                               Psi4 1.3.2 release

  ==> Input File <==

--------------------------------------------------------------------------
#psi4
#
memory 32 gb

molecule  {
0 1
  N       -0.2981960    -1.1935180     0.0024800
  C       -0.8989770     0.0078150    -0.0038810
  C       -0.1842220     1.2188990    -0.0098900
  C        1.2026080     1.1704100     0.0047310
  C        1.8420610    -0.0727780     0.0063770
  C        1.0476300    -1.2144680     0.0024310
  H       -0.7166662     2.1722428     0.2712277
  H        1.7800030     2.0919190     0.0058730
  H        2.9246290    -0.1531180     0.0135510
  H        1.4978930    -2.2058730     0.0048570
  N       -2.2904670    -0.0069960    -0.0835250
  H       -2.7545740     0.7554310     0.3970350
  H       -2.6685370    -0.9125390     0.1761140
units angstrom
no_reorient  #important for SAPT in psi4, default
symmetry c1  #important for SAPT in psi4, default
}

set PROPERTIES_ORIGIN ["COM"]
properties('MP2/aug-cc-pvtz', properties = ['dipole'])
--------------------------------------------------------------------------

    Molecular point group: c1
  Charge       = 0
  Multiplicity = 1
  Basis Set: AUG-CC-PVTZ
    Blend: AUG-CC-PVTZ
  Basis Set: (AUG-CC-PVTZ AUX)
    Blend: AUG-CC-PVTZ-JKFIT

    Orbital Energies [Eh]
    ---------------------

    Doubly Occupied:

       1A    -15.569633     2A    -15.554818     3A    -11.317348
       4A    -11.276798     5A    -11.260501     6A    -11.237055
       7A    -11.227684     8A     -1.278052     9A     -1.183940
      10A     -1.082881    11A     -1.005284    12A     -0.860431
      13A     -0.838119    14A     -0.715477    15A     -0.699211
      16A     -0.656533    17A     -0.621453    18A     -0.599787
      19A     -0.567264    20A     -0.564824    21A     -0.521546
      22A     -0.460960    23A     -0.419691    24A     -0.379750
      25A     -0.312251

  @DF-RHF Final Energy:  -301.83724976105799

   => Energetics <=

    Nuclear Repulsion Energy =            274.6588317526599212
    One-Electron Energy =                -952.5695843147271944
    Two-Electron Energy =                 376.0735028010092833
    Total Energy =                       -301.8372497610579899
  Basis Set: (AUG-CC-PVTZ AUX)
    Blend: AUG-CC-PVTZ-RI
    Molecular point group: c1

    Geometry (in Angstrom), charge = 0, multiplicity = 1:

       Center              X                  Y                   Z               Mass
    ------------   -----------------  -----------------  -----------------  -----------------
         N           -0.297379431918    -1.175117660504     0.005267873693    14.003074004430
         C           -0.898160431918     0.026215339496    -0.001093126307    12.000000000000
         C           -0.183405431918     1.237299339496    -0.007102126307    12.000000000000
         C            1.203424568082     1.188810339496     0.007518873693    12.000000000000
         C            1.842877568082    -0.054377660504     0.009164873693    12.000000000000
         C            1.048446568082    -1.196067660504     0.005218873693    12.000000000000
         H           -0.715849631918     2.190643139496     0.274015573693     1.007825032230
         H            1.780819568082     2.110319339496     0.008660873693     1.007825032230
         H            2.925445568082    -0.134717660504     0.016338873693     1.007825032230
         H            1.498709568082    -2.187472660504     0.007644873693     1.007825032230
         N           -2.289650431918     0.011404339496    -0.080737126307    14.003074004430
         H           -2.753757431918     0.773831339496     0.399822873693     1.007825032230
         H           -2.667720431918    -0.894138660504     0.178901873693     1.007825032230

  Basis Set: AUG-CC-PVTZ
    Blend: AUG-CC-PVTZ
  Basis Set: (AUG-CC-PVTZ AUX)
    Blend: AUG-CC-PVTZ-JKFIT
	 Reference Energy          =    -301.8372497610579899 [Eh]
	 Singles Energy            =      -0.0000000000000000 [Eh]
	 Same-Spin Energy          =      -0.3285188006311923 [Eh]
	 Opposite-Spin Energy      =      -1.0136172380435018 [Eh]
	 Correlation Energy        =      -1.3421360386746941 [Eh]
	 Total Energy              =    -303.1793857997326995 [Eh]

	 ================> DF-SCS-MP2 Energies <==================
	-----------------------------------------------------------
	 SCS Same-Spin Scale       =       0.3333333333333333 [-]
	 SCS Opposite-Spin Scale   =       1.2000000000000000 [-]
	 SCS Same-Spin Energy      =      -0.1095062668770641 [Eh]
	 SCS Opposite-Spin Energy  =      -1.2163406856522021 [Eh]
	 SCS Correlation Energy    =      -1.3258469525292662 [Eh]
	 SCS Total Energy          =    -303.1630967135872652 [Eh]
	-----------------------------------------------------------

  Dipole Moment: [D]
     X:     0.0445      Y:     1.6870      Z:     1.1819     Total:     2.0603

*** Psi4 exiting successfully. Buy a developer a beer!
