                               Psi4 1.3.2 release

  ==> Input File <==

--------------------------------------------------------------------------
#psi4
#
memory 32 gb

molecule  {
0 1
  N       -0.2981960    -1.1935180     0.0024800
  C       -0.8989770     0.0078150    -0.0038810
  C       -0.1842220     1.2188990    -0.0098900
  C        1.2026080     1.1704100     0.0047310
  C        1.8420610    -0.0727780     0.0063770
  C        1.0476300    -1.2144680     0.0024310
  H       -0.7133720     2.1685100    -0.0287310
  H        1.7800030     2.0919190     0.0058730
  H        2.9246290    -0.1531180     0.0135510
  H        1.4978930    -2.2058730     0.0048570
  N       -2.2904670    -0.0069960    -0.0835250
  H       -2.7545740     0.7554310     0.3970350
  H       -2.6685370    -0.9125390     0.1761140
units angstrom
no_reorient  #important for SAPT in psi4, default
symmetry c1  #important for SAPT in psi4, default
}

set PROPERTIES_ORIGIN ["COM"]
properties('MP2/aug-cc-pvtz', properties = ['dipole'])
--------------------------------------------------------------------------

    Molecular point group: c1
  Charge       = 0
  Multiplicity = 1
  Basis Set: AUG-CC-PVTZ
    Blend: AUG-CC-PVTZ
  Basis Set: (AUG-CC-PVTZ AUX)
    Blend: AUG-CC-PVTZ-JKFIT

    Orbital Energies [Eh]
    ---------------------

    Doubly Occupied:

       1A    -15.569209     2A    -15.554376     3A    -11.316576
       4A    -11.275875     5A    -11.259810     6A    -11.233406
       7A    -11.227301     8A     -1.277552     9A     -1.183484
      10A     -1.082940    11A     -1.005587    12A     -0.861416
      13A     -0.838066    14A     -0.716332    15A     -0.698933
      16A     -0.659789    17A     -0.621836    18A     -0.604440
      19A     -0.566580    20A     -0.562046    21A     -0.526309
      22A     -0.460337    23A     -0.419125    24A     -0.380407
      25A     -0.311977

  @DF-RHF Final Energy:  -301.84305287647010

   => Energetics <=

    Nuclear Repulsion Energy =            274.8140958023557801
    One-Electron Energy =                -952.8868887196192645
    Two-Electron Energy =                 376.2297400407934447
    Total Energy =                       -301.8430528764700966
  Basis Set: (AUG-CC-PVTZ AUX)
    Blend: AUG-CC-PVTZ-RI
    Molecular point group: c1

    Geometry (in Angstrom), charge = 0, multiplicity = 1:

       Center              X                  Y                   Z               Mass
    ------------   -----------------  -----------------  -----------------  -----------------
         N           -0.297414730885    -1.175077661723     0.008482078140    14.003074004430
         C           -0.898195730885     0.026255338277     0.002121078140    12.000000000000
         C           -0.183440730885     1.237339338277    -0.003887921860    12.000000000000
         C            1.203389269115     1.188850338277     0.010733078140    12.000000000000
         C            1.842842269115    -0.054337661723     0.012379078140    12.000000000000
         C            1.048411269115    -1.196027661723     0.008433078140    12.000000000000
         H           -0.712590730885     2.186950338277    -0.022728921860     1.007825032230
         H            1.780784269115     2.110359338277     0.011875078140     1.007825032230
         H            2.925410269115    -0.134677661723     0.019553078140     1.007825032230
         H            1.498674269115    -2.187432661723     0.010859078140     1.007825032230
         N           -2.289685730885     0.011444338277    -0.077522921860    14.003074004430
         H           -2.753792730885     0.773871338277     0.403037078140     1.007825032230
         H           -2.667755730885    -0.894098661723     0.182116078140     1.007825032230

  Basis Set: AUG-CC-PVTZ
    Blend: AUG-CC-PVTZ
  Basis Set: (AUG-CC-PVTZ AUX)
    Blend: AUG-CC-PVTZ-JKFIT
	 Reference Energy          =    -301.8430528764700966 [Eh]
	 Singles Energy            =      -0.0000000000000000 [Eh]
	 Same-Spin Energy          =      -0.3283174496092620 [Eh]
	 Opposite-Spin Energy      =      -1.0130880593661800 [Eh]
	 Correlation Energy        =      -1.3414055089754420 [Eh]
	 Total Energy              =    -303.1844583854455664 [Eh]

	 ================> DF-SCS-MP2 Energies <==================
	-----------------------------------------------------------
	 SCS Same-Spin Scale       =       0.3333333333333333 [-]
	 SCS Opposite-Spin Scale   =       1.2000000000000000 [-]
	 SCS Same-Spin Energy      =      -0.1094391498697540 [Eh]
	 SCS Opposite-Spin Energy  =      -1.2157056712394159 [Eh]
	 SCS Correlation Energy    =      -1.3251448211091699 [Eh]
	 SCS Total Energy          =    -303.1681976975792736 [Eh]
	-----------------------------------------------------------

  Dipole Moment: [D]
     X:     0.0212      Y:     1.7505      Z:     1.0033     Total:     2.0177

*** Psi4 exiting successfully. Buy a developer a beer!
