                               Psi4 1.3.2 release

  ==> Input File <==

--------------------------------------------------------------------------
#psi4
#
memory 32 gb

molecule  {
0 1
  N       -0.2981960    -1.1935180     0.0024800
  C       -0.8989770     0.0078150    -0.0038810
  C       -0.1842220     1.2188990    -0.0098900
  C        1.2026080     1.1704100     0.0047310
  C        1.8420610    -0.0727780     0.0063770
  C        1.0476300    -1.2144680     0.0024310
  H       -0.7133720     2.1685100    -0.0287310
  H        1.7800030     2.0919190     0.0058730
  H        2.9246290    -0.1531180     0.0135510
  H        1.4978930    -2.2058730     0.0048570
  N       -2.2924164    -0.0066477    -0.0335642
  H       -2.7545740     0.7554310     0.3970350
  H       -2.6685370    -0.9125390     0.1761140
units angstrom
no_reorient  #important for SAPT in psi4, default
symmetry c1  #important for SAPT in psi4, default
}

set PROPERTIES_ORIGIN ["COM"]
properties('MP2/aug-cc-pvtz', properties = ['dipole'])
--------------------------------------------------------------------------

    Molecular point group: c1
  Charge       = 0
  Multiplicity = 1
  Basis Set: AUG-CC-PVTZ
    Blend: AUG-CC-PVTZ
  Basis Set: (AUG-CC-PVTZ AUX)
    Blend: AUG-CC-PVTZ-JKFIT

    Orbital Energies [Eh]
    ---------------------

    Doubly Occupied:

       1A    -15.565466     2A    -15.553652     3A    -11.317262
       4A    -11.275628     5A    -11.259479     6A    -11.232783
       7A    -11.226418     8A     -1.277676     9A     -1.185453
      10A     -1.082471    11A     -1.006202    12A     -0.861419
      13A     -0.839192    14A     -0.719270    15A     -0.704089
      16A     -0.660211    17A     -0.626966    18A     -0.604186
      19A     -0.566959    20A     -0.561865    21A     -0.526321
      22A     -0.458088    23A     -0.418805    24A     -0.380043
      25A     -0.310194

  @DF-RHF Final Energy:  -301.84374575602425

   => Energetics <=

    Nuclear Repulsion Energy =            274.9361424753607253
    One-Electron Energy =                -953.1195762699197758
    Two-Electron Energy =                 376.3396880385348027
    Total Energy =                       -301.8437457560242478
  Basis Set: (AUG-CC-PVTZ AUX)
    Blend: AUG-CC-PVTZ-RI
    Molecular point group: c1

    Geometry (in Angstrom), charge = 0, multiplicity = 1:

       Center              X                  Y                   Z               Mass
    ------------   -----------------  -----------------  -----------------  -----------------
         N           -0.297124494913    -1.175129518288     0.001043675864    14.003074004430
         C           -0.897905494913     0.026203481712    -0.005317324136    12.000000000000
         C           -0.183150494913     1.237287481712    -0.011326324136    12.000000000000
         C            1.203679505087     1.188798481712     0.003294675864    12.000000000000
         C            1.843132505087    -0.054389518288     0.004940675864    12.000000000000
         C            1.048701505087    -1.196079518288     0.000994675864    12.000000000000
         H           -0.712300494913     2.186898481712    -0.030167324136     1.007825032230
         H            1.781074505087     2.110307481712     0.004436675864     1.007825032230
         H            2.925700505087    -0.134729518288     0.012114675864     1.007825032230
         H            1.498964505087    -2.187484518288     0.003420675864     1.007825032230
         N           -2.291344894913     0.011740781712    -0.035000524136    14.003074004430
         H           -2.753502494913     0.773819481712     0.395598675864     1.007825032230
         H           -2.667465494913    -0.894150518288     0.174677675864     1.007825032230

  Basis Set: AUG-CC-PVTZ
    Blend: AUG-CC-PVTZ
  Basis Set: (AUG-CC-PVTZ AUX)
    Blend: AUG-CC-PVTZ-JKFIT
	 Reference Energy          =    -301.8437457560242478 [Eh]
	 Singles Energy            =      -0.0000000000000000 [Eh]
	 Same-Spin Energy          =      -0.3281114021061691 [Eh]
	 Opposite-Spin Energy      =      -1.0124044349825905 [Eh]
	 Correlation Energy        =      -1.3405158370887595 [Eh]
	 Total Energy              =    -303.1842615931130354 [Eh]

	 ================> DF-SCS-MP2 Energies <==================
	-----------------------------------------------------------
	 SCS Same-Spin Scale       =       0.3333333333333333 [-]
	 SCS Opposite-Spin Scale   =       1.2000000000000000 [-]
	 SCS Same-Spin Energy      =      -0.1093704673687230 [Eh]
	 SCS Opposite-Spin Energy  =      -1.2148853219791085 [Eh]
	 SCS Correlation Energy    =      -1.3242557893478315 [Eh]
	 SCS Total Energy          =    -303.1680015453720785 [Eh]
	-----------------------------------------------------------

  Dipole Moment: [D]
     X:    -0.0620      Y:     1.7584      Z:     0.8991     Total:     1.9759

*** Psi4 exiting successfully. Buy a developer a beer!
