                               Psi4 1.3.2 release

  ==> Input File <==

--------------------------------------------------------------------------
#psi4
#
memory 32 gb

molecule  {
0 1
  N       -0.2981960    -1.1935180     0.0024800
  C       -0.8989770     0.0078150    -0.0038810
  C       -0.1842220     1.2188990    -0.0098900
  C        1.2026080     1.1704100     0.0047310
  C        1.8420610    -0.0727780     0.0063770
  C        1.0476300    -1.2144680     0.0024310
  H       -0.7133720     2.1685100    -0.0287310
  H        1.7800030     2.0919190     0.0058730
  H        2.9246290    -0.1531180     0.0135510
  H        1.4982883    -2.2057586    -0.2451427
  N       -2.2904670    -0.0069960    -0.0835250
  H       -2.7545740     0.7554310     0.3970350
  H       -2.6685370    -0.9125390     0.1761140
units angstrom
no_reorient  #important for SAPT in psi4, default
symmetry c1  #important for SAPT in psi4, default
}

set PROPERTIES_ORIGIN ["COM"]
properties('MP2/aug-cc-pvtz', properties = ['dipole'])
--------------------------------------------------------------------------

    Molecular point group: c1
  Charge       = 0
  Multiplicity = 1
  Basis Set: AUG-CC-PVTZ
    Blend: AUG-CC-PVTZ
  Basis Set: (AUG-CC-PVTZ AUX)
    Blend: AUG-CC-PVTZ-JKFIT

    Orbital Energies [Eh]
    ---------------------

    Doubly Occupied:

       1A    -15.569352     2A    -15.554685     3A    -11.316907
       4A    -11.278524     5A    -11.260079     6A    -11.233894
       7A    -11.227850     8A     -1.277776     9A     -1.183567
      10A     -1.083280    11A     -1.005140    12A     -0.859995
      13A     -0.838049    14A     -0.714121    15A     -0.699104
      16A     -0.659884    17A     -0.621769    18A     -0.600728
      19A     -0.567670    20A     -0.560688    21A     -0.527404
      22A     -0.457900    23A     -0.419264    24A     -0.380131
      25A     -0.312076

  @DF-RHF Final Energy:  -301.83860012211380

   => Energetics <=

    Nuclear Repulsion Energy =            274.7089434354238051
    One-Electron Energy =                -952.6754168787646222
    Two-Electron Energy =                 376.1278733212270708
    Total Energy =                       -301.8386001221138031
  Basis Set: (AUG-CC-PVTZ AUX)
    Blend: AUG-CC-PVTZ-RI
    Molecular point group: c1

    Geometry (in Angstrom), charge = 0, multiplicity = 1:

       Center              X                  Y                   Z               Mass
    ------------   -----------------  -----------------  -----------------  -----------------
         N           -0.297418966719    -1.175078887575     0.011160947422    14.003074004430
         C           -0.898199966719     0.026254112425     0.004799947422    12.000000000000
         C           -0.183444966719     1.237338112425    -0.001209052578    12.000000000000
         C            1.203385033281     1.188849112425     0.013411947422    12.000000000000
         C            1.842838033281    -0.054338887575     0.015057947422    12.000000000000
         C            1.048407033281    -1.196028887575     0.011111947422    12.000000000000
         H           -0.712594966719     2.186949112425    -0.020050052578     1.007825032230
         H            1.780780033281     2.110358112425     0.014553947422     1.007825032230
         H            2.925406033281    -0.134678887575     0.022231947422     1.007825032230
         H            1.499065333281    -2.187319487575    -0.236461752578     1.007825032230
         N           -2.289689966719     0.011443112425    -0.074844052578    14.003074004430
         H           -2.753796966719     0.773870112425     0.405715947422     1.007825032230
         H           -2.667759966719    -0.894099887575     0.184794947422     1.007825032230

  Basis Set: AUG-CC-PVTZ
    Blend: AUG-CC-PVTZ
  Basis Set: (AUG-CC-PVTZ AUX)
    Blend: AUG-CC-PVTZ-JKFIT
	 Reference Energy          =    -301.8386001221138031 [Eh]
	 Singles Energy            =      -0.0000000000000000 [Eh]
	 Same-Spin Energy          =      -0.3285878640778110 [Eh]
	 Opposite-Spin Energy      =      -1.0136313880812069 [Eh]
	 Correlation Energy        =      -1.3422192521590179 [Eh]
	 Total Energy              =    -303.1808193742728008 [Eh]

	 ================> DF-SCS-MP2 Energies <==================
	-----------------------------------------------------------
	 SCS Same-Spin Scale       =       0.3333333333333333 [-]
	 SCS Opposite-Spin Scale   =       1.2000000000000000 [-]
	 SCS Same-Spin Energy      =      -0.1095292880259370 [Eh]
	 SCS Opposite-Spin Energy  =      -1.2163576656974482 [Eh]
	 SCS Correlation Energy    =      -1.3258869537233853 [Eh]
	 SCS Total Energy          =    -303.1644870758372008 [Eh]
	-----------------------------------------------------------

  Dipole Moment: [D]
     X:    -0.0050      Y:     1.7968      Z:     0.8747     Total:     1.9984

*** Psi4 exiting successfully. Buy a developer a beer!
