                               Psi4 1.3.2 release

  ==> Input File <==

--------------------------------------------------------------------------
#psi4
#
memory 32 gb

molecule  {
0 1
  N       -0.2981960    -1.1935180     0.0024800
  C       -0.8989770     0.0078150    -0.0038810
  C       -0.1842220     1.2188990    -0.0098900
  C        1.2026080     1.1704100     0.0047310
  C        1.8420610    -0.0727780     0.0063770
  C        1.0476300    -1.2144680     0.0024310
  H       -0.7133720     2.1685100    -0.0287310
  H        1.7800030     2.0919190     0.0058730
  H        2.9243498    -0.1531481     0.0635502
  H        1.4978930    -2.2058730     0.0048570
  N       -2.2904670    -0.0069960    -0.0835250
  H       -2.7545740     0.7554310     0.3970350
  H       -2.6685370    -0.9125390     0.1761140
units angstrom
no_reorient  #important for SAPT in psi4, default
symmetry c1  #important for SAPT in psi4, default
}

set PROPERTIES_ORIGIN ["COM"]
properties('MP2/aug-cc-pvtz', properties = ['dipole'])
--------------------------------------------------------------------------

    Molecular point group: c1
  Charge       = 0
  Multiplicity = 1
  Basis Set: AUG-CC-PVTZ
    Blend: AUG-CC-PVTZ
  Basis Set: (AUG-CC-PVTZ AUX)
    Blend: AUG-CC-PVTZ-JKFIT

    Orbital Energies [Eh]
    ---------------------

    Doubly Occupied:

       1A    -15.569254     2A    -15.554396     3A    -11.316607
       4A    -11.275911     5A    -11.259813     6A    -11.233405
       7A    -11.227396     8A     -1.277579     9A     -1.183514
      10A     -1.082934    11A     -1.005567    12A     -0.861425
      13A     -0.838026    14A     -0.716320    15A     -0.698948
      16A     -0.659654    17A     -0.621828    18A     -0.604496
      19A     -0.566578    20A     -0.561565    21A     -0.526753
      22A     -0.460203    23A     -0.419061    24A     -0.380418
      25A     -0.312006

  @DF-RHF Final Energy:  -301.84289612402625

   => Energetics <=

    Nuclear Repulsion Energy =            274.8096520778102558
    One-Electron Energy =                -952.8777819692392086
    Two-Electron Energy =                 376.2252337674026990
    Total Energy =                       -301.8428961240262538
  Basis Set: (AUG-CC-PVTZ AUX)
    Blend: AUG-CC-PVTZ-RI
    Molecular point group: c1

    Geometry (in Angstrom), charge = 0, multiplicity = 1:

       Center              X                  Y                   Z               Mass
    ------------   -----------------  -----------------  -----------------  -----------------
         N           -0.297411739121    -1.175077339186     0.007946312213    14.003074004430
         C           -0.898192739121     0.026255660814     0.001585312213    12.000000000000
         C           -0.183437739121     1.237339660814    -0.004423687787    12.000000000000
         C            1.203392260879     1.188850660814     0.010197312213    12.000000000000
         C            1.842845260879    -0.054337339186     0.011843312213    12.000000000000
         C            1.048414260879    -1.196027339186     0.007897312213    12.000000000000
         H           -0.712587739121     2.186950660814    -0.023264687787     1.007825032230
         H            1.780787260879     2.110359660814     0.011339312213     1.007825032230
         H            2.925134060879    -0.134707439186     0.069016512213     1.007825032230
         H            1.498677260879    -2.187432339186     0.010323312213     1.007825032230
         N           -2.289682739121     0.011444660814    -0.078058687787    14.003074004430
         H           -2.753789739121     0.773871660814     0.402501312213     1.007825032230
         H           -2.667752739121    -0.894098339186     0.181580312213     1.007825032230

  Basis Set: AUG-CC-PVTZ
    Blend: AUG-CC-PVTZ
  Basis Set: (AUG-CC-PVTZ AUX)
    Blend: AUG-CC-PVTZ-JKFIT
	 Reference Energy          =    -301.8428961240262538 [Eh]
	 Singles Energy            =      -0.0000000000000000 [Eh]
	 Same-Spin Energy          =      -0.3283234616596011 [Eh]
	 Opposite-Spin Energy      =      -1.0131003868848802 [Eh]
	 Correlation Energy        =      -1.3414238485444814 [Eh]
	 Total Energy              =    -303.1843199725707336 [Eh]

	 ================> DF-SCS-MP2 Energies <==================
	-----------------------------------------------------------
	 SCS Same-Spin Scale       =       0.3333333333333333 [-]
	 SCS Opposite-Spin Scale   =       1.2000000000000000 [-]
	 SCS Same-Spin Energy      =      -0.1094411538865337 [Eh]
	 SCS Opposite-Spin Energy  =      -1.2157204642618562 [Eh]
	 SCS Correlation Energy    =      -1.3251616181483898 [Eh]
	 SCS Total Energy          =    -303.1680577421746534 [Eh]
	-----------------------------------------------------------

  Dipole Moment: [D]
     X:     0.0177      Y:     1.7502      Z:     1.0364     Total:     2.0341

*** Psi4 exiting successfully. Buy a developer a beer!
