                               Psi4 1.3.2 release

  ==> Input File <==

--------------------------------------------------------------------------
#psi4
#
memory 32 gb

molecule  {
0 1
  N       -0.2981960    -1.1935180     0.0024800
  C       -0.8989770     0.0078150    -0.0038810
  C       -0.1842220     1.2188990    -0.0098900
  C        1.2026080     1.1704100     0.0047310
  C        1.8420610    -0.0727780     0.0063770
  C        1.0476300    -1.2144680     0.0024310
  H       -0.7133720     2.1685100    -0.0287310
  H        1.7800030     2.0919190     0.0058730
  H        2.9232330    -0.1532684     0.2635471
  H        1.4978930    -2.2058730     0.0048570
  N       -2.2904670    -0.0069960    -0.0835250
  H       -2.7545740     0.7554310     0.3970350
  H       -2.6685370    -0.9125390     0.1761140
units angstrom
no_reorient  #important for SAPT in psi4, default
symmetry c1  #important for SAPT in psi4, default
}

set PROPERTIES_ORIGIN ["COM"]
properties('MP2/aug-cc-pvtz', properties = ['dipole'])
--------------------------------------------------------------------------

    Molecular point group: c1
  Charge       = 0
  Multiplicity = 1
  Basis Set: AUG-CC-PVTZ
    Blend: AUG-CC-PVTZ
  Basis Set: (AUG-CC-PVTZ AUX)
    Blend: AUG-CC-PVTZ-JKFIT

    Orbital Energies [Eh]
    ---------------------

    Doubly Occupied:

       1A    -15.569905     2A    -15.554744     3A    -11.317319
       4A    -11.276543     5A    -11.260149     6A    -11.233604
       7A    -11.229584     8A     -1.278087     9A     -1.184007
      10A     -1.082929    11A     -1.005129    12A     -0.861675
      13A     -0.837139    14A     -0.716207    15A     -0.699193
      16A     -0.655780    17A     -0.621962    18A     -0.604438
      19A     -0.566907    20A     -0.559754    21A     -0.526441
      22A     -0.459266    23A     -0.418868    24A     -0.380611
      25A     -0.312168

  @DF-RHF Final Energy:  -301.83903243790763

   => Energetics <=

    Nuclear Repulsion Energy =            274.7089319645298815
    One-Electron Energy =                -952.6711095357301247
    Two-Electron Energy =                 376.1231451332926667
    Total Energy =                       -301.8390324379076333
  Basis Set: (AUG-CC-PVTZ AUX)
    Blend: AUG-CC-PVTZ-RI
    Molecular point group: c1

    Geometry (in Angstrom), charge = 0, multiplicity = 1:

       Center              X                  Y                   Z               Mass
    ------------   -----------------  -----------------  -----------------  -----------------
         N           -0.297399772061    -1.175076050113     0.005803247433    14.003074004430
         C           -0.898180772061     0.026256949887    -0.000557752567    12.000000000000
         C           -0.183425772061     1.237340949887    -0.006566752567    12.000000000000
         C            1.203404227939     1.188851949887     0.008054247433    12.000000000000
         C            1.842857227939    -0.054336050113     0.009700247433    12.000000000000
         C            1.048426227939    -1.196026050113     0.005754247433    12.000000000000
         H           -0.712575772061     2.186951949887    -0.025407752567     1.007825032230
         H            1.780799227939     2.110360949887     0.009196247433     1.007825032230
         H            2.924029227939    -0.134826450113     0.266870347433     1.007825032230
         H            1.498689227939    -2.187431050113     0.008180247433     1.007825032230
         N           -2.289670772061     0.011445949887    -0.080201752567    14.003074004430
         H           -2.753777772061     0.773872949887     0.400358247433     1.007825032230
         H           -2.667740772061    -0.894097050113     0.179437247433     1.007825032230

  Basis Set: AUG-CC-PVTZ
    Blend: AUG-CC-PVTZ
  Basis Set: (AUG-CC-PVTZ AUX)
    Blend: AUG-CC-PVTZ-JKFIT
	 Reference Energy          =    -301.8390324379076333 [Eh]
	 Singles Energy            =      -0.0000000000000000 [Eh]
	 Same-Spin Energy          =      -0.3284442445108404 [Eh]
	 Opposite-Spin Energy      =      -1.0134159992938834 [Eh]
	 Correlation Energy        =      -1.3418602438047238 [Eh]
	 Total Energy              =    -303.1808926817123506 [Eh]

	 ================> DF-SCS-MP2 Energies <==================
	-----------------------------------------------------------
	 SCS Same-Spin Scale       =       0.3333333333333333 [-]
	 SCS Opposite-Spin Scale   =       1.2000000000000000 [-]
	 SCS Same-Spin Energy      =      -0.1094814148369468 [Eh]
	 SCS Opposite-Spin Energy  =      -1.2160991991526600 [Eh]
	 SCS Correlation Energy    =      -1.3255806139896067 [Eh]
	 SCS Total Energy          =    -303.1646130518972200 [Eh]
	-----------------------------------------------------------

  Dipole Moment: [D]
     X:    -0.0465      Y:     1.7510      Z:     1.1655     Total:     2.1039

*** Psi4 exiting successfully. Buy a developer a beer!
