                               Psi4 1.3.2 release

  ==> Input File <==

--------------------------------------------------------------------------
#psi4
#
memory 32 gb

molecule  {
0 1
  N       -0.2981960    -1.1935180     0.0024800
  C       -0.8989770     0.0078150    -0.0038810
  C       -0.1842220     1.2188990    -0.0098900
  C        1.2026080     1.1704100     0.0047310
  C        1.8420610    -0.0727780     0.0063770
  C        1.0476300    -1.2144680     0.0024310
  H       -0.7155681     2.1709985     0.1712415
  H        1.7800030     2.0919190     0.0058730
  H        2.9246290    -0.1531180     0.0135510
  H        1.4978930    -2.2058730     0.0048570
  N       -2.2904670    -0.0069960    -0.0835250
  H       -2.7545740     0.7554310     0.3970350
  H       -2.6685370    -0.9125390     0.1761140
units angstrom
no_reorient  #important for SAPT in psi4, default
symmetry c1  #important for SAPT in psi4, default
}

set PROPERTIES_ORIGIN ["COM"]
properties('MP2/aug-cc-pvtz', properties = ['dipole'])
--------------------------------------------------------------------------

    Molecular point group: c1
  Charge       = 0
  Multiplicity = 1
  Basis Set: AUG-CC-PVTZ
    Blend: AUG-CC-PVTZ
  Basis Set: (AUG-CC-PVTZ AUX)
    Blend: AUG-CC-PVTZ-JKFIT

    Orbital Energies [Eh]
    ---------------------

    Doubly Occupied:

       1A    -15.569434     2A    -15.554575     3A    -11.316916
       4A    -11.276259     5A    -11.260098     6A    -11.235134
       7A    -11.227458     8A     -1.277783     9A     -1.183707
      10A     -1.082912    11A     -1.005445    12A     -0.860963
      13A     -0.838106    14A     -0.715843    15A     -0.699065
      16A     -0.658545    17A     -0.621529    18A     -0.602076
      19A     -0.566890    20A     -0.563992    21A     -0.523734
      22A     -0.460696    23A     -0.419382    24A     -0.380113
      25A     -0.312103

  @DF-RHF Final Energy:  -301.84061809753871

   => Energetics <=

    Nuclear Repulsion Energy =            274.7436598040472404
    One-Electron Energy =                -952.7430393748625193
    Two-Electron Energy =                 376.1587614732766269
    Total Energy =                       -301.8406180975387088
  Basis Set: (AUG-CC-PVTZ AUX)
    Blend: AUG-CC-PVTZ-RI
    Molecular point group: c1

    Geometry (in Angstrom), charge = 0, multiplicity = 1:

       Center              X                  Y                   Z               Mass
    ------------   -----------------  -----------------  -----------------  -----------------
         N           -0.297391198598    -1.175104327219     0.006339274818    14.003074004430
         C           -0.898172198598     0.026228672781    -0.000021725182    12.000000000000
         C           -0.183417198598     1.237312672781    -0.006030725182    12.000000000000
         C            1.203412801402     1.188823672781     0.008590274818    12.000000000000
         C            1.842865801402    -0.054364327219     0.010236274818    12.000000000000
         C            1.048434801402    -1.196054327219     0.006290274818    12.000000000000
         H           -0.714763298598     2.189412172781     0.175100774818     1.007825032230
         H            1.780807801402     2.110332672781     0.009732274818     1.007825032230
         H            2.925433801402    -0.134704327219     0.017410274818     1.007825032230
         H            1.498697801402    -2.187459327219     0.008716274818     1.007825032230
         N           -2.289662198598     0.011417672781    -0.079665725182    14.003074004430
         H           -2.753769198598     0.773844672781     0.400894274818     1.007825032230
         H           -2.667732198598    -0.894125327219     0.179973274818     1.007825032230

  Basis Set: AUG-CC-PVTZ
    Blend: AUG-CC-PVTZ
  Basis Set: (AUG-CC-PVTZ AUX)
    Blend: AUG-CC-PVTZ-JKFIT
	 Reference Energy          =    -301.8406180975387088 [Eh]
	 Singles Energy            =      -0.0000000000000000 [Eh]
	 Same-Spin Energy          =      -0.3284081974319438 [Eh]
	 Opposite-Spin Energy      =      -1.0133144840905863 [Eh]
	 Correlation Energy        =      -1.3417226815225303 [Eh]
	 Total Energy              =    -303.1823407790612350 [Eh]

	 ================> DF-SCS-MP2 Energies <==================
	-----------------------------------------------------------
	 SCS Same-Spin Scale       =       0.3333333333333333 [-]
	 SCS Opposite-Spin Scale   =       1.2000000000000000 [-]
	 SCS Same-Spin Energy      =      -0.1094693991439813 [Eh]
	 SCS Opposite-Spin Energy  =      -1.2159773809087036 [Eh]
	 SCS Correlation Energy    =      -1.3254467800526848 [Eh]
	 SCS Total Energy          =    -303.1660648775913955 [Eh]
	-----------------------------------------------------------

  Dipole Moment: [D]
     X:     0.0305      Y:     1.7232      Z:     1.1244     Total:     2.0579

*** Psi4 exiting successfully. Buy a developer a beer!
