                               Psi4 1.3.2 release

  ==> Input File <==

--------------------------------------------------------------------------
#psi4
#
memory 32 gb

molecule  {
0 1
  N       -0.2981960    -1.1935180     0.0024800
  C       -0.8989770     0.0078150    -0.0038810
  C       -0.1842220     1.2188990    -0.0098900
  C        1.2026080     1.1704100     0.0047310
  C        1.8420610    -0.0727780     0.0063770
  C        1.0476300    -1.2144680     0.0024310
  H       -0.7133720     2.1685100    -0.0287310
  H        1.7792004     2.0919193     0.1058698
  H        2.9246290    -0.1531180     0.0135510
  H        1.4978930    -2.2058730     0.0048570
  N       -2.2904670    -0.0069960    -0.0835250
  H       -2.7545740     0.7554310     0.3970350
  H       -2.6685370    -0.9125390     0.1761140
units angstrom
no_reorient  #important for SAPT in psi4, default
symmetry c1  #important for SAPT in psi4, default
}

set PROPERTIES_ORIGIN ["COM"]
properties('MP2/aug-cc-pvtz', properties = ['dipole'])
--------------------------------------------------------------------------

    Molecular point group: c1
  Charge       = 0
  Multiplicity = 1
  Basis Set: AUG-CC-PVTZ
    Blend: AUG-CC-PVTZ
  Basis Set: (AUG-CC-PVTZ AUX)
    Blend: AUG-CC-PVTZ-JKFIT

    Orbital Energies [Eh]
    ---------------------

    Doubly Occupied:

       1A    -15.569245     2A    -15.554460     3A    -11.316584
       4A    -11.275921     5A    -11.260222     6A    -11.233428
       7A    -11.227391     8A     -1.277594     9A     -1.183523
      10A     -1.082862    11A     -1.005628    12A     -0.861221
      13A     -0.837942    14A     -0.715966    15A     -0.698856
      16A     -0.659818    17A     -0.621897    18A     -0.604516
      19A     -0.567016    20A     -0.560793    21A     -0.526463
      22A     -0.460142    23A     -0.419326    24A     -0.380192
      25A     -0.312009

  @DF-RHF Final Energy:  -301.84239607838100

   => Energetics <=

    Nuclear Repulsion Energy =            274.7980004545338488
    One-Electron Energy =                -952.8547635625703833
    Two-Electron Energy =                 376.2143670296555342
    Total Energy =                       -301.8423960783810003
  Basis Set: (AUG-CC-PVTZ AUX)
    Blend: AUG-CC-PVTZ-RI
    Molecular point group: c1

    Geometry (in Angstrom), charge = 0, multiplicity = 1:

       Center              X                  Y                   Z               Mass
    ------------   -----------------  -----------------  -----------------  -----------------
         N           -0.297406130633    -1.175077664937     0.007410563430    14.003074004430
         C           -0.898187130633     0.026255335063     0.001049563430    12.000000000000
         C           -0.183432130633     1.237339335063    -0.004959436570    12.000000000000
         C            1.203397869367     1.188850335063     0.009661563430    12.000000000000
         C            1.842850869367    -0.054337664937     0.011307563430    12.000000000000
         C            1.048419869367    -1.196027664937     0.007361563430    12.000000000000
         H           -0.712582130633     2.186950335063    -0.023800436570     1.007825032230
         H            1.779990269367     2.110359635063     0.110800363430     1.007825032230
         H            2.925418869367    -0.134677664937     0.018481563430     1.007825032230
         H            1.498682869367    -2.187432664937     0.009787563430     1.007825032230
         N           -2.289677130633     0.011444335063    -0.078594436570    14.003074004430
         H           -2.753784130633     0.773871335063     0.401965563430     1.007825032230
         H           -2.667747130633    -0.894098664937     0.181044563430     1.007825032230

  Basis Set: AUG-CC-PVTZ
    Blend: AUG-CC-PVTZ
  Basis Set: (AUG-CC-PVTZ AUX)
    Blend: AUG-CC-PVTZ-JKFIT
	 Reference Energy          =    -301.8423960783810003 [Eh]
	 Singles Energy            =      -0.0000000000000000 [Eh]
	 Same-Spin Energy          =      -0.3283619912066699 [Eh]
	 Opposite-Spin Energy      =      -1.0131581842789343 [Eh]
	 Correlation Energy        =      -1.3415201754856043 [Eh]
	 Total Energy              =    -303.1839162538665846 [Eh]

	 ================> DF-SCS-MP2 Energies <==================
	-----------------------------------------------------------
	 SCS Same-Spin Scale       =       0.3333333333333333 [-]
	 SCS Opposite-Spin Scale   =       1.2000000000000000 [-]
	 SCS Same-Spin Energy      =      -0.1094539970688899 [Eh]
	 SCS Opposite-Spin Energy  =      -1.2157898211347211 [Eh]
	 SCS Correlation Energy    =      -1.3252438182036110 [Eh]
	 SCS Total Energy          =    -303.1676398965846033 [Eh]
	-----------------------------------------------------------

  Dipole Moment: [D]
     X:     0.0173      Y:     1.7434      Z:     1.0637     Total:     2.0424

*** Psi4 exiting successfully. Buy a developer a beer!
