                               Psi4 1.3.2 release

  ==> Input File <==

--------------------------------------------------------------------------
#psi4
#
memory 32 gb

molecule  {
0 1
  N       -0.2981960    -1.1935180     0.0024800
  C       -0.8989770     0.0078150    -0.0038810
  C       -0.1842220     1.2188990    -0.0098900
  C        1.2026080     1.1704100     0.0047310
  C        1.8420610    -0.0727780     0.0063770
  C        1.0476300    -1.2144680     0.0024310
  H       -0.7133720     2.1685100    -0.0287310
  H        1.7800030     2.0919190     0.0058730
  H        2.9246290    -0.1531180     0.0135510
  H        1.4978930    -2.2058730     0.0048570
  N       -2.3021631    -0.0049063     0.2162396
  H       -2.7545740     0.7554310     0.3970350
  H       -2.6685370    -0.9125390     0.1761140
units angstrom
no_reorient  #important for SAPT in psi4, default
symmetry c1  #important for SAPT in psi4, default
}

set PROPERTIES_ORIGIN ["COM"]
properties('MP2/aug-cc-pvtz', properties = ['dipole'])
--------------------------------------------------------------------------

    Molecular point group: c1
  Charge       = 0
  Multiplicity = 1
  Basis Set: AUG-CC-PVTZ
    Blend: AUG-CC-PVTZ
  Basis Set: (AUG-CC-PVTZ AUX)
    Blend: AUG-CC-PVTZ-JKFIT

    Orbital Energies [Eh]
    ---------------------

    Doubly Occupied:

       1A    -15.553876     2A    -15.553754     3A    -11.320959
       4A    -11.275945     5A    -11.259303     6A    -11.232596
       7A    -11.225893     8A     -1.275411     9A     -1.189482
      10A     -1.082240    11A     -1.009585    12A     -0.862240
      13A     -0.842375    14A     -0.741571    15A     -0.708796
      16A     -0.659995    17A     -0.638661    18A     -0.602187
      19A     -0.568737    20A     -0.558194    21A     -0.525631
      22A     -0.450716    23A     -0.418671    24A     -0.379614
      25A     -0.307278

  @DF-RHF Final Energy:  -301.82815080413582

   => Energetics <=

    Nuclear Repulsion Energy =            274.8442381096131157
    One-Electron Energy =                -952.8573583497254731
    Two-Electron Energy =                 376.1849694359765408
    Total Energy =                       -301.8281508041358165
  Basis Set: (AUG-CC-PVTZ AUX)
    Blend: AUG-CC-PVTZ-RI
    Molecular point group: c1

    Geometry (in Angstrom), charge = 0, multiplicity = 1:

       Center              X                  Y                   Z               Mass
    ------------   -----------------  -----------------  -----------------  -----------------
         N           -0.295673359713    -1.175388786229    -0.036148305739    14.003074004430
         C           -0.896454359713     0.025944213771    -0.042509305739    12.000000000000
         C           -0.181699359713     1.237028213771    -0.048518305739    12.000000000000
         C            1.205130640287     1.188539213771    -0.033897305739    12.000000000000
         C            1.844583640287    -0.054648786229    -0.032251305739    12.000000000000
         C            1.050152640287    -1.196338786229    -0.036197305739    12.000000000000
         H           -0.710849359713     2.186639213771    -0.067359305739     1.007825032230
         H            1.782525640287     2.110048213771    -0.032755305739     1.007825032230
         H            2.927151640287    -0.134988786229    -0.025077305739     1.007825032230
         H            1.500415640287    -2.187743786229    -0.033771305739     1.007825032230
         N           -2.299640459713     0.013222913771     0.177611294261    14.003074004430
         H           -2.752051359713     0.773560213771     0.358406694261     1.007825032230
         H           -2.666014359713    -0.894409786229     0.137485694261     1.007825032230

  Basis Set: AUG-CC-PVTZ
    Blend: AUG-CC-PVTZ
  Basis Set: (AUG-CC-PVTZ AUX)
    Blend: AUG-CC-PVTZ-JKFIT
	 Reference Energy          =    -301.8281508041358165 [Eh]
	 Singles Energy            =      -0.0000000000000000 [Eh]
	 Same-Spin Energy          =      -0.3278946066728130 [Eh]
	 Opposite-Spin Energy      =      -1.0115470305997285 [Eh]
	 Correlation Energy        =      -1.3394416372725415 [Eh]
	 Total Energy              =    -303.1675924414083738 [Eh]

	 ================> DF-SCS-MP2 Energies <==================
	-----------------------------------------------------------
	 SCS Same-Spin Scale       =       0.3333333333333333 [-]
	 SCS Opposite-Spin Scale   =       1.2000000000000000 [-]
	 SCS Same-Spin Energy      =      -0.1092982022242710 [Eh]
	 SCS Opposite-Spin Energy  =      -1.2138564367196742 [Eh]
	 SCS Correlation Energy    =      -1.3231546389439452 [Eh]
	 SCS Total Energy          =    -303.1513054430797638 [Eh]
	-----------------------------------------------------------

  Dipole Moment: [D]
     X:    -0.1618      Y:     1.7972      Z:     0.2383     Total:     1.8202

*** Psi4 exiting successfully. Buy a developer a beer!
