                               Psi4 1.3.2 release

  ==> Input File <==

--------------------------------------------------------------------------
#psi4
#
memory 32 gb

molecule  {
0 1
  N       -0.2981960    -1.1935180     0.0024800
  C       -0.8989770     0.0078150    -0.0038810
  C       -0.1842220     1.2188990    -0.0098900
  C        1.2026080     1.1704100     0.0047310
  C        1.8420610    -0.0727780     0.0063770
  C        1.0476300    -1.2144680     0.0024310
  H       -0.7133720     2.1685100    -0.0287310
  H        1.7800030     2.0919190     0.0058730
  H        2.9246290    -0.1531180     0.0135510
  H        1.4978930    -2.2058730     0.0048570
  N       -2.3002138    -0.0052546     0.1662789
  H       -2.7545740     0.7554310     0.3970350
  H       -2.6685370    -0.9125390     0.1761140
units angstrom
no_reorient  #important for SAPT in psi4, default
symmetry c1  #important for SAPT in psi4, default
}

set PROPERTIES_ORIGIN ["COM"]
properties('MP2/aug-cc-pvtz', properties = ['dipole'])
--------------------------------------------------------------------------

    Molecular point group: c1
  Charge       = 0
  Multiplicity = 1
  Basis Set: AUG-CC-PVTZ
    Blend: AUG-CC-PVTZ
  Basis Set: (AUG-CC-PVTZ AUX)
    Blend: AUG-CC-PVTZ-JKFIT

    Orbital Energies [Eh]
    ---------------------

    Doubly Occupied:

       1A    -15.555302     2A    -15.553170     3A    -11.320312
       4A    -11.275660     5A    -11.259110     6A    -11.232175
       7A    -11.225395     8A     -1.276214     9A     -1.189461
      10A     -1.081962    11A     -1.008869    12A     -0.862034
      13A     -0.842126    14A     -0.738237    15A     -0.710041
      16A     -0.660294    17A     -0.637522    18A     -0.602664
      19A     -0.568294    20A     -0.559200    21A     -0.525841
      22A     -0.451613    23A     -0.418498    24A     -0.379490
      25A     -0.306869

  @DF-RHF Final Energy:  -301.83265923942668

   => Energetics <=

    Nuclear Repulsion Energy =            274.9603722722405337
    One-Electron Energy =                -953.1053605961010362
    Two-Electron Energy =                 376.3123290844338271
    Total Energy =                       -301.8326592394266754
  Basis Set: (AUG-CC-PVTZ AUX)
    Blend: AUG-CC-PVTZ-RI
    Molecular point group: c1

    Geometry (in Angstrom), charge = 0, multiplicity = 1:

       Center              X                  Y                   Z               Mass
    ------------   -----------------  -----------------  -----------------  -----------------
         N           -0.295963580798    -1.175336929663    -0.028709918351    14.003074004430
         C           -0.896744580798     0.025996070337    -0.035070918351    12.000000000000
         C           -0.181989580798     1.237080070337    -0.041079918351    12.000000000000
         C            1.204840419202     1.188591070337    -0.026458918351    12.000000000000
         C            1.844293419202    -0.054596929663    -0.024812918351    12.000000000000
         C            1.049862419202    -1.196286929663    -0.028758918351    12.000000000000
         H           -0.711139580798     2.186691070337    -0.059920918351     1.007825032230
         H            1.782235419202     2.110100070337    -0.025316918351     1.007825032230
         H            2.926861419202    -0.134936929663    -0.017638918351     1.007825032230
         H            1.500125419202    -2.187691929663    -0.026332918351     1.007825032230
         N           -2.297981380798     0.012926470337     0.135088981649    14.003074004430
         H           -2.752341580798     0.773612070337     0.365845081649     1.007825032230
         H           -2.666304580798    -0.894357929663     0.144924081649     1.007825032230

  Basis Set: AUG-CC-PVTZ
    Blend: AUG-CC-PVTZ
  Basis Set: (AUG-CC-PVTZ AUX)
    Blend: AUG-CC-PVTZ-JKFIT
	 Reference Energy          =    -301.8326592394266754 [Eh]
	 Singles Energy            =      -0.0000000000000000 [Eh]
	 Same-Spin Energy          =      -0.3278564456460303 [Eh]
	 Opposite-Spin Energy      =      -1.0114283915146385 [Eh]
	 Correlation Energy        =      -1.3392848371606689 [Eh]
	 Total Energy              =    -303.1719440765873514 [Eh]

	 ================> DF-SCS-MP2 Energies <==================
	-----------------------------------------------------------
	 SCS Same-Spin Scale       =       0.3333333333333333 [-]
	 SCS Opposite-Spin Scale   =       1.2000000000000000 [-]
	 SCS Same-Spin Energy      =      -0.1092854818820101 [Eh]
	 SCS Opposite-Spin Energy  =      -1.2137140698175661 [Eh]
	 SCS Correlation Energy    =      -1.3229995516995763 [Eh]
	 SCS Total Energy          =    -303.1556587911262568 [Eh]
	-----------------------------------------------------------

  Dipole Moment: [D]
     X:    -0.1900      Y:     1.7890      Z:     0.3873     Total:     1.8403

*** Psi4 exiting successfully. Buy a developer a beer!
