                               Psi4 1.3.2 release

  ==> Input File <==

--------------------------------------------------------------------------
#psi4
#
memory 32 gb

molecule  {
0 1
  N       -0.2981960    -1.1935180     0.0024800
  C       -0.8989770     0.0078150    -0.0038810
  C       -0.1842220     1.2188990    -0.0098900
  C        1.2026080     1.1704100     0.0047310
  C        1.8420610    -0.0727780     0.0063770
  C        1.0476300    -1.2144680     0.0024310
  H       -0.7133720     2.1685100    -0.0287310
  H        1.7800030     2.0919190     0.0058730
  H        2.9246290    -0.1531180     0.0135510
  H        1.4978930    -2.2058730     0.0048570
  N       -2.2963151    -0.0059512     0.0663573
  H       -2.7545740     0.7554310     0.3970350
  H       -2.6685370    -0.9125390     0.1761140
units angstrom
no_reorient  #important for SAPT in psi4, default
symmetry c1  #important for SAPT in psi4, default
}

set PROPERTIES_ORIGIN ["COM"]
properties('MP2/aug-cc-pvtz', properties = ['dipole'])
--------------------------------------------------------------------------

    Molecular point group: c1
  Charge       = 0
  Multiplicity = 1
  Basis Set: AUG-CC-PVTZ
    Blend: AUG-CC-PVTZ
  Basis Set: (AUG-CC-PVTZ AUX)
    Blend: AUG-CC-PVTZ-JKFIT

    Orbital Energies [Eh]
    ---------------------

    Doubly Occupied:

       1A    -15.559474     2A    -15.552873     3A    -11.318807
       4A    -11.275426     5A    -11.259080     6A    -11.232052
       7A    -11.225339     8A     -1.277334     9A     -1.188223
      10A     -1.081910    11A     -1.007496    12A     -0.861631
      13A     -0.841034    14A     -0.728362    15A     -0.710046
      16A     -0.660525    17A     -0.633804    18A     -0.603487
      19A     -0.567565    20A     -0.560881    21A     -0.526142
      22A     -0.454318    23A     -0.418444    24A     -0.379569
      25A     -0.307635

  @DF-RHF Final Energy:  -301.84031625237719

   => Energetics <=

    Nuclear Repulsion Energy =            275.0441340756937052
    One-Electron Energy =                -953.3059835144042609
    Two-Electron Energy =                 376.4215331863333631
    Total Energy =                       -301.8403162523771925
  Basis Set: (AUG-CC-PVTZ AUX)
    Blend: AUG-CC-PVTZ-RI
    Molecular point group: c1

    Geometry (in Angstrom), charge = 0, multiplicity = 1:

       Center              X                  Y                   Z               Mass
    ------------   -----------------  -----------------  -----------------  -----------------
         N           -0.296544037855    -1.175233216532    -0.013833113800    14.003074004430
         C           -0.897325037855     0.026099783468    -0.020194113800    12.000000000000
         C           -0.182570037855     1.237183783468    -0.026203113800    12.000000000000
         C            1.204259962145     1.188694783468    -0.011582113800    12.000000000000
         C            1.843712962145    -0.054493216532    -0.009936113800    12.000000000000
         C            1.049281962145    -1.196183216532    -0.013882113800    12.000000000000
         H           -0.711720037855     2.186794783468    -0.045044113800     1.007825032230
         H            1.781654962145     2.110203783468    -0.010440113800     1.007825032230
         H            2.926280962145    -0.134833216532    -0.002762113800     1.007825032230
         H            1.499544962145    -2.187588216532    -0.011456113800     1.007825032230
         N           -2.294663137855     0.012333583468     0.050044186200    14.003074004430
         H           -2.752922037855     0.773715783468     0.380721886200     1.007825032230
         H           -2.666885037855    -0.894254216532     0.159800886200     1.007825032230

  Basis Set: AUG-CC-PVTZ
    Blend: AUG-CC-PVTZ
  Basis Set: (AUG-CC-PVTZ AUX)
    Blend: AUG-CC-PVTZ-JKFIT
	 Reference Energy          =    -301.8403162523771925 [Eh]
	 Singles Energy            =      -0.0000000000000000 [Eh]
	 Same-Spin Energy          =      -0.3278858109999249 [Eh]
	 Opposite-Spin Energy      =      -1.0115956949221863 [Eh]
	 Correlation Energy        =      -1.3394815059221112 [Eh]
	 Total Energy              =    -303.1797977582992871 [Eh]

	 ================> DF-SCS-MP2 Energies <==================
	-----------------------------------------------------------
	 SCS Same-Spin Scale       =       0.3333333333333333 [-]
	 SCS Opposite-Spin Scale   =       1.2000000000000000 [-]
	 SCS Same-Spin Energy      =      -0.1092952703333083 [Eh]
	 SCS Opposite-Spin Energy  =      -1.2139148339066235 [Eh]
	 SCS Correlation Energy    =      -1.3232101042399318 [Eh]
	 SCS Total Energy          =    -303.1635263566171261 [Eh]
	-----------------------------------------------------------

  Dipole Moment: [D]
     X:    -0.1717      Y:     1.7735      Z:     0.6617     Total:     1.9006

*** Psi4 exiting successfully. Buy a developer a beer!
