                               Psi4 1.3.2 release

  ==> Input File <==

--------------------------------------------------------------------------
#psi4
#
memory 32 gb

molecule  {
0 1
  N       -0.2981960    -1.1935180     0.0024800
  C       -0.8989770     0.0078150    -0.0038810
  C       -0.1842220     1.2188990    -0.0098900
  C        1.2026080     1.1704100     0.0047310
  C        1.8420610    -0.0727780     0.0063770
  C        1.0476300    -1.2144680     0.0024310
  H       -0.7133720     2.1685100    -0.0287310
  H        1.7787991     2.0919194     0.1558682
  H        2.9246290    -0.1531180     0.0135510
  H        1.4978930    -2.2058730     0.0048570
  N       -2.2904670    -0.0069960    -0.0835250
  H       -2.7545740     0.7554310     0.3970350
  H       -2.6685370    -0.9125390     0.1761140
units angstrom
no_reorient  #important for SAPT in psi4, default
symmetry c1  #important for SAPT in psi4, default
}

set PROPERTIES_ORIGIN ["COM"]
properties('MP2/aug-cc-pvtz', properties = ['dipole'])
--------------------------------------------------------------------------

    Molecular point group: c1
  Charge       = 0
  Multiplicity = 1
  Basis Set: AUG-CC-PVTZ
    Blend: AUG-CC-PVTZ
  Basis Set: (AUG-CC-PVTZ AUX)
    Blend: AUG-CC-PVTZ-JKFIT

    Orbital Energies [Eh]
    ---------------------

    Doubly Occupied:

       1A    -15.569282     2A    -15.554555     3A    -11.316616
       4A    -11.275969     5A    -11.260749     6A    -11.233502
       7A    -11.227492     8A     -1.277650     9A     -1.183569
      10A     -1.082769    11A     -1.005685    12A     -0.860984
      13A     -0.837775    14A     -0.715543    15A     -0.698745
      16A     -0.659868    17A     -0.621873    18A     -0.604560
      19A     -0.567291    20A     -0.559612    21A     -0.526567
      22A     -0.460025    23A     -0.419470    24A     -0.379973
      25A     -0.312051

  @DF-RHF Final Energy:  -301.84154642561475

   => Energetics <=

    Nuclear Repulsion Energy =            274.7772998389327768
    One-Electron Energy =                -952.8133442743414889
    Two-Electron Energy =                 376.1944980097939606
    Total Energy =                       -301.8415464256147516
  Basis Set: (AUG-CC-PVTZ AUX)
    Blend: AUG-CC-PVTZ-RI
    Molecular point group: c1

    Geometry (in Angstrom), charge = 0, multiplicity = 1:

       Center              X                  Y                   Z               Mass
    ------------   -----------------  -----------------  -----------------  -----------------
         N           -0.297401830507    -1.175077666009     0.006874806076    14.003074004430
         C           -0.898182830507     0.026255333991     0.000513806076    12.000000000000
         C           -0.183427830507     1.237339333991    -0.005495193924    12.000000000000
         C            1.203402169493     1.188850333991     0.009125806076    12.000000000000
         C            1.842855169493    -0.054337666009     0.010771806076    12.000000000000
         C            1.048424169493    -1.196027666009     0.006825806076    12.000000000000
         H           -0.712577830507     2.186950333991    -0.024336193924     1.007825032230
         H            1.779593269493     2.110359733991     0.160263006076     1.007825032230
         H            2.925423169493    -0.134677666009     0.017945806076     1.007825032230
         H            1.498687169493    -2.187432666009     0.009251806076     1.007825032230
         N           -2.289672830507     0.011444333991    -0.079130193924    14.003074004430
         H           -2.753779830507     0.773871333991     0.401429806076     1.007825032230
         H           -2.667742830507    -0.894098666009     0.180508806076     1.007825032230

  Basis Set: AUG-CC-PVTZ
    Blend: AUG-CC-PVTZ
  Basis Set: (AUG-CC-PVTZ AUX)
    Blend: AUG-CC-PVTZ-JKFIT
	 Reference Energy          =    -301.8415464256147516 [Eh]
	 Singles Energy            =      -0.0000000000000000 [Eh]
	 Same-Spin Energy          =      -0.3284159403061684 [Eh]
	 Opposite-Spin Energy      =      -1.0132596526515991 [Eh]
	 Correlation Energy        =      -1.3416755929577675 [Eh]
	 Total Energy              =    -303.1832220185725077 [Eh]

	 ================> DF-SCS-MP2 Energies <==================
	-----------------------------------------------------------
	 SCS Same-Spin Scale       =       0.3333333333333333 [-]
	 SCS Opposite-Spin Scale   =       1.2000000000000000 [-]
	 SCS Same-Spin Energy      =      -0.1094719801020561 [Eh]
	 SCS Opposite-Spin Energy  =      -1.2159115831819189 [Eh]
	 SCS Correlation Energy    =      -1.3253835632839750 [Eh]
	 SCS Total Energy          =    -303.1669299888987439 [Eh]
	-----------------------------------------------------------

  Dipole Moment: [D]
     X:     0.0121      Y:     1.7349      Z:     1.0935     Total:     2.0508

*** Psi4 exiting successfully. Buy a developer a beer!
