                               Psi4 1.3.2 release

  ==> Input File <==

--------------------------------------------------------------------------
#psi4
#
memory 32 gb

molecule  {
0 1
  N       -0.2981960    -1.1935180     0.0024800
  C       -0.8989770     0.0078150    -0.0038810
  C       -0.1842220     1.2188990    -0.0098900
  C        1.2026080     1.1704100     0.0047310
  C        1.8420610    -0.0727780     0.0063770
  C        1.0476300    -1.2144680     0.0024310
  H       -0.7133720     2.1685100    -0.0287310
  H        1.7800030     2.0919190     0.0058730
  H        2.9246290    -0.1531180     0.0135510
  H        1.4978930    -2.2058730     0.0048570
  N       -2.2982644    -0.0056029     0.1163181
  H       -2.7545740     0.7554310     0.3970350
  H       -2.6685370    -0.9125390     0.1761140
units angstrom
no_reorient  #important for SAPT in psi4, default
symmetry c1  #important for SAPT in psi4, default
}

set PROPERTIES_ORIGIN ["COM"]
properties('MP2/aug-cc-pvtz', properties = ['dipole'])
--------------------------------------------------------------------------

    Molecular point group: c1
  Charge       = 0
  Multiplicity = 1
  Basis Set: AUG-CC-PVTZ
    Blend: AUG-CC-PVTZ
  Basis Set: (AUG-CC-PVTZ AUX)
    Blend: AUG-CC-PVTZ-JKFIT

    Orbital Energies [Eh]
    ---------------------

    Doubly Occupied:

       1A    -15.557170     2A    -15.552877     3A    -11.319584
       4A    -11.275487     5A    -11.259036     6A    -11.231997
       7A    -11.225213     8A     -1.276864     9A     -1.189035
      10A     -1.081853    11A     -1.008173    12A     -0.861820
      13A     -0.841682    14A     -0.733648    15A     -0.710562
      16A     -0.660471    17A     -0.635949    18A     -0.603091
      19A     -0.567904    20A     -0.560111    21A     -0.526004
      22A     -0.452823    23A     -0.418419    24A     -0.379476
      25A     -0.307000

  @DF-RHF Final Energy:  -301.83683514061181

   => Energetics <=

    Nuclear Repulsion Energy =            275.0268070470884822
    One-Electron Energy =                -953.2547878665496910
    Two-Electron Energy =                 376.3911456788493979
    Total Energy =                       -301.8368351406118109
  Basis Set: (AUG-CC-PVTZ AUX)
    Blend: AUG-CC-PVTZ-RI
    Molecular point group: c1

    Geometry (in Angstrom), charge = 0, multiplicity = 1:

       Center              X                  Y                   Z               Mass
    ------------   -----------------  -----------------  -----------------  -----------------
         N           -0.296253816771    -1.175285073097    -0.021271516075    14.003074004430
         C           -0.897034816771     0.026047926903    -0.027632516075    12.000000000000
         C           -0.182279816771     1.237131926903    -0.033641516075    12.000000000000
         C            1.204550183229     1.188642926903    -0.019020516075    12.000000000000
         C            1.844003183229    -0.054545073097    -0.017374516075    12.000000000000
         C            1.049572183229    -1.196235073097    -0.021320516075    12.000000000000
         H           -0.711429816771     2.186742926903    -0.052482516075     1.007825032230
         H            1.781945183229     2.110151926903    -0.017878516075     1.007825032230
         H            2.926571183229    -0.134885073097    -0.010200516075     1.007825032230
         H            1.499835183229    -2.187640073097    -0.018894516075     1.007825032230
         N           -2.296322216771     0.012630026903     0.092566583925    14.003074004430
         H           -2.752631816771     0.773663926903     0.373283483925     1.007825032230
         H           -2.666594816771    -0.894306073097     0.152362483925     1.007825032230

  Basis Set: AUG-CC-PVTZ
    Blend: AUG-CC-PVTZ
  Basis Set: (AUG-CC-PVTZ AUX)
    Blend: AUG-CC-PVTZ-JKFIT
	 Reference Energy          =    -301.8368351406118109 [Eh]
	 Singles Energy            =      -0.0000000000000000 [Eh]
	 Same-Spin Energy          =      -0.3278507829323007 [Eh]
	 Opposite-Spin Energy      =      -1.0114395369423248 [Eh]
	 Correlation Energy        =      -1.3392903198746255 [Eh]
	 Total Energy              =    -303.1761254604864462 [Eh]

	 ================> DF-SCS-MP2 Energies <==================
	-----------------------------------------------------------
	 SCS Same-Spin Scale       =       0.3333333333333333 [-]
	 SCS Opposite-Spin Scale   =       1.2000000000000000 [-]
	 SCS Same-Spin Energy      =      -0.1092835943107669 [Eh]
	 SCS Opposite-Spin Energy  =      -1.2137274443307897 [Eh]
	 SCS Correlation Energy    =      -1.3230110386415566 [Eh]
	 SCS Total Energy          =    -303.1598461792533499 [Eh]
	-----------------------------------------------------------

  Dipole Moment: [D]
     X:    -0.1931      Y:     1.7811      Z:     0.5288     Total:     1.8679

*** Psi4 exiting successfully. Buy a developer a beer!
