                               Psi4 1.3.2 release

  ==> Input File <==

--------------------------------------------------------------------------
#psi4
#
memory 32 gb

molecule  {
0 1
  N       -0.2981960    -1.1935180     0.0024800
  C       -0.8989770     0.0078150    -0.0038810
  C       -0.1842220     1.2188990    -0.0098900
  C        1.2026080     1.1704100     0.0047310
  C        1.8420610    -0.0727780     0.0063770
  C        1.0476300    -1.2144680     0.0024310
  H       -0.7133720     2.1685100    -0.0287310
  H        1.7800030     2.0919190     0.0058730
  H        2.9246290    -0.1531180     0.0135510
  H        1.4983674    -2.2057358    -0.2951426
  N       -2.2904670    -0.0069960    -0.0835250
  H       -2.7545740     0.7554310     0.3970350
  H       -2.6685370    -0.9125390     0.1761140
units angstrom
no_reorient  #important for SAPT in psi4, default
symmetry c1  #important for SAPT in psi4, default
}

set PROPERTIES_ORIGIN ["COM"]
properties('MP2/aug-cc-pvtz', properties = ['dipole'])
--------------------------------------------------------------------------

    Molecular point group: c1
  Charge       = 0
  Multiplicity = 1
  Basis Set: AUG-CC-PVTZ
    Blend: AUG-CC-PVTZ
  Basis Set: (AUG-CC-PVTZ AUX)
    Blend: AUG-CC-PVTZ-JKFIT

    Orbital Energies [Eh]
    ---------------------

    Doubly Occupied:

       1A    -15.569424     2A    -15.554842     3A    -11.317053
       4A    -11.279670     5A    -11.260200     6A    -11.234107
       7A    -11.228092     8A     -1.277884     9A     -1.183614
      10A     -1.083433    11A     -1.004976    12A     -0.859450
      13A     -0.838050    14A     -0.713219    15A     -0.699179
      16A     -0.659884    17A     -0.621805    18A     -0.599428
      19A     -0.568014    20A     -0.560228    21A     -0.527186
      22A     -0.457406    23A     -0.419179    24A     -0.380029
      25A     -0.312090

  @DF-RHF Final Energy:  -301.83645671124725

   => Energetics <=

    Nuclear Repulsion Energy =            274.6640964373679594
    One-Electron Energy =                -952.5842185640514117
    Two-Electron Energy =                 376.0836654154362577
    Total Energy =                       -301.8364567112472514
  Basis Set: (AUG-CC-PVTZ AUX)
    Blend: AUG-CC-PVTZ-RI
    Molecular point group: c1

    Geometry (in Angstrom), charge = 0, multiplicity = 1:

       Center              X                  Y                   Z               Mass
    ------------   -----------------  -----------------  -----------------  -----------------
         N           -0.297419814314    -1.175079131888     0.011696720850    14.003074004430
         C           -0.898200814314     0.026253868112     0.005335720850    12.000000000000
         C           -0.183445814314     1.237337868112    -0.000673279150    12.000000000000
         C            1.203384185686     1.188848868112     0.013947720850    12.000000000000
         C            1.842837185686    -0.054339131888     0.015593720850    12.000000000000
         C            1.048406185686    -1.196029131888     0.011647720850    12.000000000000
         H           -0.712595814314     2.186948868112    -0.019514279150     1.007825032230
         H            1.780779185686     2.110357868112     0.015089720850     1.007825032230
         H            2.925405185686    -0.134679131888     0.022767720850     1.007825032230
         H            1.499143585686    -2.187296931888    -0.285925879150     1.007825032230
         N           -2.289690814314     0.011442868112    -0.074308279150    14.003074004430
         H           -2.753797814314     0.773869868112     0.406251720850     1.007825032230
         H           -2.667760814314    -0.894100131888     0.185330720850     1.007825032230

  Basis Set: AUG-CC-PVTZ
    Blend: AUG-CC-PVTZ
  Basis Set: (AUG-CC-PVTZ AUX)
    Blend: AUG-CC-PVTZ-JKFIT
	 Reference Energy          =    -301.8364567112472514 [Eh]
	 Singles Energy            =      -0.0000000000000000 [Eh]
	 Same-Spin Energy          =      -0.3287068555836766 [Eh]
	 Opposite-Spin Energy      =      -1.0139045308737198 [Eh]
	 Correlation Energy        =      -1.3426113864573965 [Eh]
	 Total Energy              =    -303.1790680977046577 [Eh]

	 ================> DF-SCS-MP2 Energies <==================
	-----------------------------------------------------------
	 SCS Same-Spin Scale       =       0.3333333333333333 [-]
	 SCS Opposite-Spin Scale   =       1.2000000000000000 [-]
	 SCS Same-Spin Energy      =      -0.1095689518612255 [Eh]
	 SCS Opposite-Spin Energy  =      -1.2166854370484637 [Eh]
	 SCS Correlation Energy    =      -1.3262543889096892 [Eh]
	 SCS Total Energy          =    -303.1627111001569688 [Eh]
	-----------------------------------------------------------

  Dipole Moment: [D]
     X:    -0.0166      Y:     1.8169      Z:     0.8504     Total:     2.0061

*** Psi4 exiting successfully. Buy a developer a beer!
