                               Psi4 1.3.2 release

  ==> Input File <==

--------------------------------------------------------------------------
#psi4
#
memory 32 gb

molecule  {
0 1
  N       -0.2981960    -1.1935180     0.0024800
  C       -0.8989770     0.0078150    -0.0038810
  C       -0.1842220     1.2188990    -0.0098900
  C        1.2026080     1.1704100     0.0047310
  C        1.8420610    -0.0727780     0.0063770
  C        1.0476300    -1.2144680     0.0024310
  H       -0.7150191     2.1703764     0.1212483
  H        1.7800030     2.0919190     0.0058730
  H        2.9246290    -0.1531180     0.0135510
  H        1.4978930    -2.2058730     0.0048570
  N       -2.2904670    -0.0069960    -0.0835250
  H       -2.7545740     0.7554310     0.3970350
  H       -2.6685370    -0.9125390     0.1761140
units angstrom
no_reorient  #important for SAPT in psi4, default
symmetry c1  #important for SAPT in psi4, default
}

set PROPERTIES_ORIGIN ["COM"]
properties('MP2/aug-cc-pvtz', properties = ['dipole'])
--------------------------------------------------------------------------

    Molecular point group: c1
  Charge       = 0
  Multiplicity = 1
  Basis Set: AUG-CC-PVTZ
    Blend: AUG-CC-PVTZ
  Basis Set: (AUG-CC-PVTZ AUX)
    Blend: AUG-CC-PVTZ-JKFIT

    Orbital Energies [Eh]
    ---------------------

    Doubly Occupied:

       1A    -15.569355     2A    -15.554490     3A    -11.316766
       4A    -11.276075     5A    -11.259962     6A    -11.234430
       7A    -11.227383     8A     -1.277687     9A     -1.183621
      10A     -1.082928    11A     -1.005509    12A     -0.861167
      13A     -0.838100    14A     -0.716016    15A     -0.699014
      16A     -0.659246    17A     -0.621592    18A     -0.602929
      19A     -0.566759    20A     -0.563540    21A     -0.524594
      22A     -0.460585    23A     -0.419270    24A     -0.380246
      25A     -0.312051

  @DF-RHF Final Energy:  -301.84170900182067

   => Energetics <=

    Nuclear Repulsion Energy =            274.7742294632427047
    One-Electron Energy =                -952.8052430113849596
    Two-Electron Energy =                 376.1893045463215799
    Total Energy =                       -301.8417090018206750
  Basis Set: (AUG-CC-PVTZ AUX)
    Blend: AUG-CC-PVTZ-RI
    Molecular point group: c1

    Geometry (in Angstrom), charge = 0, multiplicity = 1:

       Center              X                  Y                   Z               Mass
    ------------   -----------------  -----------------  -----------------  -----------------
         N           -0.297397081402    -1.175097661113     0.006874976452    14.003074004430
         C           -0.898178081402     0.026235338887     0.000513976452    12.000000000000
         C           -0.183423081402     1.237319338887    -0.005495023548    12.000000000000
         C            1.203406918598     1.188830338887     0.009125976452    12.000000000000
         C            1.842859918598    -0.054357661113     0.010771976452    12.000000000000
         C            1.048428918598    -1.196047661113     0.006825976452    12.000000000000
         H           -0.714220181402     2.188796738887     0.125643276452     1.007825032230
         H            1.780801918598     2.110339338887     0.010267976452     1.007825032230
         H            2.925427918598    -0.134697661113     0.017945976452     1.007825032230
         H            1.498691918598    -2.187452661113     0.009251976452     1.007825032230
         N           -2.289668081402     0.011424338887    -0.079130023548    14.003074004430
         H           -2.753775081402     0.773851338887     0.401429976452     1.007825032230
         H           -2.667738081402    -0.894118661113     0.180508976452     1.007825032230

  Basis Set: AUG-CC-PVTZ
    Blend: AUG-CC-PVTZ
  Basis Set: (AUG-CC-PVTZ AUX)
    Blend: AUG-CC-PVTZ-JKFIT
	 Reference Energy          =    -301.8417090018206750 [Eh]
	 Singles Energy            =      -0.0000000000000000 [Eh]
	 Same-Spin Energy          =      -0.3283689651778845 [Eh]
	 Opposite-Spin Energy      =      -1.0132161752675635 [Eh]
	 Correlation Energy        =      -1.3415851404454480 [Eh]
	 Total Energy              =    -303.1832941422661065 [Eh]

	 ================> DF-SCS-MP2 Energies <==================
	-----------------------------------------------------------
	 SCS Same-Spin Scale       =       0.3333333333333333 [-]
	 SCS Opposite-Spin Scale   =       1.2000000000000000 [-]
	 SCS Same-Spin Energy      =      -0.1094563217259615 [Eh]
	 SCS Opposite-Spin Energy  =      -1.2158594103210760 [Eh]
	 SCS Correlation Energy    =      -1.3253157320470375 [Eh]
	 SCS Total Energy          =    -303.1670247338677200 [Eh]
	-----------------------------------------------------------

  Dipole Moment: [D]
     X:     0.0259      Y:     1.7358      Z:     1.0947     Total:     2.0524

*** Psi4 exiting successfully. Buy a developer a beer!
