                               Psi4 1.3.2 release

  ==> Input File <==

--------------------------------------------------------------------------
#psi4
#
memory 32 gb

molecule  {
0 1
  N       -0.2981960    -1.1935180     0.0024800
  C       -0.8989770     0.0078150    -0.0038810
  C       -0.1842220     1.2188990    -0.0098900
  C        1.2026080     1.1704100     0.0047310
  C        1.8420610    -0.0727780     0.0063770
  C        1.0476300    -1.2144680     0.0024310
  H       -0.7161171     2.1716206     0.2212346
  H        1.7800030     2.0919190     0.0058730
  H        2.9246290    -0.1531180     0.0135510
  H        1.4978930    -2.2058730     0.0048570
  N       -2.2904670    -0.0069960    -0.0835250
  H       -2.7545740     0.7554310     0.3970350
  H       -2.6685370    -0.9125390     0.1761140
units angstrom
no_reorient  #important for SAPT in psi4, default
symmetry c1  #important for SAPT in psi4, default
}

set PROPERTIES_ORIGIN ["COM"]
properties('MP2/aug-cc-pvtz', properties = ['dipole'])
--------------------------------------------------------------------------

    Molecular point group: c1
  Charge       = 0
  Multiplicity = 1
  Basis Set: AUG-CC-PVTZ
    Blend: AUG-CC-PVTZ
  Basis Set: (AUG-CC-PVTZ AUX)
    Blend: AUG-CC-PVTZ-JKFIT

    Orbital Energies [Eh]
    ---------------------

    Doubly Occupied:

       1A    -15.569527     2A    -15.554684     3A    -11.317110
       4A    -11.276501     5A    -11.260277     6A    -11.236011
       7A    -11.227558     8A     -1.277904     9A     -1.183814
      10A     -1.082895    11A     -1.005369    12A     -0.860713
      13A     -0.838111    14A     -0.715658    15A     -0.699131
      16A     -0.657627    17A     -0.621482    18A     -0.601032
      19A     -0.567058    20A     -0.564420    21A     -0.522721
      22A     -0.460822    23A     -0.419523    24A     -0.379946
      25A     -0.312169

  @DF-RHF Final Energy:  -301.83914622178690

   => Energetics <=

    Nuclear Repulsion Energy =            274.7050322431147720
    One-Electron Energy =                -952.6642302524451225
    Two-Electron Energy =                 376.1200517875433889
    Total Energy =                       -301.8391462217869048
  Basis Set: (AUG-CC-PVTZ AUX)
    Blend: AUG-CC-PVTZ-RI
    Molecular point group: c1

    Geometry (in Angstrom), charge = 0, multiplicity = 1:

       Center              X                  Y                   Z               Mass
    ------------   -----------------  -----------------  -----------------  -----------------
         N           -0.297385315794    -1.175110993326     0.005803574255    14.003074004430
         C           -0.898166315794     0.026222006674    -0.000557425745    12.000000000000
         C           -0.183411315794     1.237306006674    -0.006566425745    12.000000000000
         C            1.203418684206     1.188817006674     0.008054574255    12.000000000000
         C            1.842871684206    -0.054370993326     0.009700574255    12.000000000000
         C            1.048440684206    -1.196060993326     0.005754574255    12.000000000000
         H           -0.715306415794     2.190027606674     0.224558174255     1.007825032230
         H            1.780813684206     2.110326006674     0.009196574255     1.007825032230
         H            2.925439684206    -0.134710993326     0.016874574255     1.007825032230
         H            1.498703684206    -2.187465993326     0.008180574255     1.007825032230
         N           -2.289656315794     0.011411006674    -0.080201425745    14.003074004430
         H           -2.753763315794     0.773838006674     0.400358574255     1.007825032230
         H           -2.667726315794    -0.894131993326     0.179437574255     1.007825032230

  Basis Set: AUG-CC-PVTZ
    Blend: AUG-CC-PVTZ
  Basis Set: (AUG-CC-PVTZ AUX)
    Blend: AUG-CC-PVTZ-JKFIT
	 Reference Energy          =    -301.8391462217869048 [Eh]
	 Singles Energy            =      -0.0000000000000000 [Eh]
	 Same-Spin Energy          =      -0.3284582961131845 [Eh]
	 Opposite-Spin Energy      =      -1.0134473556423098 [Eh]
	 Correlation Energy        =      -1.3419056517554944 [Eh]
	 Total Energy              =    -303.1810518735424012 [Eh]

	 ================> DF-SCS-MP2 Energies <==================
	-----------------------------------------------------------
	 SCS Same-Spin Scale       =       0.3333333333333333 [-]
	 SCS Opposite-Spin Scale   =       1.2000000000000000 [-]
	 SCS Same-Spin Energy      =      -0.1094860987043948 [Eh]
	 SCS Opposite-Spin Energy  =      -1.2161368267707717 [Eh]
	 SCS Correlation Energy    =      -1.3256229254751666 [Eh]
	 SCS Total Energy          =    -303.1647691472620636 [Eh]
	-----------------------------------------------------------

  Dipole Moment: [D]
     X:     0.0367      Y:     1.7069      Z:     1.1535     Total:     2.0605

*** Psi4 exiting successfully. Buy a developer a beer!
