                               Psi4 1.3.2 release

  ==> Input File <==

--------------------------------------------------------------------------
#psi4
#
memory 32 gb

molecule  {
0 1
  N       -0.2981960    -1.1935180     0.0024800
  C       -0.8989770     0.0078150    -0.0038810
  C       -0.1842220     1.2188990    -0.0098900
  C        1.2026080     1.1704100     0.0047310
  C        1.8420610    -0.0727780     0.0063770
  C        1.0476300    -1.2144680     0.0024310
  H       -0.7133720     2.1685100    -0.0287310
  H        1.7775952     2.0919198     0.3058633
  H        2.9246290    -0.1531180     0.0135510
  H        1.4978930    -2.2058730     0.0048570
  N       -2.2904670    -0.0069960    -0.0835250
  H       -2.7545740     0.7554310     0.3970350
  H       -2.6685370    -0.9125390     0.1761140
units angstrom
no_reorient  #important for SAPT in psi4, default
symmetry c1  #important for SAPT in psi4, default
}

set PROPERTIES_ORIGIN ["COM"]
properties('MP2/aug-cc-pvtz', properties = ['dipole'])
--------------------------------------------------------------------------

    Molecular point group: c1
  Charge       = 0
  Multiplicity = 1
  Basis Set: AUG-CC-PVTZ
    Blend: AUG-CC-PVTZ
  Basis Set: (AUG-CC-PVTZ AUX)
    Blend: AUG-CC-PVTZ-JKFIT

    Orbital Energies [Eh]
    ---------------------

    Doubly Occupied:

       1A    -15.569476     2A    -15.555056     3A    -11.316834
       4A    -11.276222     5A    -11.263548     6A    -11.233983
       7A    -11.228023     8A     -1.277961     9A     -1.183821
      10A     -1.082330    11A     -1.006008    12A     -0.859910
      13A     -0.836890    14A     -0.713600    15A     -0.698065
      16A     -0.660157    17A     -0.621623    18A     -0.604729
      19A     -0.567915    20A     -0.554268    21A     -0.527003
      22A     -0.459607    23A     -0.420056    24A     -0.378924
      25A     -0.312284

  @DF-RHF Final Energy:  -301.83653729710886

   => Energetics <=

    Nuclear Repulsion Energy =            274.6683523846726303
    One-Electron Energy =                -952.5931951467036924
    Two-Electron Energy =                 376.0883054649222004
    Total Energy =                       -301.8365372971088618
  Basis Set: (AUG-CC-PVTZ AUX)
    Blend: AUG-CC-PVTZ-RI
    Molecular point group: c1

    Geometry (in Angstrom), charge = 0, multiplicity = 1:

       Center              X                  Y                   Z               Mass
    ------------   -----------------  -----------------  -----------------  -----------------
         N           -0.297388930129    -1.175077670295     0.005267535083    14.003074004430
         C           -0.898169930129     0.026255329705    -0.001093464917    12.000000000000
         C           -0.183414930129     1.237339329705    -0.007102464917    12.000000000000
         C            1.203415069871     1.188850329705     0.007518535083    12.000000000000
         C            1.842868069871    -0.054337670295     0.009164535083    12.000000000000
         C            1.048437069871    -1.196027670295     0.005218535083    12.000000000000
         H           -0.712564930129     2.186950329705    -0.025943464917     1.007825032230
         H            1.778402269871     2.110360129705     0.308650835083     1.007825032230
         H            2.925436069871    -0.134677670295     0.016338535083     1.007825032230
         H            1.498700069871    -2.187432670295     0.007644535083     1.007825032230
         N           -2.289659930129     0.011444329705    -0.080737464917    14.003074004430
         H           -2.753766930129     0.773871329705     0.399822535083     1.007825032230
         H           -2.667729930129    -0.894098670295     0.178901535083     1.007825032230

  Basis Set: AUG-CC-PVTZ
    Blend: AUG-CC-PVTZ
  Basis Set: (AUG-CC-PVTZ AUX)
    Blend: AUG-CC-PVTZ-JKFIT
	 Reference Energy          =    -301.8365372971088618 [Eh]
	 Singles Energy            =      -0.0000000000000000 [Eh]
	 Same-Spin Energy          =      -0.3287012394871027 [Eh]
	 Opposite-Spin Energy      =      -1.0138861741249787 [Eh]
	 Correlation Energy        =      -1.3425874136120814 [Eh]
	 Total Energy              =    -303.1791247107209415 [Eh]

	 ================> DF-SCS-MP2 Energies <==================
	-----------------------------------------------------------
	 SCS Same-Spin Scale       =       0.3333333333333333 [-]
	 SCS Opposite-Spin Scale   =       1.2000000000000000 [-]
	 SCS Same-Spin Energy      =      -0.1095670798290342 [Eh]
	 SCS Opposite-Spin Energy  =      -1.2166634089499744 [Eh]
	 SCS Correlation Energy    =      -1.3262304887790086 [Eh]
	 SCS Total Energy          =    -303.1627677858878656 [Eh]
	-----------------------------------------------------------

  Dipole Moment: [D]
     X:    -0.0166      Y:     1.6898      Z:     1.1804     Total:     2.0613

*** Psi4 exiting successfully. Buy a developer a beer!
