                               Psi4 1.4a3.dev225

  ==> Input File <==

--------------------------------------------------------------------------
#psi4
#
memory 32 gb

molecule  {
0 1
  C        1.0191550    -0.0000090     0.3706600
  C       -0.3376930    -0.0001380     1.0991850
  C        1.1895300     1.2600750    -0.4734900
  C        1.1896430    -1.2599310    -0.4737080
  C       -1.4806530    -0.0001100     0.1820590
  C       -2.4337550     0.0000760    -0.5817880
  H        1.7898900    -0.0000470     1.1539300
  H       -0.3990100    -0.8800950     1.7523450
  H       -0.3991040     0.8797040     1.7524870
  H        2.1752240     1.2782110    -0.9487550
  H        1.0912450     2.1632510     0.1376750
  H        0.4300030     1.2977920    -1.2600980
  H        2.1303079    -1.2770791    -0.9272593
  H        0.4301230    -1.2975720    -1.2603270
  H        1.0914300    -2.1632230     0.1372970
  H       -3.2625000     0.0001070    -1.2530880
units angstrom
no_reorient  #important for SAPT in psi4, default
symmetry c1  #important for SAPT in psi4, default
}

set PROPERTIES_ORIGIN ["COM"]
properties('MP2/aug-cc-pvtz', properties = ['dipole'])
--------------------------------------------------------------------------

    Molecular point group: c1
  Charge       = 0
  Multiplicity = 1
  Basis Set: AUG-CC-PVTZ
    Blend: AUG-CC-PVTZ
  Basis Set: (AUG-CC-PVTZ AUX)
    Blend: AUG-CC-PVTZ-JKFIT

    Orbital Energies [Eh]
    ---------------------

    Doubly Occupied:

       1A    -11.249849     2A    -11.237369     3A    -11.235374
       4A    -11.223023     5A    -11.211216     6A    -11.204925
       7A     -1.107775     8A     -1.022098     9A     -0.943320
      10A     -0.932559    11A     -0.788355    12A     -0.710622
      13A     -0.651795    14A     -0.616943    15A     -0.610043
      16A     -0.578743    17A     -0.539090    18A     -0.527804
      19A     -0.486159    20A     -0.472961    21A     -0.472395
      22A     -0.377586    23A     -0.377548

  @DF-RHF Final Energy:  -233.04848523760288

   => Energetics <=

    Nuclear Repulsion Energy =            222.9663667099651434
    One-Electron Energy =                -754.8746035873742812
    Two-Electron Energy =                 298.8597516398062339
    Total Energy =                       -233.0484852376028471
  Basis Set: (AUG-CC-PVTZ AUX)
    Blend: AUG-CC-PVTZ-RI
    Molecular point group: c1

    Geometry (in Angstrom), charge = 0, multiplicity = 1:

       Center              X                  Y                   Z               Mass
    ------------   -----------------  -----------------  -----------------  -----------------
         C            1.081631169102    -0.000016469795     0.361478254636    12.000000000000
         C           -0.275216830898    -0.000145469795     1.090003254636    12.000000000000
         C            1.252006169102     1.260067530205    -0.482671745364    12.000000000000
         C            1.252119169102    -1.259938469795    -0.482889745364    12.000000000000
         C           -1.418176830898    -0.000117469795     0.172877254636    12.000000000000
         C           -2.371278830898     0.000068530205    -0.590969745364    12.000000000000
         H            1.852366169102    -0.000054469795     1.144748254636     1.007825032230
         H           -0.336533830898    -0.880102469795     1.743163254636     1.007825032230
         H           -0.336627830898     0.879696530205     1.743305254636     1.007825032230
         H            2.237700169102     1.278203530205    -0.957936745364     1.007825032230
         H            1.153721169102     2.163243530205     0.128493254636     1.007825032230
         H            0.492479169102     1.297784530205    -1.269279745364     1.007825032230
         H            2.192784069102    -1.277086569795    -0.936441045364     1.007825032230
         H            0.492599169102    -1.297579469795    -1.269508745364     1.007825032230
         H            1.153906169102    -2.163230469795     0.128115254636     1.007825032230
         H           -3.200023830898     0.000099530205    -1.262269745364     1.007825032230

  Basis Set: AUG-CC-PVTZ
    Blend: AUG-CC-PVTZ
  Basis Set: (AUG-CC-PVTZ AUX)
    Blend: AUG-CC-PVTZ-JKFIT
	 Reference Energy          =    -233.0484852376028755 [Eh]
	 Singles Energy            =      -0.0000000000000000 [Eh]
	 Same-Spin Energy          =      -0.2499979796632819 [Eh]
	 Opposite-Spin Energy      =      -0.8889365934781037 [Eh]
	 Correlation Energy        =      -1.1389345731413856 [Eh]
	 Total Energy              =    -234.1874198107442737 [Eh]

	 ================> DF-SCS-MP2 Energies <==================
	-----------------------------------------------------------
	 SCS Same-Spin Scale       =       0.3333333333333333 [-]
	 SCS Opposite-Spin Scale   =       1.2000000000000000 [-]
	 SCS Same-Spin Energy      =      -0.0833326598877606 [Eh]
	 SCS Opposite-Spin Energy  =      -1.0667239121737244 [Eh]
	 SCS Correlation Energy    =      -1.1500565720614850 [Eh]
	 SCS Total Energy          =    -234.1985418096643627 [Eh]
	-----------------------------------------------------------

  Dipole Moment: [D]
     X:     0.6798      Y:    -0.0085      Z:     0.3020     Total:     0.7440

*** Psi4 exiting successfully. Buy a developer a beer!
