                               Psi4 1.4a3.dev225

  ==> Input File <==

--------------------------------------------------------------------------
#psi4
#
memory 32 gb

molecule  {
0 1
  C        1.0154600     0.0152081     0.3922089
  C       -0.3376930    -0.0001380     1.0991850
  C        1.1895300     1.2600750    -0.4734900
  C        1.1896430    -1.2599310    -0.4737080
  C       -1.4806530    -0.0001100     0.1820590
  C       -2.4337550     0.0000760    -0.5817880
  H        1.7898900    -0.0000470     1.1539300
  H       -0.3990100    -0.8800950     1.7523450
  H       -0.3991040     0.8797040     1.7524870
  H        2.1752240     1.2782110    -0.9487550
  H        1.0912450     2.1632510     0.1376750
  H        0.4300030     1.2977920    -1.2600980
  H        2.1753400    -1.2779000    -0.9489720
  H        0.4301230    -1.2975720    -1.2603270
  H        1.0914300    -2.1632230     0.1372970
  H       -3.2625000     0.0001070    -1.2530880
units angstrom
no_reorient  #important for SAPT in psi4, default
symmetry c1  #important for SAPT in psi4, default
}

set PROPERTIES_ORIGIN ["COM"]
properties('MP2/aug-cc-pvtz', properties = ['dipole'])
--------------------------------------------------------------------------

    Molecular point group: c1
  Charge       = 0
  Multiplicity = 1
  Basis Set: AUG-CC-PVTZ
    Blend: AUG-CC-PVTZ
  Basis Set: (AUG-CC-PVTZ AUX)
    Blend: AUG-CC-PVTZ-JKFIT

    Orbital Energies [Eh]
    ---------------------

    Doubly Occupied:

       1A    -11.250136     2A    -11.238073     3A    -11.235182
       4A    -11.223770     5A    -11.211574     6A    -11.211164
       7A     -1.107791     8A     -1.020884     9A     -0.942830
      10A     -0.927654    11A     -0.789866    12A     -0.710983
      13A     -0.651043    14A     -0.616126    15A     -0.609232
      16A     -0.577483    17A     -0.538461    18A     -0.522700
      19A     -0.487247    20A     -0.477129    21A     -0.465466
      22A     -0.378812    23A     -0.377961

  @DF-RHF Final Energy:  -233.04891019950423

   => Energetics <=

    Nuclear Repulsion Energy =            222.6639608587798307
    One-Electron Energy =                -754.2826106245552182
    Two-Electron Energy =                 298.5697395662712097
    Total Energy =                       -233.0489101995042347
  Basis Set: (AUG-CC-PVTZ AUX)
    Blend: AUG-CC-PVTZ-RI
    Molecular point group: c1

    Geometry (in Angstrom), charge = 0, multiplicity = 1:

       Center              X                  Y                   Z               Mass
    ------------   -----------------  -----------------  -----------------  -----------------
         C            1.077923443713     0.012985940251     0.380143270093    12.000000000000
         C           -0.275229556287    -0.002360159749     1.087119370093    12.000000000000
         C            1.251993443713     1.257852840251    -0.485555629907    12.000000000000
         C            1.252106443713    -1.262153159749    -0.485773629907    12.000000000000
         C           -1.418189556287    -0.002332159749     0.169993370093    12.000000000000
         C           -2.371291556287    -0.002146159749    -0.593853629907    12.000000000000
         H            1.852353443713    -0.002269159749     1.141864370093     1.007825032230
         H           -0.336546556287    -0.882317159749     1.740279370093     1.007825032230
         H           -0.336640556287     0.877481840251     1.740421370093     1.007825032230
         H            2.237687443713     1.275988840251    -0.960820629907     1.007825032230
         H            1.153708443713     2.161028840251     0.125609370093     1.007825032230
         H            0.492466443713     1.295569840251    -1.272163629907     1.007825032230
         H            2.237803443713    -1.280122159749    -0.961037629907     1.007825032230
         H            0.492586443713    -1.299794159749    -1.272392629907     1.007825032230
         H            1.153893443713    -2.165445159749     0.125231370093     1.007825032230
         H           -3.200036556287    -0.002115159749    -1.265153629907     1.007825032230

  Basis Set: AUG-CC-PVTZ
    Blend: AUG-CC-PVTZ
  Basis Set: (AUG-CC-PVTZ AUX)
    Blend: AUG-CC-PVTZ-JKFIT
	 Reference Energy          =    -233.0489101995042347 [Eh]
	 Singles Energy            =      -0.0000000000000000 [Eh]
	 Same-Spin Energy          =      -0.2499129664651217 [Eh]
	 Opposite-Spin Energy      =      -0.8892318311104772 [Eh]
	 Correlation Energy        =      -1.1391447975755988 [Eh]
	 Total Energy              =    -234.1880549970798313 [Eh]

	 ================> DF-SCS-MP2 Energies <==================
	-----------------------------------------------------------
	 SCS Same-Spin Scale       =       0.3333333333333333 [-]
	 SCS Opposite-Spin Scale   =       1.2000000000000000 [-]
	 SCS Same-Spin Energy      =      -0.0833043221550405 [Eh]
	 SCS Opposite-Spin Energy  =      -1.0670781973325727 [Eh]
	 SCS Correlation Energy    =      -1.1503825194876132 [Eh]
	 SCS Total Energy          =    -234.1992927189918419 [Eh]
	-----------------------------------------------------------

  Dipole Moment: [D]
     X:     0.6362      Y:     0.0114      Z:     0.3257     Total:     0.7148

*** Psi4 exiting successfully. Buy a developer a beer!
