                               Psi4 1.4a3.dev225

  ==> Input File <==

--------------------------------------------------------------------------
#psi4
#
memory 32 gb

molecule  {
0 1
  C        1.0191550    -0.0000090     0.3706600
  C       -0.3376930    -0.0001380     1.0991850
  C        1.1895300     1.2600750    -0.4734900
  C        1.1874089    -1.2434209    -0.4626434
  C       -1.4806530    -0.0001100     0.1820590
  C       -2.4337550     0.0000760    -0.5817880
  H        1.7898900    -0.0000470     1.1539300
  H       -0.3990100    -0.8800950     1.7523450
  H       -0.3991040     0.8797040     1.7524870
  H        2.1752240     1.2782110    -0.9487550
  H        1.0912450     2.1632510     0.1376750
  H        0.4300030     1.2977920    -1.2600980
  H        2.1753400    -1.2779000    -0.9489720
  H        0.4301230    -1.2975720    -1.2603270
  H        1.0914300    -2.1632230     0.1372970
  H       -3.2625000     0.0001070    -1.2530880
units angstrom
no_reorient  #important for SAPT in psi4, default
symmetry c1  #important for SAPT in psi4, default
}

set PROPERTIES_ORIGIN ["COM"]
properties('MP2/aug-cc-pvtz', properties = ['dipole'])
--------------------------------------------------------------------------

    Molecular point group: c1
  Charge       = 0
  Multiplicity = 1
  Basis Set: AUG-CC-PVTZ
    Blend: AUG-CC-PVTZ
  Basis Set: (AUG-CC-PVTZ AUX)
    Blend: AUG-CC-PVTZ-JKFIT

    Orbital Energies [Eh]
    ---------------------

    Doubly Occupied:

       1A    -11.250386     2A    -11.237654     3A    -11.234990
       4A    -11.223344     5A    -11.212162     6A    -11.211298
       7A     -1.109672     8A     -1.022557     9A     -0.942562
      10A     -0.929824    11A     -0.787235    12A     -0.710910
      13A     -0.651891    14A     -0.615954    15A     -0.609546
      16A     -0.578883    17A     -0.537926    18A     -0.521484
      19A     -0.484787    20A     -0.476034    21A     -0.470866
      22A     -0.377897    23A     -0.377841

  @DF-RHF Final Energy:  -233.04884288341947

   => Energetics <=

    Nuclear Repulsion Energy =            223.0222079323112609
    One-Electron Energy =                -754.9906977507392867
    Two-Electron Energy =                 298.9196469350085295
    Total Energy =                       -233.0488428834194679
  Basis Set: (AUG-CC-PVTZ AUX)
    Blend: AUG-CC-PVTZ-RI
    Molecular point group: c1

    Geometry (in Angstrom), charge = 0, multiplicity = 1:

       Center              X                  Y                   Z               Mass
    ------------   -----------------  -----------------  -----------------  -----------------
         C            1.081404857289    -0.002420198866     0.360127195166    12.000000000000
         C           -0.275443142711    -0.002549198866     1.088652195166    12.000000000000
         C            1.251779857289     1.257663801134    -0.484022804834    12.000000000000
         C            1.249658757289    -1.245832098866    -0.473176204834    12.000000000000
         C           -1.418403142711    -0.002521198866     0.171526195166    12.000000000000
         C           -2.371505142711    -0.002335198866    -0.592320804834    12.000000000000
         H            1.852139857289    -0.002458198866     1.143397195166     1.007825032230
         H           -0.336760142711    -0.882506198866     1.741812195166     1.007825032230
         H           -0.336854142711     0.877292801134     1.741954195166     1.007825032230
         H            2.237473857289     1.275799801134    -0.959287804834     1.007825032230
         H            1.153494857289     2.160839801134     0.127142195166     1.007825032230
         H            0.492252857289     1.295380801134    -1.270630804834     1.007825032230
         H            2.237589857289    -1.280311198866    -0.959504804834     1.007825032230
         H            0.492372857289    -1.299983198866    -1.270859804834     1.007825032230
         H            1.153679857289    -2.165634198866     0.126764195166     1.007825032230
         H           -3.200250142711    -0.002304198866    -1.263620804834     1.007825032230

  Basis Set: AUG-CC-PVTZ
    Blend: AUG-CC-PVTZ
  Basis Set: (AUG-CC-PVTZ AUX)
    Blend: AUG-CC-PVTZ-JKFIT
	 Reference Energy          =    -233.0488428834194679 [Eh]
	 Singles Energy            =      -0.0000000000000000 [Eh]
	 Same-Spin Energy          =      -0.2501499121763500 [Eh]
	 Opposite-Spin Energy      =      -0.8893757890231462 [Eh]
	 Correlation Energy        =      -1.1395257011994961 [Eh]
	 Total Energy              =    -234.1883685846189564 [Eh]

	 ================> DF-SCS-MP2 Energies <==================
	-----------------------------------------------------------
	 SCS Same-Spin Scale       =       0.3333333333333333 [-]
	 SCS Opposite-Spin Scale   =       1.2000000000000000 [-]
	 SCS Same-Spin Energy      =      -0.0833833040587833 [Eh]
	 SCS Opposite-Spin Energy  =      -1.0672509468277753 [Eh]
	 SCS Correlation Energy    =      -1.1506342508865586 [Eh]
	 SCS Total Energy          =    -234.1994771343060222 [Eh]
	-----------------------------------------------------------

  Dipole Moment: [D]
     X:     0.6480      Y:    -0.0013      Z:     0.3162     Total:     0.7210

*** Psi4 exiting successfully. Buy a developer a beer!
