                               Psi4 1.4a3.dev225

  ==> Input File <==

--------------------------------------------------------------------------
#psi4
#
memory 32 gb

molecule  {
0 1
  C        1.0191550    -0.0000090     0.3706600
  C       -0.3376930    -0.0001380     1.0991850
  C        1.1895300     1.2600750    -0.4734900
  C        1.1952282    -1.3012062    -0.5013696
  C       -1.4806530    -0.0001100     0.1820590
  C       -2.4337550     0.0000760    -0.5817880
  H        1.7898900    -0.0000470     1.1539300
  H       -0.3990100    -0.8800950     1.7523450
  H       -0.3991040     0.8797040     1.7524870
  H        2.1752240     1.2782110    -0.9487550
  H        1.0912450     2.1632510     0.1376750
  H        0.4300030     1.2977920    -1.2600980
  H        2.1753400    -1.2779000    -0.9489720
  H        0.4301230    -1.2975720    -1.2603270
  H        1.0914300    -2.1632230     0.1372970
  H       -3.2625000     0.0001070    -1.2530880
units angstrom
no_reorient  #important for SAPT in psi4, default
symmetry c1  #important for SAPT in psi4, default
}

set PROPERTIES_ORIGIN ["COM"]
properties('MP2/aug-cc-pvtz', properties = ['dipole'])
--------------------------------------------------------------------------

    Molecular point group: c1
  Charge       = 0
  Multiplicity = 1
  Basis Set: AUG-CC-PVTZ
    Blend: AUG-CC-PVTZ
  Basis Set: (AUG-CC-PVTZ AUX)
    Blend: AUG-CC-PVTZ-JKFIT

    Orbital Energies [Eh]
    ---------------------

    Doubly Occupied:

       1A    -11.250231     2A    -11.237826     3A    -11.237653
       4A    -11.223344     5A    -11.211118     6A    -11.209385
       7A     -1.103478     8A     -1.019875     9A     -0.942155
      10A     -0.930596    11A     -0.787200    12A     -0.710450
      13A     -0.649372    14A     -0.614254    15A     -0.608300
      16A     -0.580001    17A     -0.542832    18A     -0.527885
      19A     -0.486354    20A     -0.476867    21A     -0.461345
      22A     -0.377886    23A     -0.377707

  @DF-RHF Final Energy:  -233.04788743045464

   => Energetics <=

    Nuclear Repulsion Energy =            222.0637209565425110
    One-Electron Energy =                -753.0909886741241053
    Two-Electron Energy =                 297.9793802871269577
    Total Energy =                       -233.0478874304546366
  Basis Set: (AUG-CC-PVTZ AUX)
    Blend: AUG-CC-PVTZ-RI
    Molecular point group: c1

    Geometry (in Angstrom), charge = 0, multiplicity = 1:

       Center              X                  Y                   Z               Mass
    ------------   -----------------  -----------------  -----------------  -----------------
         C            1.080261660405     0.006028124499     0.365789041004    12.000000000000
         C           -0.276586339595     0.005899124499     1.094314041004    12.000000000000
         C            1.250636660405     1.266112124499    -0.478360958996    12.000000000000
         C            1.256334860405    -1.295169075501    -0.506240558996    12.000000000000
         C           -1.419546339595     0.005927124499     0.177188041004    12.000000000000
         C           -2.372648339595     0.006113124499    -0.586658958996    12.000000000000
         H            1.850996660405     0.005990124499     1.149059041004     1.007825032230
         H           -0.337903339595    -0.874057875501     1.747474041004     1.007825032230
         H           -0.337997339595     0.885741124499     1.747616041004     1.007825032230
         H            2.236330660405     1.284248124499    -0.953625958996     1.007825032230
         H            1.152351660405     2.169288124499     0.132804041004     1.007825032230
         H            0.491109660405     1.303829124499    -1.264968958996     1.007825032230
         H            2.236446660405    -1.271862875501    -0.953842958996     1.007825032230
         H            0.491229660405    -1.291534875501    -1.265197958996     1.007825032230
         H            1.152536660405    -2.157185875501     0.132426041004     1.007825032230
         H           -3.201393339595     0.006144124499    -1.257958958996     1.007825032230

  Basis Set: AUG-CC-PVTZ
    Blend: AUG-CC-PVTZ
  Basis Set: (AUG-CC-PVTZ AUX)
    Blend: AUG-CC-PVTZ-JKFIT
	 Reference Energy          =    -233.0478874304546366 [Eh]
	 Singles Energy            =      -0.0000000000000000 [Eh]
	 Same-Spin Energy          =      -0.2496988419184876 [Eh]
	 Opposite-Spin Energy      =      -0.8890342505621771 [Eh]
	 Correlation Energy        =      -1.1387330924806647 [Eh]
	 Total Energy              =    -234.1866205229353000 [Eh]

	 ================> DF-SCS-MP2 Energies <==================
	-----------------------------------------------------------
	 SCS Same-Spin Scale       =       0.3333333333333333 [-]
	 SCS Opposite-Spin Scale   =       1.2000000000000000 [-]
	 SCS Same-Spin Energy      =      -0.0832329473061625 [Eh]
	 SCS Opposite-Spin Energy  =      -1.0668411006746126 [Eh]
	 SCS Correlation Energy    =      -1.1500740479807752 [Eh]
	 SCS Total Energy          =    -234.1979614784354169 [Eh]
	-----------------------------------------------------------

  Dipole Moment: [D]
     X:     0.6477      Y:     0.0087      Z:     0.3276     Total:     0.7259

*** Psi4 exiting successfully. Buy a developer a beer!
