                               Psi4 1.4a3.dev225

  ==> Input File <==

--------------------------------------------------------------------------
#psi4
#
memory 32 gb

molecule  {
0 1
  C        1.0191550    -0.0000090     0.3706600
  C       -0.3376930    -0.0001380     1.0991850
  C        1.1839485     1.2187945    -0.4458356
  C        1.1896430    -1.2599310    -0.4737080
  C       -1.4806530    -0.0001100     0.1820590
  C       -2.4337550     0.0000760    -0.5817880
  H        1.7898900    -0.0000470     1.1539300
  H       -0.3990100    -0.8800950     1.7523450
  H       -0.3991040     0.8797040     1.7524870
  H        2.1752240     1.2782110    -0.9487550
  H        1.0912450     2.1632510     0.1376750
  H        0.4300030     1.2977920    -1.2600980
  H        2.1753400    -1.2779000    -0.9489720
  H        0.4301230    -1.2975720    -1.2603270
  H        1.0914300    -2.1632230     0.1372970
  H       -3.2625000     0.0001070    -1.2530880
units angstrom
no_reorient  #important for SAPT in psi4, default
symmetry c1  #important for SAPT in psi4, default
}

set PROPERTIES_ORIGIN ["COM"]
properties('MP2/aug-cc-pvtz', properties = ['dipole'])
--------------------------------------------------------------------------

    Molecular point group: c1
  Charge       = 0
  Multiplicity = 1
  Basis Set: AUG-CC-PVTZ
    Blend: AUG-CC-PVTZ
  Basis Set: (AUG-CC-PVTZ AUX)
    Blend: AUG-CC-PVTZ-JKFIT

    Orbital Energies [Eh]
    ---------------------

    Doubly Occupied:

       1A    -11.250524     2A    -11.237672     3A    -11.233648
       4A    -11.223367     5A    -11.213773     6A    -11.211451
       7A     -1.112952     8A     -1.023837     9A     -0.942829
      10A     -0.929671    11A     -0.787121    12A     -0.711152
      13A     -0.653248    14A     -0.616971    15A     -0.610327
      16A     -0.578883    17A     -0.536478    18A     -0.519205
      19A     -0.489076    20A     -0.475539    21A     -0.467441
      22A     -0.377954    23A     -0.377829

  @DF-RHF Final Energy:  -233.04635291981702

   => Energetics <=

    Nuclear Repulsion Energy =            223.4470576225816103
    One-Electron Energy =                -755.8249211506422398
    Two-Electron Energy =                 299.3315106082436046
    Total Energy =                       -233.0463529198170249
  Basis Set: (AUG-CC-PVTZ AUX)
    Blend: AUG-CC-PVTZ-RI
    Molecular point group: c1

    Geometry (in Angstrom), charge = 0, multiplicity = 1:

       Center              X                  Y                   Z               Mass
    ------------   -----------------  -----------------  -----------------  -----------------
         C            1.081894253686     0.006028899370     0.357701734106    12.000000000000
         C           -0.274953746314     0.005899899370     1.086226734106    12.000000000000
         C            1.246687753686     1.224832399370    -0.458793865894    12.000000000000
         C            1.252382253686    -1.253893100630    -0.486666265894    12.000000000000
         C           -1.417913746314     0.005927899370     0.169100734106    12.000000000000
         C           -2.371015746314     0.006113899370    -0.594746265894    12.000000000000
         H            1.852629253686     0.005990899370     1.140971734106     1.007825032230
         H           -0.336270746314    -0.874057100630     1.739386734106     1.007825032230
         H           -0.336364746314     0.885741899370     1.739528734106     1.007825032230
         H            2.237963253686     1.284248899370    -0.961713265894     1.007825032230
         H            1.153984253686     2.169288899370     0.124716734106     1.007825032230
         H            0.492742253686     1.303829899370    -1.273056265894     1.007825032230
         H            2.238079253686    -1.271862100630    -0.961930265894     1.007825032230
         H            0.492862253686    -1.291534100630    -1.273285265894     1.007825032230
         H            1.154169253686    -2.157185100630     0.124338734106     1.007825032230
         H           -3.199760746314     0.006144899370    -1.266046265894     1.007825032230

  Basis Set: AUG-CC-PVTZ
    Blend: AUG-CC-PVTZ
  Basis Set: (AUG-CC-PVTZ AUX)
    Blend: AUG-CC-PVTZ-JKFIT
	 Reference Energy          =    -233.0463529198170249 [Eh]
	 Singles Energy            =      -0.0000000000000000 [Eh]
	 Same-Spin Energy          =      -0.2504596215357753 [Eh]
	 Opposite-Spin Energy      =      -0.8897285365337519 [Eh]
	 Correlation Energy        =      -1.1401881580695272 [Eh]
	 Total Energy              =    -234.1865410778865453 [Eh]

	 ================> DF-SCS-MP2 Energies <==================
	-----------------------------------------------------------
	 SCS Same-Spin Scale       =       0.3333333333333333 [-]
	 SCS Opposite-Spin Scale   =       1.2000000000000000 [-]
	 SCS Same-Spin Energy      =      -0.0834865405119251 [Eh]
	 SCS Opposite-Spin Energy  =      -1.0676742438405022 [Eh]
	 SCS Correlation Energy    =      -1.1511607843524274 [Eh]
	 SCS Total Energy          =    -234.1975137041694666 [Eh]
	-----------------------------------------------------------

  Dipole Moment: [D]
     X:     0.6465      Y:     0.0010      Z:     0.3135     Total:     0.7185

*** Psi4 exiting successfully. Buy a developer a beer!
