                               Psi4 1.4a3.dev225

  ==> Input File <==

--------------------------------------------------------------------------
#psi4
#
memory 32 gb

molecule  {
0 1
  C        1.0046976     0.0631154     0.4552475
  C       -0.3376930    -0.0001380     1.0991850
  C        1.1895300     1.2600750    -0.4734900
  C        1.1896430    -1.2599310    -0.4737080
  C       -1.4806530    -0.0001100     0.1820590
  C       -2.4337550     0.0000760    -0.5817880
  H        1.7898900    -0.0000470     1.1539300
  H       -0.3990100    -0.8800950     1.7523450
  H       -0.3991040     0.8797040     1.7524870
  H        2.1752240     1.2782110    -0.9487550
  H        1.0912450     2.1632510     0.1376750
  H        0.4300030     1.2977920    -1.2600980
  H        2.1753400    -1.2779000    -0.9489720
  H        0.4301230    -1.2975720    -1.2603270
  H        1.0914300    -2.1632230     0.1372970
  H       -3.2625000     0.0001070    -1.2530880
units angstrom
no_reorient  #important for SAPT in psi4, default
symmetry c1  #important for SAPT in psi4, default
}

set PROPERTIES_ORIGIN ["COM"]
properties('MP2/aug-cc-pvtz', properties = ['dipole'])
--------------------------------------------------------------------------

    Molecular point group: c1
  Charge       = 0
  Multiplicity = 1
  Basis Set: AUG-CC-PVTZ
    Blend: AUG-CC-PVTZ
  Basis Set: (AUG-CC-PVTZ AUX)
    Blend: AUG-CC-PVTZ-JKFIT

    Orbital Energies [Eh]
    ---------------------

    Doubly Occupied:

       1A    -11.249903     2A    -11.239411     3A    -11.234439
       4A    -11.225068     5A    -11.212164     6A    -11.211596
       7A     -1.109306     8A     -1.019049     9A     -0.944574
      10A     -0.920641    11A     -0.797371    12A     -0.711830
      13A     -0.651401    14A     -0.619490    15A     -0.610852
      16A     -0.572711    17A     -0.536942    18A     -0.521767
      19A     -0.497711    20A     -0.486615    21A     -0.440000
      22A     -0.381291    23A     -0.377806

  @DF-RHF Final Energy:  -233.03934867167968

   => Energetics <=

    Nuclear Repulsion Energy =            222.4254017604342266
    One-Electron Energy =                -753.7856237326109294
    Two-Electron Energy =                 298.3208733004971123
    Total Energy =                       -233.0393486716796474
  Basis Set: (AUG-CC-PVTZ AUX)
    Blend: AUG-CC-PVTZ-RI
    Molecular point group: c1

    Geometry (in Angstrom), charge = 0, multiplicity = 1:

       Center              X                  Y                   Z               Mass
    ------------   -----------------  -----------------  -----------------  -----------------
         C            1.068734527547     0.053889099718     0.433965504040    12.000000000000
         C           -0.273656072453    -0.009364300282     1.077903004040    12.000000000000
         C            1.253566927547     1.250848699718    -0.494771995960    12.000000000000
         C            1.253679927547    -1.269157300282    -0.494989995960    12.000000000000
         C           -1.416616072453    -0.009336300282     0.160777004040    12.000000000000
         C           -2.369718072453    -0.009150300282    -0.603069995960    12.000000000000
         H            1.853926927547    -0.009273300282     1.132648004040     1.007825032230
         H           -0.334973072453    -0.889321300282     1.731063004040     1.007825032230
         H           -0.335067072453     0.870477699718     1.731205004040     1.007825032230
         H            2.239260927547     1.268984699718    -0.970036995960     1.007825032230
         H            1.155281927547     2.154024699718     0.116393004040     1.007825032230
         H            0.494039927547     1.288565699718    -1.281379995960     1.007825032230
         H            2.239376927547    -1.287126300282    -0.970253995960     1.007825032230
         H            0.494159927547    -1.306798300282    -1.281608995960     1.007825032230
         H            1.155466927547    -2.172449300282     0.116015004040     1.007825032230
         H           -3.198463072453    -0.009119300282    -1.274369995960     1.007825032230

  Basis Set: AUG-CC-PVTZ
    Blend: AUG-CC-PVTZ
  Basis Set: (AUG-CC-PVTZ AUX)
    Blend: AUG-CC-PVTZ-JKFIT
	 Reference Energy          =    -233.0393486716796758 [Eh]
	 Singles Energy            =      -0.0000000000000000 [Eh]
	 Same-Spin Energy          =      -0.2500210774339492 [Eh]
	 Opposite-Spin Energy      =      -0.8899165019837703 [Eh]
	 Correlation Energy        =      -1.1399375794177193 [Eh]
	 Total Energy              =    -234.1792862510974089 [Eh]

	 ================> DF-SCS-MP2 Energies <==================
	-----------------------------------------------------------
	 SCS Same-Spin Scale       =       0.3333333333333333 [-]
	 SCS Opposite-Spin Scale   =       1.2000000000000000 [-]
	 SCS Same-Spin Energy      =      -0.0833403591446497 [Eh]
	 SCS Opposite-Spin Energy  =      -1.0678998023805242 [Eh]
	 SCS Correlation Energy    =      -1.1512401615251739 [Eh]
	 SCS Total Energy          =    -234.1905888332048562 [Eh]
	-----------------------------------------------------------

  Dipole Moment: [D]
     X:     0.5985      Y:     0.0491      Z:     0.3440     Total:     0.6920

*** Psi4 exiting successfully. Buy a developer a beer!
