                               Psi4 1.4a3.dev225

  ==> Input File <==

--------------------------------------------------------------------------
#psi4
#
memory 32 gb

molecule  {
0 1
  C        1.0191550    -0.0000090     0.3706600
  C       -0.3376930    -0.0001380     1.0991850
  C        1.1895300     1.2600750    -0.4734900
  C        1.1896430    -1.2599310    -0.4737080
  C       -1.4806530    -0.0001100     0.1820590
  C       -2.4337550     0.0000760    -0.5817880
  H        1.7898900    -0.0000470     1.1539300
  H       -0.3990100    -0.8800950     1.7523450
  H       -0.3991040     0.8797040     1.7524870
  H        2.1752240     1.2782110    -0.9487550
  H        1.0912450     2.1632510     0.1376750
  H        0.4300030     1.2977920    -1.2600980
  H        2.2203721    -1.2787209    -0.9706847
  H        0.4301230    -1.2975720    -1.2603270
  H        1.0914300    -2.1632230     0.1372970
  H       -3.2625000     0.0001070    -1.2530880
units angstrom
no_reorient  #important for SAPT in psi4, default
symmetry c1  #important for SAPT in psi4, default
}

set PROPERTIES_ORIGIN ["COM"]
properties('MP2/aug-cc-pvtz', properties = ['dipole'])
--------------------------------------------------------------------------

    Molecular point group: c1
  Charge       = 0
  Multiplicity = 1
  Basis Set: AUG-CC-PVTZ
    Blend: AUG-CC-PVTZ
  Basis Set: (AUG-CC-PVTZ AUX)
    Blend: AUG-CC-PVTZ-JKFIT

    Orbital Energies [Eh]
    ---------------------

    Doubly Occupied:

       1A    -11.250851     2A    -11.237962     3A    -11.236373
       4A    -11.223690     5A    -11.217381     6A    -11.211246
       7A     -1.107780     8A     -1.021562     9A     -0.942066
      10A     -0.927554    11A     -0.786383    12A     -0.710967
      13A     -0.650668    14A     -0.614683    15A     -0.607663
      16A     -0.579400    17A     -0.539443    18A     -0.518643
      19A     -0.481880    20A     -0.474017    21A     -0.472922
      22A     -0.378201    23A     -0.378146

  @DF-RHF Final Energy:  -233.04740608782956

   => Energetics <=

    Nuclear Repulsion Energy =            222.5350803200833809
    One-Electron Energy =                -754.0260063122022984
    Two-Electron Energy =                 298.4435199042894169
    Total Energy =                       -233.0474060878295290
  Basis Set: (AUG-CC-PVTZ AUX)
    Blend: AUG-CC-PVTZ-RI
    Molecular point group: c1

    Geometry (in Angstrom), charge = 0, multiplicity = 1:

       Center              X                  Y                   Z               Mass
    ------------   -----------------  -----------------  -----------------  -----------------
         C            1.080525285936     0.000003689591     0.362011467820    12.000000000000
         C           -0.276322714064    -0.000125310409     1.090536467820    12.000000000000
         C            1.250900285936     1.260087689591    -0.482138532180    12.000000000000
         C            1.251013285936    -1.259918310409    -0.482356532180    12.000000000000
         C           -1.419282714064    -0.000097310409     0.173410467820    12.000000000000
         C           -2.372384714064     0.000088689591    -0.590436532180    12.000000000000
         H            1.851260285936    -0.000034310409     1.145281467820     1.007825032230
         H           -0.337639714064    -0.880082310409     1.743696467820     1.007825032230
         H           -0.337733714064     0.879716689591     1.743838467820     1.007825032230
         H            2.236594285936     1.278223689591    -0.957403532180     1.007825032230
         H            1.152615285936     2.163263689591     0.129026467820     1.007825032230
         H            0.491373285936     1.297804689591    -1.268746532180     1.007825032230
         H            2.281742385936    -1.278708210409    -0.979333232180     1.007825032230
         H            0.491493285936    -1.297559310409    -1.268975532180     1.007825032230
         H            1.152800285936    -2.163210310409     0.128648467820     1.007825032230
         H           -3.201129714064     0.000119689591    -1.261736532180     1.007825032230

  Basis Set: AUG-CC-PVTZ
    Blend: AUG-CC-PVTZ
  Basis Set: (AUG-CC-PVTZ AUX)
    Blend: AUG-CC-PVTZ-JKFIT
	 Reference Energy          =    -233.0474060878295575 [Eh]
	 Singles Energy            =      -0.0000000000000000 [Eh]
	 Same-Spin Energy          =      -0.2499730659399834 [Eh]
	 Opposite-Spin Energy      =      -0.8895424282298450 [Eh]
	 Correlation Energy        =      -1.1395154941698284 [Eh]
	 Total Energy              =    -234.1869215819993997 [Eh]

	 ================> DF-SCS-MP2 Energies <==================
	-----------------------------------------------------------
	 SCS Same-Spin Scale       =       0.3333333333333333 [-]
	 SCS Opposite-Spin Scale   =       1.2000000000000000 [-]
	 SCS Same-Spin Energy      =      -0.0833243553133278 [Eh]
	 SCS Opposite-Spin Energy  =      -1.0674509138758139 [Eh]
	 SCS Correlation Energy    =      -1.1507752691891417 [Eh]
	 SCS Total Energy          =    -234.1981813570187114 [Eh]
	-----------------------------------------------------------

  Dipole Moment: [D]
     X:     0.6130      Y:     0.0094      Z:     0.3374     Total:     0.6998

*** Psi4 exiting successfully. Buy a developer a beer!
