                               Psi4 1.4a3.dev225

  ==> Input File <==

--------------------------------------------------------------------------
#psi4
#
memory 32 gb

molecule  {
0 1
  C        1.0118181     0.0308044     0.4134941
  C       -0.3376930    -0.0001380     1.0991850
  C        1.1895300     1.2600750    -0.4734900
  C        1.1896430    -1.2599310    -0.4737080
  C       -1.4806530    -0.0001100     0.1820590
  C       -2.4337550     0.0000760    -0.5817880
  H        1.7898900    -0.0000470     1.1539300
  H       -0.3990100    -0.8800950     1.7523450
  H       -0.3991040     0.8797040     1.7524870
  H        2.1752240     1.2782110    -0.9487550
  H        1.0912450     2.1632510     0.1376750
  H        0.4300030     1.2977920    -1.2600980
  H        2.1753400    -1.2779000    -0.9489720
  H        0.4301230    -1.2975720    -1.2603270
  H        1.0914300    -2.1632230     0.1372970
  H       -3.2625000     0.0001070    -1.2530880
units angstrom
no_reorient  #important for SAPT in psi4, default
symmetry c1  #important for SAPT in psi4, default
}

set PROPERTIES_ORIGIN ["COM"]
properties('MP2/aug-cc-pvtz', properties = ['dipole'])
--------------------------------------------------------------------------

    Molecular point group: c1
  Charge       = 0
  Multiplicity = 1
  Basis Set: AUG-CC-PVTZ
    Blend: AUG-CC-PVTZ
  Basis Set: (AUG-CC-PVTZ AUX)
    Blend: AUG-CC-PVTZ-JKFIT

    Orbital Energies [Eh]
    ---------------------

    Doubly Occupied:

       1A    -11.250000     2A    -11.238509     3A    -11.234723
       4A    -11.224202     5A    -11.211853     6A    -11.211208
       7A     -1.108104     8A     -1.020148     9A     -0.943346
      10A     -0.925289    11A     -0.792426    12A     -0.711233
      13A     -0.651080    14A     -0.617063    15A     -0.609585
      16A     -0.575893    17A     -0.537868    18A     -0.522287
      19A     -0.490640    20A     -0.480904    21A     -0.457058
      22A     -0.379699    23A     -0.378006

  @DF-RHF Final Energy:  -233.04697861296660

   => Energetics <=

    Nuclear Repulsion Energy =            222.5845321476201377
    One-Electron Energy =                -754.1207728940842117
    Two-Electron Energy =                 298.4892621334974478
    Total Energy =                       -233.0469786129665977
  Basis Set: (AUG-CC-PVTZ AUX)
    Blend: AUG-CC-PVTZ-RI
    Molecular point group: c1

    Geometry (in Angstrom), charge = 0, multiplicity = 1:

       Center              X                  Y                   Z               Mass
    ------------   -----------------  -----------------  -----------------  -----------------
         C            1.074813996584     0.026302030826     0.398316532412    12.000000000000
         C           -0.274697103416    -0.004640369174     1.084007432412    12.000000000000
         C            1.252525896584     1.255572630826    -0.488667567588    12.000000000000
         C            1.252638896584    -1.264433369174    -0.488885567588    12.000000000000
         C           -1.417657103416    -0.004612369174     0.166881432412    12.000000000000
         C           -2.370759103416    -0.004426369174    -0.596965567588    12.000000000000
         H            1.852885896584    -0.004549369174     1.138752432412     1.007825032230
         H           -0.336014103416    -0.884597369174     1.737167432412     1.007825032230
         H           -0.336108103416     0.875201630826     1.737309432412     1.007825032230
         H            2.238219896584     1.273708630826    -0.963932567588     1.007825032230
         H            1.154240896584     2.158748630826     0.122497432412     1.007825032230
         H            0.492998896584     1.293289630826    -1.275275567588     1.007825032230
         H            2.238335896584    -1.282402369174    -0.964149567588     1.007825032230
         H            0.493118896584    -1.302074369174    -1.275504567588     1.007825032230
         H            1.154425896584    -2.167725369174     0.122119432412     1.007825032230
         H           -3.199504103416    -0.004395369174    -1.268265567588     1.007825032230

  Basis Set: AUG-CC-PVTZ
    Blend: AUG-CC-PVTZ
  Basis Set: (AUG-CC-PVTZ AUX)
    Blend: AUG-CC-PVTZ-JKFIT
	 Reference Energy          =    -233.0469786129665977 [Eh]
	 Singles Energy            =      -0.0000000000000000 [Eh]
	 Same-Spin Energy          =      -0.2498966090011607 [Eh]
	 Opposite-Spin Energy      =      -0.8893576380593649 [Eh]
	 Correlation Energy        =      -1.1392542470605256 [Eh]
	 Total Energy              =    -234.1862328600271326 [Eh]

	 ================> DF-SCS-MP2 Energies <==================
	-----------------------------------------------------------
	 SCS Same-Spin Scale       =       0.3333333333333333 [-]
	 SCS Opposite-Spin Scale   =       1.2000000000000000 [-]
	 SCS Same-Spin Energy      =      -0.0832988696670536 [Eh]
	 SCS Opposite-Spin Energy  =      -1.0672291656712378 [Eh]
	 SCS Correlation Energy    =      -1.1505280353382914 [Eh]
	 SCS Total Energy          =    -234.1975066483048806 [Eh]
	-----------------------------------------------------------

  Dipole Moment: [D]
     X:     0.6238      Y:     0.0233      Z:     0.3321     Total:     0.7071

*** Psi4 exiting successfully. Buy a developer a beer!
