                               Psi4 1.4a3.dev225

  ==> Input File <==

--------------------------------------------------------------------------
#psi4
#
memory 32 gb

molecule  {
0 1
  C        1.0191550    -0.0000090     0.3706600
  C       -0.3376930    -0.0001380     1.0991850
  C        1.1895300     1.2600750    -0.4734900
  C        1.1896430    -1.2599310    -0.4737080
  C       -1.4416555    -0.0001110     0.2133511
  C       -2.4337550     0.0000760    -0.5817880
  H        1.7898900    -0.0000470     1.1539300
  H       -0.3990100    -0.8800950     1.7523450
  H       -0.3991040     0.8797040     1.7524870
  H        2.1752240     1.2782110    -0.9487550
  H        1.0912450     2.1632510     0.1376750
  H        0.4300030     1.2977920    -1.2600980
  H        2.1753400    -1.2779000    -0.9489720
  H        0.4301230    -1.2975720    -1.2603270
  H        1.0914300    -2.1632230     0.1372970
  H       -3.2625000     0.0001070    -1.2530880
units angstrom
no_reorient  #important for SAPT in psi4, default
symmetry c1  #important for SAPT in psi4, default
}

set PROPERTIES_ORIGIN ["COM"]
properties('MP2/aug-cc-pvtz', properties = ['dipole'])
--------------------------------------------------------------------------

    Molecular point group: c1
  Charge       = 0
  Multiplicity = 1
  Basis Set: AUG-CC-PVTZ
    Blend: AUG-CC-PVTZ
  Basis Set: (AUG-CC-PVTZ AUX)
    Blend: AUG-CC-PVTZ-JKFIT

    Orbital Energies [Eh]
    ---------------------

    Doubly Occupied:

       1A    -11.250708     2A    -11.247249     3A    -11.237429
       4A    -11.236958     5A    -11.211670     6A    -11.211652
       7A     -1.114044     8A     -1.018755     9A     -0.939241
      10A     -0.930575    11A     -0.792147    12A     -0.712508
      13A     -0.654144    14A     -0.619306    15A     -0.613696
      16A     -0.582385    17A     -0.539940    18A     -0.524552
      19A     -0.486782    20A     -0.474362    21A     -0.473384
      22A     -0.365458    23A     -0.365385

  @DF-RHF Final Energy:  -233.03558208626669

   => Energetics <=

    Nuclear Repulsion Energy =            222.9140276212042977
    One-Electron Energy =                -754.6945580010896037
    Two-Electron Energy =                 298.7449482936185632
    Total Energy =                       -233.0355820862666860
  Basis Set: (AUG-CC-PVTZ AUX)
    Blend: AUG-CC-PVTZ-RI
    Molecular point group: c1

    Geometry (in Angstrom), charge = 0, multiplicity = 1:

       Center              X                  Y                   Z               Mass
    ------------   -----------------  -----------------  -----------------  -----------------
         C            1.075376717093    -0.000006243900     0.357169895284    12.000000000000
         C           -0.281471282907    -0.000135243900     1.085694895284    12.000000000000
         C            1.245751717093     1.260077756100    -0.486980104716    12.000000000000
         C            1.245864717093    -1.259928243900    -0.487198104716    12.000000000000
         C           -1.385433782907    -0.000108243900     0.199860995284    12.000000000000
         C           -2.377533282907     0.000078756100    -0.595278104716    12.000000000000
         H            1.846111717093    -0.000044243900     1.140439895284     1.007825032230
         H           -0.342788282907    -0.880092243900     1.738854895284     1.007825032230
         H           -0.342882282907     0.879706756100     1.738996895284     1.007825032230
         H            2.231445717093     1.278213756100    -0.962245104716     1.007825032230
         H            1.147466717093     2.163253756100     0.124184895284     1.007825032230
         H            0.486224717093     1.297794756100    -1.273588104716     1.007825032230
         H            2.231561717093    -1.277897243900    -0.962462104716     1.007825032230
         H            0.486344717093    -1.297569243900    -1.273817104716     1.007825032230
         H            1.147651717093    -2.163220243900     0.123806895284     1.007825032230
         H           -3.206278282907     0.000109756100    -1.266578104716     1.007825032230

  Basis Set: AUG-CC-PVTZ
    Blend: AUG-CC-PVTZ
  Basis Set: (AUG-CC-PVTZ AUX)
    Blend: AUG-CC-PVTZ-JKFIT
	 Reference Energy          =    -233.0355820862666860 [Eh]
	 Singles Energy            =      -0.0000000000000000 [Eh]
	 Same-Spin Energy          =      -0.2528600543438211 [Eh]
	 Opposite-Spin Energy      =      -0.8943188706222176 [Eh]
	 Correlation Energy        =      -1.1471789249660387 [Eh]
	 Total Energy              =    -234.1827610112327136 [Eh]

	 ================> DF-SCS-MP2 Energies <==================
	-----------------------------------------------------------
	 SCS Same-Spin Scale       =       0.3333333333333333 [-]
	 SCS Opposite-Spin Scale   =       1.2000000000000000 [-]
	 SCS Same-Spin Energy      =      -0.0842866847812737 [Eh]
	 SCS Opposite-Spin Energy  =      -1.0731826447466610 [Eh]
	 SCS Correlation Energy    =      -1.1574693295279348 [Eh]
	 SCS Total Energy          =    -234.1930514157946277 [Eh]
	-----------------------------------------------------------

  Dipole Moment: [D]
     X:     0.6944      Y:    -0.0000      Z:     0.3459     Total:     0.7758

*** Psi4 exiting successfully. Buy a developer a beer!
