                               Psi4 1.4a3.dev225

  ==> Input File <==

--------------------------------------------------------------------------
#psi4
#
memory 32 gb

molecule  {
0 1
  C        1.0191550    -0.0000090     0.3706600
  C       -0.3376930    -0.0001380     1.0991850
  C        1.1917626     1.2765872    -0.4845518
  C        1.1896430    -1.2599310    -0.4737080
  C       -1.4806530    -0.0001100     0.1820590
  C       -2.4337550     0.0000760    -0.5817880
  H        1.7898900    -0.0000470     1.1539300
  H       -0.3990100    -0.8800950     1.7523450
  H       -0.3991040     0.8797040     1.7524870
  H        2.1752240     1.2782110    -0.9487550
  H        1.0912450     2.1632510     0.1376750
  H        0.4300030     1.2977920    -1.2600980
  H        2.1753400    -1.2779000    -0.9489720
  H        0.4301230    -1.2975720    -1.2603270
  H        1.0914300    -2.1632230     0.1372970
  H       -3.2625000     0.0001070    -1.2530880
units angstrom
no_reorient  #important for SAPT in psi4, default
symmetry c1  #important for SAPT in psi4, default
}

set PROPERTIES_ORIGIN ["COM"]
properties('MP2/aug-cc-pvtz', properties = ['dipole'])
--------------------------------------------------------------------------

    Molecular point group: c1
  Charge       = 0
  Multiplicity = 1
  Basis Set: AUG-CC-PVTZ
    Blend: AUG-CC-PVTZ
  Basis Set: (AUG-CC-PVTZ AUX)
    Blend: AUG-CC-PVTZ-JKFIT

    Orbital Energies [Eh]
    ---------------------

    Doubly Occupied:

       1A    -11.250270     2A    -11.237647     3A    -11.236659
       4A    -11.223335     5A    -11.211168     6A    -11.210398
       7A     -1.105905     8A     -1.020971     9A     -0.942293
      10A     -0.930208    11A     -0.787254    12A     -0.710629
      13A     -0.650347    14A     -0.614861    15A     -0.608746
      16A     -0.579323    17A     -0.540525    18A     -0.525034
      19A     -0.485018    20A     -0.474640    21A     -0.468899
      22A     -0.377863    23A     -0.377800

  @DF-RHF Final Energy:  -233.04935857993109

   => Energetics <=

    Nuclear Repulsion Energy =            222.4694062261363854
    One-Electron Energy =                -753.8979436450866842
    Two-Electron Energy =                 298.3791788390192323
    Total Energy =                       -233.0493585799310949
  Basis Set: (AUG-CC-PVTZ AUX)
    Blend: AUG-CC-PVTZ-RI
    Molecular point group: c1

    Geometry (in Angstrom), charge = 0, multiplicity = 1:

       Center              X                  Y                   Z               Mass
    ------------   -----------------  -----------------  -----------------  -----------------
         C            1.080751817052    -0.002420505890     0.363362117925    12.000000000000
         C           -0.276096182948    -0.002549505890     1.091887117925    12.000000000000
         C            1.253359417052     1.274175694110    -0.491849682075    12.000000000000
         C            1.251239817052    -1.262342505890    -0.481005882075    12.000000000000
         C           -1.419056182948    -0.002521505890     0.174761117925    12.000000000000
         C           -2.372158182948    -0.002335505890    -0.589085882075    12.000000000000
         H            1.851486817052    -0.002458505890     1.146632117925     1.007825032230
         H           -0.337413182948    -0.882506505890     1.745047117925     1.007825032230
         H           -0.337507182948     0.877292494110     1.745189117925     1.007825032230
         H            2.236820817052     1.275799494110    -0.956052882075     1.007825032230
         H            1.152841817052     2.160839494110     0.130377117925     1.007825032230
         H            0.491599817052     1.295380494110    -1.267395882075     1.007825032230
         H            2.236936817052    -1.280311505890    -0.956269882075     1.007825032230
         H            0.491719817052    -1.299983505890    -1.267624882075     1.007825032230
         H            1.153026817052    -2.165634505890     0.129999117925     1.007825032230
         H           -3.200903182948    -0.002304505890    -1.260385882075     1.007825032230

  Basis Set: AUG-CC-PVTZ
    Blend: AUG-CC-PVTZ
  Basis Set: (AUG-CC-PVTZ AUX)
    Blend: AUG-CC-PVTZ-JKFIT
	 Reference Energy          =    -233.0493585799310949 [Eh]
	 Singles Energy            =      -0.0000000000000000 [Eh]
	 Same-Spin Energy          =      -0.2498474048648622 [Eh]
	 Opposite-Spin Energy      =      -0.8891005902555944 [Eh]
	 Correlation Energy        =      -1.1389479951204566 [Eh]
	 Total Energy              =    -234.1883065750515414 [Eh]

	 ================> DF-SCS-MP2 Energies <==================
	-----------------------------------------------------------
	 SCS Same-Spin Scale       =       0.3333333333333333 [-]
	 SCS Opposite-Spin Scale   =       1.2000000000000000 [-]
	 SCS Same-Spin Energy      =      -0.0832824682882874 [Eh]
	 SCS Opposite-Spin Energy  =      -1.0669207083067132 [Eh]
	 SCS Correlation Energy    =      -1.1502031765950005 [Eh]
	 SCS Total Energy          =    -234.1995617565260943 [Eh]
	-----------------------------------------------------------

  Dipole Moment: [D]
     X:     0.6484      Y:    -0.0026      Z:     0.3218     Total:     0.7239

*** Psi4 exiting successfully. Buy a developer a beer!
