                               Psi4 1.4a3.dev225

  ==> Input File <==

--------------------------------------------------------------------------
#psi4
#
memory 32 gb

molecule  {
0 1
  C        1.0191550    -0.0000090     0.3706600
  C       -0.3376930    -0.0001380     1.0991850
  C        1.1895300     1.2600750    -0.4734900
  C        1.1896430    -1.2599310    -0.4737080
  C       -1.4806530    -0.0001100     0.1820590
  C       -2.4337550     0.0000760    -0.5817880
  H        1.7898900    -0.0000470     1.1539300
  H       -0.3990100    -0.8800950     1.7523450
  H       -0.3991040     0.8797040     1.7524870
  H        2.1752240     1.2782110    -0.9487550
  H        1.0912450     2.1632510     0.1376750
  H        0.4300030     1.2977920    -1.2600980
  H        2.1753400    -1.2779000    -0.9489720
  H        0.4301230    -1.2975720    -1.2603270
  H        1.0914300    -2.1632230     0.1372970
  H       -3.2625000     0.0001070    -1.2530880
units angstrom
no_reorient  #important for SAPT in psi4, default
symmetry c1  #important for SAPT in psi4, default
}

set PROPERTIES_ORIGIN ["COM"]
properties('MP2/aug-cc-pvtz', properties = ['dipole'])
--------------------------------------------------------------------------

    Molecular point group: c1
  Charge       = 0
  Multiplicity = 1
  Basis Set: AUG-CC-PVTZ
    Blend: AUG-CC-PVTZ
  Basis Set: (AUG-CC-PVTZ AUX)
    Blend: AUG-CC-PVTZ-JKFIT

    Orbital Energies [Eh]
    ---------------------

    Doubly Occupied:

       1A    -11.250319     2A    -11.237648     3A    -11.235841
       4A    -11.223337     5A    -11.211232     6A    -11.211214
       7A     -1.107707     8A     -1.021746     9A     -0.942415
      10A     -0.929994    11A     -0.787260    12A     -0.710763
      13A     -0.651083    14A     -0.615369    15A     -0.609114
      16A     -0.579038    17A     -0.539144    18A     -0.523203
      19A     -0.484347    20A     -0.473441    21A     -0.472681
      22A     -0.377855    23A     -0.377848

  @DF-RHF Final Energy:  -233.04947758401340

   => Energetics <=

    Nuclear Repulsion Energy =            222.7439827842700879
    One-Electron Energy =                -754.4417238928806455
    Two-Electron Energy =                 298.6482635245971551
    Total Energy =                       -233.0494775840134025
  Basis Set: (AUG-CC-PVTZ AUX)
    Blend: AUG-CC-PVTZ-RI
    Molecular point group: c1

    Geometry (in Angstrom), charge = 0, multiplicity = 1:

       Center              X                  Y                   Z               Mass
    ------------   -----------------  -----------------  -----------------  -----------------
         C            1.081078227519    -0.000006390102     0.361744861228    12.000000000000
         C           -0.275769772481    -0.000135390102     1.090269861228    12.000000000000
         C            1.251453227519     1.260077609898    -0.482405138772    12.000000000000
         C            1.251566227519    -1.259928390102    -0.482623138772    12.000000000000
         C           -1.418729772481    -0.000107390102     0.173143861228    12.000000000000
         C           -2.371831772481     0.000078609898    -0.590703138772    12.000000000000
         H            1.851813227519    -0.000044390102     1.145014861228     1.007825032230
         H           -0.337086772481    -0.880092390102     1.743429861228     1.007825032230
         H           -0.337180772481     0.879706609898     1.743571861228     1.007825032230
         H            2.237147227519     1.278213609898    -0.957670138772     1.007825032230
         H            1.153168227519     2.163253609898     0.128759861228     1.007825032230
         H            0.491926227519     1.297794609898    -1.269013138772     1.007825032230
         H            2.237263227519    -1.277897390102    -0.957887138772     1.007825032230
         H            0.492046227519    -1.297569390102    -1.269242138772     1.007825032230
         H            1.153353227519    -2.163220390102     0.128381861228     1.007825032230
         H           -3.200576772481     0.000109609898    -1.262003138772     1.007825032230

  Basis Set: AUG-CC-PVTZ
    Blend: AUG-CC-PVTZ
  Basis Set: (AUG-CC-PVTZ AUX)
    Blend: AUG-CC-PVTZ-JKFIT
	 Reference Energy          =    -233.0494775840134025 [Eh]
	 Singles Energy            =      -0.0000000000000000 [Eh]
	 Same-Spin Energy          =      -0.2499833218404918 [Eh]
	 Opposite-Spin Energy      =      -0.8892109387211633 [Eh]
	 Correlation Energy        =      -1.1391942605616552 [Eh]
	 Total Energy              =    -234.1886718445750546 [Eh]

	 ================> DF-SCS-MP2 Energies <==================
	-----------------------------------------------------------
	 SCS Same-Spin Scale       =       0.3333333333333333 [-]
	 SCS Opposite-Spin Scale   =       1.2000000000000000 [-]
	 SCS Same-Spin Energy      =      -0.0833277739468306 [Eh]
	 SCS Opposite-Spin Energy  =      -1.0670531264653960 [Eh]
	 SCS Correlation Energy    =      -1.1503809004122265 [Eh]
	 SCS Total Energy          =    -234.1998584844256186 [Eh]
	-----------------------------------------------------------

  Dipole Moment: [D]
     X:     0.6484      Y:    -0.0000      Z:     0.3187     Total:     0.7225

*** Psi4 exiting successfully. Buy a developer a beer!
