                               Psi4 1.4a3.dev225

  ==> Input File <==

--------------------------------------------------------------------------
#psi4
#
memory 32 gb

molecule  {
0 1
  C        0.9983461    -0.0070170     0.3555788
  C       -0.3376930    -0.0001380     1.0991850
  C        1.1895300     1.2600750    -0.4734900
  C        1.1896430    -1.2599310    -0.4737080
  C       -1.4806530    -0.0001100     0.1820590
  C       -2.4337550     0.0000760    -0.5817880
  H        1.7898900    -0.0000470     1.1539300
  H       -0.3990100    -0.8800950     1.7523450
  H       -0.3991040     0.8797040     1.7524870
  H        2.1752240     1.2782110    -0.9487550
  H        1.0912450     2.1632510     0.1376750
  H        0.4300030     1.2977920    -1.2600980
  H        2.1753400    -1.2779000    -0.9489720
  H        0.4301230    -1.2975720    -1.2603270
  H        1.0914300    -2.1632230     0.1372970
  H       -3.2625000     0.0001070    -1.2530880
units angstrom
no_reorient  #important for SAPT in psi4, default
symmetry c1  #important for SAPT in psi4, default
}

set PROPERTIES_ORIGIN ["COM"]
properties('MP2/aug-cc-pvtz', properties = ['dipole'])
--------------------------------------------------------------------------

    Molecular point group: c1
  Charge       = 0
  Multiplicity = 1
  Basis Set: AUG-CC-PVTZ
    Blend: AUG-CC-PVTZ
  Basis Set: (AUG-CC-PVTZ AUX)
    Blend: AUG-CC-PVTZ-JKFIT

    Orbital Energies [Eh]
    ---------------------

    Doubly Occupied:

       1A    -11.250482     2A    -11.237464     3A    -11.236789
       4A    -11.223367     5A    -11.211349     6A    -11.211100
       7A     -1.109994     8A     -1.022003     9A     -0.943664
      10A     -0.931204    11A     -0.783898    12A     -0.710900
      13A     -0.652392    14A     -0.616877    15A     -0.609430
      16A     -0.579334    17A     -0.538493    18A     -0.524003
      19A     -0.488484    20A     -0.476307    21A     -0.463815
      22A     -0.378434    23A     -0.377960

  @DF-RHF Final Energy:  -233.04841002338659

   => Energetics <=

    Nuclear Repulsion Energy =            222.9966634798898895
    One-Electron Energy =                -754.9346600965883454
    Two-Electron Energy =                 298.8895865933118330
    Total Energy =                       -233.0484100233866229
  Basis Set: (AUG-CC-PVTZ AUX)
    Blend: AUG-CC-PVTZ-RI
    Molecular point group: c1

    Geometry (in Angstrom), charge = 0, multiplicity = 1:

       Center              X                  Y                   Z               Mass
    ------------   -----------------  -----------------  -----------------  -----------------
         C            1.063311629213    -0.005989806857     0.348868562031    12.000000000000
         C           -0.272727470787     0.000889193143     1.092474762031    12.000000000000
         C            1.254495529213     1.261102193143    -0.480200237969    12.000000000000
         C            1.254608529213    -1.258903806857    -0.480418237969    12.000000000000
         C           -1.415687470787     0.000917193143     0.175348762031    12.000000000000
         C           -2.368789470787     0.001103193143    -0.588498237969    12.000000000000
         H            1.854855529213     0.000980193143     1.147219762031     1.007825032230
         H           -0.334044470787    -0.879067806857     1.745634762031     1.007825032230
         H           -0.334138470787     0.880731193143     1.745776762031     1.007825032230
         H            2.240189529213     1.279238193143    -0.955465237969     1.007825032230
         H            1.156210529213     2.164278193143     0.130964762031     1.007825032230
         H            0.494968529213     1.298819193143    -1.266808237969     1.007825032230
         H            2.240305529213    -1.276872806857    -0.955682237969     1.007825032230
         H            0.495088529213    -1.296544806857    -1.267037237969     1.007825032230
         H            1.156395529213    -2.162195806857     0.130586762031     1.007825032230
         H           -3.197534470787     0.001134193143    -1.259798237969     1.007825032230

  Basis Set: AUG-CC-PVTZ
    Blend: AUG-CC-PVTZ
  Basis Set: (AUG-CC-PVTZ AUX)
    Blend: AUG-CC-PVTZ-JKFIT
	 Reference Energy          =    -233.0484100233865945 [Eh]
	 Singles Energy            =      -0.0000000000000000 [Eh]
	 Same-Spin Energy          =      -0.2501352031295148 [Eh]
	 Opposite-Spin Energy      =      -0.8893978811108737 [Eh]
	 Correlation Energy        =      -1.1395330842403886 [Eh]
	 Total Energy              =    -234.1879431076269782 [Eh]

	 ================> DF-SCS-MP2 Energies <==================
	-----------------------------------------------------------
	 SCS Same-Spin Scale       =       0.3333333333333333 [-]
	 SCS Opposite-Spin Scale   =       1.2000000000000000 [-]
	 SCS Same-Spin Energy      =      -0.0833784010431716 [Eh]
	 SCS Opposite-Spin Energy  =      -1.0672774573330484 [Eh]
	 SCS Correlation Energy    =      -1.1506558583762199 [Eh]
	 SCS Total Energy          =    -234.1990658817628059 [Eh]
	-----------------------------------------------------------

  Dipole Moment: [D]
     X:     0.6337      Y:    -0.0052      Z:     0.3128     Total:     0.7067

*** Psi4 exiting successfully. Buy a developer a beer!
