                               Psi4 1.4a3.dev225

  ==> Input File <==

--------------------------------------------------------------------------
#psi4
#
memory 32 gb

molecule  {
0 1
  C        1.0191550    -0.0000090     0.3706600
  C       -0.3200723    -0.0001363     1.0897240
  C        1.1895300     1.2600750    -0.4734900
  C        1.1896430    -1.2599310    -0.4737080
  C       -1.4806530    -0.0001100     0.1820590
  C       -2.4337550     0.0000760    -0.5817880
  H        1.7898900    -0.0000470     1.1539300
  H       -0.3990100    -0.8800950     1.7523450
  H       -0.3991040     0.8797040     1.7524870
  H        2.1752240     1.2782110    -0.9487550
  H        1.0912450     2.1632510     0.1376750
  H        0.4300030     1.2977920    -1.2600980
  H        2.1753400    -1.2779000    -0.9489720
  H        0.4301230    -1.2975720    -1.2603270
  H        1.0914300    -2.1632230     0.1372970
  H       -3.2625000     0.0001070    -1.2530880
units angstrom
no_reorient  #important for SAPT in psi4, default
symmetry c1  #important for SAPT in psi4, default
}

set PROPERTIES_ORIGIN ["COM"]
properties('MP2/aug-cc-pvtz', properties = ['dipole'])
--------------------------------------------------------------------------

    Molecular point group: c1
  Charge       = 0
  Multiplicity = 1
  Basis Set: AUG-CC-PVTZ
    Blend: AUG-CC-PVTZ
  Basis Set: (AUG-CC-PVTZ AUX)
    Blend: AUG-CC-PVTZ-JKFIT

    Orbital Energies [Eh]
    ---------------------

    Doubly Occupied:

       1A    -11.251534     2A    -11.237829     3A    -11.234781
       4A    -11.223194     5A    -11.211349     6A    -11.211331
       7A     -1.109861     8A     -1.021069     9A     -0.942046
      10A     -0.930328    11A     -0.788330    12A     -0.710230
      13A     -0.651688    14A     -0.614331    15A     -0.609925
      16A     -0.577086    17A     -0.538971    18A     -0.522053
      19A     -0.487059    20A     -0.472990    21A     -0.472722
      22A     -0.378939    23A     -0.377413

  @DF-RHF Final Energy:  -233.04906283374578

   => Energetics <=

    Nuclear Repulsion Energy =            222.9202066238395332
    One-Electron Energy =                -754.7884175968279123
    Two-Electron Energy =                 298.8191481392426567
    Total Energy =                       -233.0490628337457792
  Basis Set: (AUG-CC-PVTZ AUX)
    Blend: AUG-CC-PVTZ-RI
    Molecular point group: c1

    Geometry (in Angstrom), charge = 0, multiplicity = 1:

       Center              X                  Y                   Z               Mass
    ------------   -----------------  -----------------  -----------------  -----------------
         C            1.078502046872    -0.000006638645     0.363128077848    12.000000000000
         C           -0.260725253128    -0.000133938645     1.082192077848    12.000000000000
         C            1.248877046872     1.260077361355    -0.481021922152    12.000000000000
         C            1.248990046872    -1.259928638645    -0.481239922152    12.000000000000
         C           -1.421305953128    -0.000107638645     0.174527077848    12.000000000000
         C           -2.374407953128     0.000078361355    -0.589319922152    12.000000000000
         H            1.849237046872    -0.000044638645     1.146398077848     1.007825032230
         H           -0.339662953128    -0.880092638645     1.744813077848     1.007825032230
         H           -0.339756953128     0.879706361355     1.744955077848     1.007825032230
         H            2.234571046872     1.278213361355    -0.956286922152     1.007825032230
         H            1.150592046872     2.163253361355     0.130143077848     1.007825032230
         H            0.489350046872     1.297794361355    -1.267629922152     1.007825032230
         H            2.234687046872    -1.277897638645    -0.956503922152     1.007825032230
         H            0.489470046872    -1.297569638645    -1.267858922152     1.007825032230
         H            1.150777046872    -2.163220638645     0.129765077848     1.007825032230
         H           -3.203152953128     0.000109361355    -1.260619922152     1.007825032230

  Basis Set: AUG-CC-PVTZ
    Blend: AUG-CC-PVTZ
  Basis Set: (AUG-CC-PVTZ AUX)
    Blend: AUG-CC-PVTZ-JKFIT
	 Reference Energy          =    -233.0490628337457792 [Eh]
	 Singles Energy            =      -0.0000000000000000 [Eh]
	 Same-Spin Energy          =      -0.2500115966789028 [Eh]
	 Opposite-Spin Energy      =      -0.8892641040902969 [Eh]
	 Correlation Energy        =      -1.1392757007691996 [Eh]
	 Total Energy              =    -234.1883385345149691 [Eh]

	 ================> DF-SCS-MP2 Energies <==================
	-----------------------------------------------------------
	 SCS Same-Spin Scale       =       0.3333333333333333 [-]
	 SCS Opposite-Spin Scale   =       1.2000000000000000 [-]
	 SCS Same-Spin Energy      =      -0.0833371988929676 [Eh]
	 SCS Opposite-Spin Energy  =      -1.0671169249083563 [Eh]
	 SCS Correlation Energy    =      -1.1504541238013239 [Eh]
	 SCS Total Energy          =    -234.1995169575471039 [Eh]
	-----------------------------------------------------------

  Dipole Moment: [D]
     X:     0.6579      Y:    -0.0000      Z:     0.3138     Total:     0.7289

*** Psi4 exiting successfully. Buy a developer a beer!
