                               Psi4 1.4a3.dev225

  ==> Input File <==

--------------------------------------------------------------------------
#psi4
#
memory 32 gb

molecule  {
0 1
  C        1.0191550    -0.0000090     0.3706600
  C       -0.3657222    -0.1425856     1.0291220
  C        1.1895300     1.2600750    -0.4734900
  C        1.1896430    -1.2599310    -0.4737080
  C       -1.4806530    -0.0001100     0.1820590
  C       -2.4337550     0.0000760    -0.5817880
  H        1.7898900    -0.0000470     1.1539300
  H       -0.3990100    -0.8800950     1.7523450
  H       -0.3991040     0.8797040     1.7524870
  H        2.1752240     1.2782110    -0.9487550
  H        1.0912450     2.1632510     0.1376750
  H        0.4300030     1.2977920    -1.2600980
  H        2.1753400    -1.2779000    -0.9489720
  H        0.4301230    -1.2975720    -1.2603270
  H        1.0914300    -2.1632230     0.1372970
  H       -3.2625000     0.0001070    -1.2530880
units angstrom
no_reorient  #important for SAPT in psi4, default
symmetry c1  #important for SAPT in psi4, default
}

set PROPERTIES_ORIGIN ["COM"]
properties('MP2/aug-cc-pvtz', properties = ['dipole'])
--------------------------------------------------------------------------

    Molecular point group: c1
  Charge       = 0
  Multiplicity = 1
  Basis Set: AUG-CC-PVTZ
    Blend: AUG-CC-PVTZ
  Basis Set: (AUG-CC-PVTZ AUX)
    Blend: AUG-CC-PVTZ-JKFIT

    Orbital Energies [Eh]
    ---------------------

    Doubly Occupied:

       1A    -11.253640     2A    -11.237829     3A    -11.237800
       4A    -11.225354     5A    -11.213125     6A    -11.209570
       7A     -1.113037     8A     -1.027572     9A     -0.943613
      10A     -0.929526    11A     -0.792265    12A     -0.714039
      13A     -0.664323    14A     -0.621301    15A     -0.602769
      16A     -0.576994    17A     -0.539343    18A     -0.518023
      19A     -0.488480    20A     -0.475957    21A     -0.464954
      22A     -0.380557    23A     -0.365469

  @DF-RHF Final Energy:  -233.02445186564984

   => Energetics <=

    Nuclear Repulsion Energy =            223.4657311798973183
    One-Electron Energy =                -755.7892860614654182
    Two-Electron Energy =                 299.2991030159182060
    Total Energy =                       -233.0244518656498371
  Basis Set: (AUG-CC-PVTZ AUX)
    Blend: AUG-CC-PVTZ-RI
    Molecular point group: c1

    Geometry (in Angstrom), charge = 0, multiplicity = 1:

       Center              X                  Y                   Z               Mass
    ------------   -----------------  -----------------  -----------------  -----------------
         C            1.085176151131     0.020819726358     0.371988208238    12.000000000000
         C           -0.299701048869    -0.121756873642     1.030450208238    12.000000000000
         C            1.255551151131     1.280903726358    -0.472161791762    12.000000000000
         C            1.255664151131    -1.239102273642    -0.472379791762    12.000000000000
         C           -1.414631848869     0.020718726358     0.183387208238    12.000000000000
         C           -2.367733848869     0.020904726358    -0.580459791762    12.000000000000
         H            1.855911151131     0.020781726358     1.155258208238     1.007825032230
         H           -0.332988848869    -0.859266273642     1.753673208238     1.007825032230
         H           -0.333082848869     0.900532726358     1.753815208238     1.007825032230
         H            2.241245151131     1.299039726358    -0.947426791762     1.007825032230
         H            1.157266151131     2.184079726358     0.139003208238     1.007825032230
         H            0.496024151131     1.318620726358    -1.258769791762     1.007825032230
         H            2.241361151131    -1.257071273642    -0.947643791762     1.007825032230
         H            0.496144151131    -1.276743273642    -1.258998791762     1.007825032230
         H            1.157451151131    -2.142394273642     0.138625208238     1.007825032230
         H           -3.196478848869     0.020935726358    -1.251759791762     1.007825032230

  Basis Set: AUG-CC-PVTZ
    Blend: AUG-CC-PVTZ
  Basis Set: (AUG-CC-PVTZ AUX)
    Blend: AUG-CC-PVTZ-JKFIT
	 Reference Energy          =    -233.0244518656498371 [Eh]
	 Singles Energy            =      -0.0000000000000000 [Eh]
	 Same-Spin Energy          =      -0.2514618969001980 [Eh]
	 Opposite-Spin Energy      =      -0.8918325359524482 [Eh]
	 Correlation Energy        =      -1.1432944328526462 [Eh]
	 Total Energy              =    -234.1677462985024931 [Eh]

	 ================> DF-SCS-MP2 Energies <==================
	-----------------------------------------------------------
	 SCS Same-Spin Scale       =       0.3333333333333333 [-]
	 SCS Opposite-Spin Scale   =       1.2000000000000000 [-]
	 SCS Same-Spin Energy      =      -0.0838206323000660 [Eh]
	 SCS Opposite-Spin Energy  =      -1.0701990431429378 [Eh]
	 SCS Correlation Energy    =      -1.1540196754430039 [Eh]
	 SCS Total Energy          =    -234.1784715410928470 [Eh]
	-----------------------------------------------------------

  Dipole Moment: [D]
     X:     0.6407      Y:    -0.0953      Z:     0.2459     Total:     0.6928

*** Psi4 exiting successfully. Buy a developer a beer!
