                               Psi4 1.4a3.dev225

  ==> Input File <==

--------------------------------------------------------------------------
#psi4
#
memory 32 gb

molecule  {
0 1
  C        1.1028460     0.0318384     0.4283688
  C       -0.3376930    -0.0001380     1.0991850
  C        1.1895300     1.2600750    -0.4734900
  C        1.1896430    -1.2599310    -0.4737080
  C       -1.4806530    -0.0001100     0.1820590
  C       -2.4337550     0.0000760    -0.5817880
  H        1.7898900    -0.0000470     1.1539300
  H       -0.3990100    -0.8800950     1.7523450
  H       -0.3991040     0.8797040     1.7524870
  H        2.1752240     1.2782110    -0.9487550
  H        1.0912450     2.1632510     0.1376750
  H        0.4300030     1.2977920    -1.2600980
  H        2.1753400    -1.2779000    -0.9489720
  H        0.4301230    -1.2975720    -1.2603270
  H        1.0914300    -2.1632230     0.1372970
  H       -3.2625000     0.0001070    -1.2530880
units angstrom
no_reorient  #important for SAPT in psi4, default
symmetry c1  #important for SAPT in psi4, default
}

set PROPERTIES_ORIGIN ["COM"]
properties('MP2/aug-cc-pvtz', properties = ['dipole'])
--------------------------------------------------------------------------

    Molecular point group: c1
  Charge       = 0
  Multiplicity = 1
  Basis Set: AUG-CC-PVTZ
    Blend: AUG-CC-PVTZ
  Basis Set: (AUG-CC-PVTZ AUX)
    Blend: AUG-CC-PVTZ-JKFIT

    Orbital Energies [Eh]
    ---------------------

    Doubly Occupied:

       1A    -11.250286     2A    -11.238510     3A    -11.233895
       4A    -11.223363     5A    -11.212525     6A    -11.211859
       7A     -1.099429     8A     -1.021397     9A     -0.938132
      10A     -0.925124    11A     -0.804394    12A     -0.710944
      13A     -0.645319    14A     -0.610712    15A     -0.607382
      16A     -0.578732    17A     -0.542358    18A     -0.520946
      19A     -0.505033    20A     -0.471196    21A     -0.456529
      22A     -0.377586    23A     -0.374755

  @DF-RHF Final Energy:  -233.03683314319181

   => Energetics <=

    Nuclear Repulsion Energy =            221.7110436484319109
    One-Electron Energy =                -752.3749416368650600
    Two-Electron Energy =                 297.6270648452413639
    Total Energy =                       -233.0368331431918136
  Basis Set: (AUG-CC-PVTZ AUX)
    Blend: AUG-CC-PVTZ-RI
    Molecular point group: c1

    Geometry (in Angstrom), charge = 0, multiplicity = 1:

       Center              X                  Y                   Z               Mass
    ------------   -----------------  -----------------  -----------------  -----------------
         C            1.152533440376     0.027184858013     0.411016522311    12.000000000000
         C           -0.288005559624    -0.004791541987     1.081832722311    12.000000000000
         C            1.239217440376     1.255421458013    -0.490842277689    12.000000000000
         C            1.239330440376    -1.264584541987    -0.491060277689    12.000000000000
         C           -1.430965559624    -0.004763541987     0.164706722311    12.000000000000
         C           -2.384067559624    -0.004577541987    -0.599140277689    12.000000000000
         H            1.839577440376    -0.004700541987     1.136577722311     1.007825032230
         H           -0.349322559624    -0.884748541987     1.734992722311     1.007825032230
         H           -0.349416559624     0.875050458013     1.735134722311     1.007825032230
         H            2.224911440376     1.273557458013    -0.966107277689     1.007825032230
         H            1.140932440376     2.158597458013     0.120322722311     1.007825032230
         H            0.479690440376     1.293138458013    -1.277450277689     1.007825032230
         H            2.225027440376    -1.282553541987    -0.966324277689     1.007825032230
         H            0.479810440376    -1.302225541987    -1.277679277689     1.007825032230
         H            1.141117440376    -2.167876541987     0.119944722311     1.007825032230
         H           -3.212812559624    -0.004546541987    -1.270440277689     1.007825032230

  Basis Set: AUG-CC-PVTZ
    Blend: AUG-CC-PVTZ
  Basis Set: (AUG-CC-PVTZ AUX)
    Blend: AUG-CC-PVTZ-JKFIT
	 Reference Energy          =    -233.0368331431918136 [Eh]
	 Singles Energy            =      -0.0000000000000000 [Eh]
	 Same-Spin Energy          =      -0.2497318432003058 [Eh]
	 Opposite-Spin Energy      =      -0.8894278803538607 [Eh]
	 Correlation Energy        =      -1.1391597235541666 [Eh]
	 Total Energy              =    -234.1759928667459860 [Eh]

	 ================> DF-SCS-MP2 Energies <==================
	-----------------------------------------------------------
	 SCS Same-Spin Scale       =       0.3333333333333333 [-]
	 SCS Opposite-Spin Scale   =       1.2000000000000000 [-]
	 SCS Same-Spin Energy      =      -0.0832439477334353 [Eh]
	 SCS Opposite-Spin Energy  =      -1.0673134564246327 [Eh]
	 SCS Correlation Energy    =      -1.1505574041580680 [Eh]
	 SCS Total Energy          =    -234.1873905473498780 [Eh]
	-----------------------------------------------------------

  Dipole Moment: [D]
     X:     0.6924      Y:     0.0251      Z:     0.3253     Total:     0.7654

*** Psi4 exiting successfully. Buy a developer a beer!
