                               Psi4 1.4a3.dev225

  ==> Input File <==

--------------------------------------------------------------------------
#psi4
#
memory 32 gb

molecule  {
0 1
  C        1.0191550    -0.0000090     0.3706600
  C       -0.3376930    -0.0001380     1.0991850
  C        1.1895300     1.2600750    -0.4734900
  C        1.1896430    -1.2599310    -0.4737080
  C       -1.4806530    -0.0001100     0.1820590
  C       -2.4337550     0.0000760    -0.5817880
  H        1.7898900    -0.0000470     1.1539300
  H       -0.3990100    -0.8800950     1.7523450
  H       -0.3991040     0.8797040     1.7524870
  H        2.1752240     1.2782110    -0.9487550
  H        1.0912450     2.1632510     0.1376750
  H        0.4300030     1.2977920    -1.2600980
  H        2.1753400    -1.2779000    -0.9489720
  H        0.4440069    -1.2968839    -1.2459477
  H        1.0914300    -2.1632230     0.1372970
  H       -3.2625000     0.0001070    -1.2530880
units angstrom
no_reorient  #important for SAPT in psi4, default
symmetry c1  #important for SAPT in psi4, default
}

set PROPERTIES_ORIGIN ["COM"]
properties('MP2/aug-cc-pvtz', properties = ['dipole'])
--------------------------------------------------------------------------

    Molecular point group: c1
  Charge       = 0
  Multiplicity = 1
  Basis Set: AUG-CC-PVTZ
    Blend: AUG-CC-PVTZ
  Basis Set: (AUG-CC-PVTZ AUX)
    Blend: AUG-CC-PVTZ-JKFIT

    Orbital Energies [Eh]
    ---------------------

    Doubly Occupied:

       1A    -11.250273     2A    -11.237685     3A    -11.235623
       4A    -11.223405     5A    -11.211194     6A    -11.208825
       7A     -1.107840     8A     -1.021926     9A     -0.942694
      10A     -0.931065    11A     -0.787942    12A     -0.710841
      13A     -0.651179    14A     -0.615464    15A     -0.609403
      16A     -0.579325    17A     -0.541380    18A     -0.523206
      19A     -0.484284    20A     -0.473528    21A     -0.473204
      22A     -0.377951    23A     -0.377886

  @DF-RHF Final Energy:  -233.04951469921787

   => Energetics <=

    Nuclear Repulsion Energy =            222.8193942813312560
    One-Electron Energy =                -754.5855686474161530
    Two-Electron Energy =                 298.7166596668670309
    Total Energy =                       -233.0495146992178661
  Basis Set: (AUG-CC-PVTZ AUX)
    Blend: AUG-CC-PVTZ-RI
    Molecular point group: c1

    Geometry (in Angstrom), charge = 0, multiplicity = 1:

       Center              X                  Y                   Z               Mass
    ------------   -----------------  -----------------  -----------------  -----------------
         C            1.080907749446    -0.000014839166     0.361568300222    12.000000000000
         C           -0.275940250554    -0.000143839166     1.090093300222    12.000000000000
         C            1.251282749446     1.260069160834    -0.482581699778    12.000000000000
         C            1.251395749446    -1.259936839166    -0.482799699778    12.000000000000
         C           -1.418900250554    -0.000115839166     0.172967300222    12.000000000000
         C           -2.372002250554     0.000070160834    -0.590879699778    12.000000000000
         H            1.851642749446    -0.000052839166     1.144838300222     1.007825032230
         H           -0.337257250554    -0.880100839166     1.743253300222     1.007825032230
         H           -0.337351250554     0.879698160834     1.743395300222     1.007825032230
         H            2.236976749446     1.278205160834    -0.957846699778     1.007825032230
         H            1.152997749446     2.163245160834     0.128583300222     1.007825032230
         H            0.491755749446     1.297786160834    -1.269189699778     1.007825032230
         H            2.237092749446    -1.277905839166    -0.958063699778     1.007825032230
         H            0.505759649446    -1.296889739166    -1.255039399778     1.007825032230
         H            1.153182749446    -2.163228839166     0.128205300222     1.007825032230
         H           -3.200747250554     0.000101160834    -1.262179699778     1.007825032230

  Basis Set: AUG-CC-PVTZ
    Blend: AUG-CC-PVTZ
  Basis Set: (AUG-CC-PVTZ AUX)
    Blend: AUG-CC-PVTZ-JKFIT
	 Reference Energy          =    -233.0495146992178661 [Eh]
	 Singles Energy            =      -0.0000000000000000 [Eh]
	 Same-Spin Energy          =      -0.2499653408594662 [Eh]
	 Opposite-Spin Energy      =      -0.8890745626338985 [Eh]
	 Correlation Energy        =      -1.1390399034933647 [Eh]
	 Total Energy              =    -234.1885546027112355 [Eh]

	 ================> DF-SCS-MP2 Energies <==================
	-----------------------------------------------------------
	 SCS Same-Spin Scale       =       0.3333333333333333 [-]
	 SCS Opposite-Spin Scale   =       1.2000000000000000 [-]
	 SCS Same-Spin Energy      =      -0.0833217802864887 [Eh]
	 SCS Opposite-Spin Energy  =      -1.0668894751606781 [Eh]
	 SCS Correlation Energy    =      -1.1502112554471668 [Eh]
	 SCS Total Energy          =    -234.1997259546650412 [Eh]
	-----------------------------------------------------------

  Dipole Moment: [D]
     X:     0.6436      Y:    -0.0026      Z:     0.3109     Total:     0.7148

*** Psi4 exiting successfully. Buy a developer a beer!
