                               Psi4 1.4a3.dev225

  ==> Input File <==

--------------------------------------------------------------------------
#psi4
#
memory 32 gb

molecule  {
0 1
  C        1.0191550    -0.0000090     0.3706600
  C       -0.3376930    -0.0001380     1.0991850
  C        1.1672040     1.0949531    -0.3628722
  C        1.1896430    -1.2599310    -0.4737080
  C       -1.4806530    -0.0001100     0.1820590
  C       -2.4337550     0.0000760    -0.5817880
  H        1.7898900    -0.0000470     1.1539300
  H       -0.3990100    -0.8800950     1.7523450
  H       -0.3991040     0.8797040     1.7524870
  H        2.1752240     1.2782110    -0.9487550
  H        1.0912450     2.1632510     0.1376750
  H        0.4300030     1.2977920    -1.2600980
  H        2.1753400    -1.2779000    -0.9489720
  H        0.4301230    -1.2975720    -1.2603270
  H        1.0914300    -2.1632230     0.1372970
  H       -3.2625000     0.0001070    -1.2530880
units angstrom
no_reorient  #important for SAPT in psi4, default
symmetry c1  #important for SAPT in psi4, default
}

set PROPERTIES_ORIGIN ["COM"]
properties('MP2/aug-cc-pvtz', properties = ['dipole'])
--------------------------------------------------------------------------

    Molecular point group: c1
  Charge       = 0
  Multiplicity = 1
  Basis Set: AUG-CC-PVTZ
    Blend: AUG-CC-PVTZ
  Basis Set: (AUG-CC-PVTZ AUX)
    Blend: AUG-CC-PVTZ-JKFIT

    Orbital Energies [Eh]
    ---------------------

    Doubly Occupied:

       1A    -11.252125     2A    -11.238002     3A    -11.226269
       4A    -11.224366     5A    -11.223773     6A    -11.213180
       7A     -1.137070     8A     -1.031245     9A     -0.945093
      10A     -0.931470    11A     -0.784263    12A     -0.712736
      13A     -0.662949    14A     -0.624282    15A     -0.617014
      16A     -0.582309    17A     -0.538691    18A     -0.515147
      19A     -0.511744    20A     -0.450753    21A     -0.441957
      22A     -0.378164    23A     -0.377635

  @DF-RHF Final Energy:  -232.99907015994526

   => Energetics <=

    Nuclear Repulsion Energy =            225.7438969245662008
    One-Electron Energy =                -760.2454620240467875
    Two-Electron Energy =                 301.5024949395352678
    Total Energy =                       -232.9990701599452905
  Basis Set: (AUG-CC-PVTZ AUX)
    Blend: AUG-CC-PVTZ-RI
    Molecular point group: c1

    Geometry (in Angstrom), charge = 0, multiplicity = 1:

       Center              X                  Y                   Z               Mass
    ------------   -----------------  -----------------  -----------------  -----------------
         C            1.084342332187     0.024134753164     0.345572323500    12.000000000000
         C           -0.272505667813     0.024005753164     1.074097323500    12.000000000000
         C            1.232391332187     1.119096853164    -0.387959876500    12.000000000000
         C            1.254830332187    -1.235787246836    -0.498795676500    12.000000000000
         C           -1.415465667813     0.024033753164     0.156971323500    12.000000000000
         C           -2.368567667813     0.024219753164    -0.606875676500    12.000000000000
         H            1.855077332187     0.024096753164     1.128842323500     1.007825032230
         H           -0.333822667813    -0.855951246836     1.727257323500     1.007825032230
         H           -0.333916667813     0.903847753164     1.727399323500     1.007825032230
         H            2.240411332187     1.302354753164    -0.973842676500     1.007825032230
         H            1.156432332187     2.187394753164     0.112587323500     1.007825032230
         H            0.495190332187     1.321935753164    -1.285185676500     1.007825032230
         H            2.240527332187    -1.253756246836    -0.974059676500     1.007825032230
         H            0.495310332187    -1.273428246836    -1.285414676500     1.007825032230
         H            1.156617332187    -2.139079246836     0.112209323500     1.007825032230
         H           -3.197312667813     0.024250753164    -1.278175676500     1.007825032230

  Basis Set: AUG-CC-PVTZ
    Blend: AUG-CC-PVTZ
  Basis Set: (AUG-CC-PVTZ AUX)
    Blend: AUG-CC-PVTZ-JKFIT
	 Reference Energy          =    -232.9990701599452620 [Eh]
	 Singles Energy            =      -0.0000000000000000 [Eh]
	 Same-Spin Energy          =      -0.2532157483886001 [Eh]
	 Opposite-Spin Energy      =      -0.8935713727549306 [Eh]
	 Correlation Energy        =      -1.1467871211435305 [Eh]
	 Total Energy              =    -234.1458572810887802 [Eh]

	 ================> DF-SCS-MP2 Energies <==================
	-----------------------------------------------------------
	 SCS Same-Spin Scale       =       0.3333333333333333 [-]
	 SCS Opposite-Spin Scale   =       1.2000000000000000 [-]
	 SCS Same-Spin Energy      =      -0.0844052494628667 [Eh]
	 SCS Opposite-Spin Energy  =      -1.0722856473059166 [Eh]
	 SCS Correlation Energy    =      -1.1566908967687832 [Eh]
	 SCS Total Energy          =    -234.1557610567140557 [Eh]
	-----------------------------------------------------------

  Dipole Moment: [D]
     X:     0.6215      Y:    -0.0520      Z:     0.3239     Total:     0.7027

*** Psi4 exiting successfully. Buy a developer a beer!
