                               Psi4 1.4a3.dev225

  ==> Input File <==

--------------------------------------------------------------------------
#psi4
#
memory 32 gb

molecule  {
0 1
  C        1.0191550    -0.0000090     0.3706600
  C       -0.3376930    -0.0001380     1.0991850
  C        1.1895300     1.2600750    -0.4734900
  C        1.1896430    -1.2599310    -0.4737080
  C       -1.4806530    -0.0001100     0.1820590
  C       -2.4337550     0.0000760    -0.5817880
  H        1.6496139    -0.0000401     1.0113725
  H       -0.3990100    -0.8800950     1.7523450
  H       -0.3991040     0.8797040     1.7524870
  H        2.1752240     1.2782110    -0.9487550
  H        1.0912450     2.1632510     0.1376750
  H        0.4300030     1.2977920    -1.2600980
  H        2.1753400    -1.2779000    -0.9489720
  H        0.4301230    -1.2975720    -1.2603270
  H        1.0914300    -2.1632230     0.1372970
  H       -3.2625000     0.0001070    -1.2530880
units angstrom
no_reorient  #important for SAPT in psi4, default
symmetry c1  #important for SAPT in psi4, default
}

set PROPERTIES_ORIGIN ["COM"]
properties('MP2/aug-cc-pvtz', properties = ['dipole'])
--------------------------------------------------------------------------

    Molecular point group: c1
  Charge       = 0
  Multiplicity = 1
  Basis Set: AUG-CC-PVTZ
    Blend: AUG-CC-PVTZ
  Basis Set: (AUG-CC-PVTZ AUX)
    Blend: AUG-CC-PVTZ-JKFIT

    Orbital Energies [Eh]
    ---------------------

    Doubly Occupied:

       1A    -11.249096     2A    -11.236821     3A    -11.222226
       4A    -11.210340     5A    -11.209729     6A    -11.209408
       7A     -1.115517     8A     -1.024269     9A     -0.941477
      10A     -0.928787    11A     -0.818808    12A     -0.711152
      13A     -0.656686    14A     -0.614635    15A     -0.610633
      16A     -0.581098    17A     -0.538372    18A     -0.522402
      19A     -0.493614    20A     -0.482635    21A     -0.471617
      22A     -0.376991    23A     -0.376768

  @DF-RHF Final Energy:  -233.01728332330725

   => Energetics <=

    Nuclear Repulsion Energy =            223.8537970843743210
    One-Electron Energy =                -756.5360007206812725
    Two-Electron Energy =                 299.6649203129996408
    Total Energy =                       -233.0172833233072538
  Basis Set: (AUG-CC-PVTZ AUX)
    Blend: AUG-CC-PVTZ-RI
    Molecular point group: c1

    Geometry (in Angstrom), charge = 0, multiplicity = 1:

       Center              X                  Y                   Z               Mass
    ------------   -----------------  -----------------  -----------------  -----------------
         C            1.082800654160    -0.000006474826     0.363495300796    12.000000000000
         C           -0.274047345840    -0.000135474826     1.092020300796    12.000000000000
         C            1.253175654160     1.260077525174    -0.480654699204    12.000000000000
         C            1.253288654160    -1.259928474826    -0.480872699204    12.000000000000
         C           -1.417007345840    -0.000107474826     0.174894300796    12.000000000000
         C           -2.370109345840     0.000078525174    -0.588952699204    12.000000000000
         H            1.713259554160    -0.000037574826     1.004207800796     1.007825032230
         H           -0.335364345840    -0.880092474826     1.745180300796     1.007825032230
         H           -0.335458345840     0.879706525174     1.745322300796     1.007825032230
         H            2.238869654160     1.278213525174    -0.955919699204     1.007825032230
         H            1.154890654160     2.163253525174     0.130510300796     1.007825032230
         H            0.493648654160     1.297794525174    -1.267262699204     1.007825032230
         H            2.238985654160    -1.277897474826    -0.956136699204     1.007825032230
         H            0.493768654160    -1.297569474826    -1.267491699204     1.007825032230
         H            1.155075654160    -2.163220474826     0.130132300796     1.007825032230
         H           -3.198854345840     0.000109525174    -1.260252699204     1.007825032230

  Basis Set: AUG-CC-PVTZ
    Blend: AUG-CC-PVTZ
  Basis Set: (AUG-CC-PVTZ AUX)
    Blend: AUG-CC-PVTZ-JKFIT
	 Reference Energy          =    -233.0172833233072538 [Eh]
	 Singles Energy            =      -0.0000000000000000 [Eh]
	 Same-Spin Energy          =      -0.2500044585156555 [Eh]
	 Opposite-Spin Energy      =      -0.8885607112100433 [Eh]
	 Correlation Energy        =      -1.1385651697256989 [Eh]
	 Total Energy              =    -234.1558484930329485 [Eh]

	 ================> DF-SCS-MP2 Energies <==================
	-----------------------------------------------------------
	 SCS Same-Spin Scale       =       0.3333333333333333 [-]
	 SCS Opposite-Spin Scale   =       1.2000000000000000 [-]
	 SCS Same-Spin Energy      =      -0.0833348195052185 [Eh]
	 SCS Opposite-Spin Energy  =      -1.0662728534520520 [Eh]
	 SCS Correlation Energy    =      -1.1496076729572706 [Eh]
	 SCS Total Energy          =    -234.1668909962645273 [Eh]
	-----------------------------------------------------------

  Dipole Moment: [D]
     X:     0.7304      Y:    -0.0000      Z:     0.4081     Total:     0.8367

*** Psi4 exiting successfully. Buy a developer a beer!
