                               Psi4 1.4a3.dev225

  ==> Input File <==

--------------------------------------------------------------------------
#psi4
#
memory 32 gb

molecule  {
0 1
  C        1.0191550    -0.0000090     0.3706600
  C       -0.3376930    -0.0001380     1.0991850
  C        1.1895300     1.2600750    -0.4734900
  C        1.1896430    -1.2599310    -0.4737080
  C       -1.4806530    -0.0001100     0.1820590
  C       -2.4337550     0.0000760    -0.5817880
  H        1.7898900    -0.0000470     1.1539300
  H       -0.3990100    -0.8800950     1.7523450
  H       -0.3991040     0.8797040     1.7524870
  H        2.1752240     1.2782110    -0.9487550
  H        1.0912450     2.1632510     0.1376750
  H        0.4300030     1.2977920    -1.2600980
  H        2.3554682    -1.2811837    -1.0358227
  H        0.4301230    -1.2975720    -1.2603270
  H        1.0914300    -2.1632230     0.1372970
  H       -3.2625000     0.0001070    -1.2530880
units angstrom
no_reorient  #important for SAPT in psi4, default
symmetry c1  #important for SAPT in psi4, default
}

set PROPERTIES_ORIGIN ["COM"]
properties('MP2/aug-cc-pvtz', properties = ['dipole'])
--------------------------------------------------------------------------

    Molecular point group: c1
  Charge       = 0
  Multiplicity = 1
  Basis Set: AUG-CC-PVTZ
    Blend: AUG-CC-PVTZ
  Basis Set: (AUG-CC-PVTZ AUX)
    Blend: AUG-CC-PVTZ-JKFIT

    Orbital Energies [Eh]
    ---------------------

    Doubly Occupied:

       1A    -11.252816     2A    -11.239117     3A    -11.238370
       4A    -11.234757     5A    -11.224989     6A    -11.211443
       7A     -1.108703     8A     -1.021774     9A     -0.942339
      10A     -0.922438    11A     -0.784985    12A     -0.711919
      13A     -0.650687    14A     -0.615180    15A     -0.603234
      16A     -0.580906    17A     -0.541113    18A     -0.508662
      19A     -0.476329    20A     -0.475542    21A     -0.466712
      22A     -0.379477    23A     -0.379231

  @DF-RHF Final Energy:  -233.02963078811300

   => Energetics <=

    Nuclear Repulsion Energy =            221.9752018787740155
    One-Electron Energy =                -752.8682182539818086
    Two-Electron Energy =                 297.8633855870948537
    Total Energy =                       -233.0296307881129678
  Basis Set: (AUG-CC-PVTZ AUX)
    Blend: AUG-CC-PVTZ-RI
    Molecular point group: c1

    Geometry (in Angstrom), charge = 0, multiplicity = 1:

       Center              X                  Y                   Z               Mass
    ------------   -----------------  -----------------  -----------------  -----------------
         C            1.078866463644     0.000033929898     0.362811286367    12.000000000000
         C           -0.277981536356    -0.000095070102     1.091336286367    12.000000000000
         C            1.249241463644     1.260117929898    -0.481338713633    12.000000000000
         C            1.249354463644    -1.259888070102    -0.481556713633    12.000000000000
         C           -1.420941536356    -0.000067070102     0.174210286367    12.000000000000
         C           -2.374043536356     0.000118929898    -0.589636713633    12.000000000000
         H            1.849601463644    -0.000004070102     1.146081286367     1.007825032230
         H           -0.339298536356    -0.880052070102     1.744496286367     1.007825032230
         H           -0.339392536356     0.879746929898     1.744638286367     1.007825032230
         H            2.234935463644     1.278253929898    -0.956603713633     1.007825032230
         H            1.150956463644     2.163293929898     0.129826286367     1.007825032230
         H            0.489714463644     1.297834929898    -1.267946713633     1.007825032230
         H            2.415179663644    -1.281140770102    -1.043671413633     1.007825032230
         H            0.489834463644    -1.297529070102    -1.268175713633     1.007825032230
         H            1.151141463644    -2.163180070102     0.129448286367     1.007825032230
         H           -3.202788536356     0.000149929898    -1.260936713633     1.007825032230

  Basis Set: AUG-CC-PVTZ
    Blend: AUG-CC-PVTZ
  Basis Set: (AUG-CC-PVTZ AUX)
    Blend: AUG-CC-PVTZ-JKFIT
	 Reference Energy          =    -233.0296307881129962 [Eh]
	 Singles Energy            =      -0.0000000000000000 [Eh]
	 Same-Spin Energy          =      -0.2499328352321494 [Eh]
	 Opposite-Spin Energy      =      -0.8907606344827985 [Eh]
	 Correlation Energy        =      -1.1406934697149480 [Eh]
	 Total Energy              =    -234.1703242578279571 [Eh]

	 ================> DF-SCS-MP2 Energies <==================
	-----------------------------------------------------------
	 SCS Same-Spin Scale       =       0.3333333333333333 [-]
	 SCS Opposite-Spin Scale   =       1.2000000000000000 [-]
	 SCS Same-Spin Energy      =      -0.0833109450773831 [Eh]
	 SCS Opposite-Spin Energy  =      -1.0689127613793581 [Eh]
	 SCS Correlation Energy    =      -1.1522237064567413 [Eh]
	 SCS Total Energy          =    -234.1818544945697340 [Eh]
	-----------------------------------------------------------

  Dipole Moment: [D]
     X:     0.4842      Y:     0.0433      Z:     0.4050     Total:     0.6327

*** Psi4 exiting successfully. Buy a developer a beer!
