                               Psi4 1.4a3.dev225

  ==> Input File <==

--------------------------------------------------------------------------
#psi4
#
memory 32 gb

molecule  {
0 1
  C        1.0229019    -0.0148422     0.3488540
  C       -0.3376930    -0.0001380     1.0991850
  C        1.1895300     1.2600750    -0.4734900
  C        1.1896430    -1.2599310    -0.4737080
  C       -1.4806530    -0.0001100     0.1820590
  C       -2.4337550     0.0000760    -0.5817880
  H        1.7898900    -0.0000470     1.1539300
  H       -0.3990100    -0.8800950     1.7523450
  H       -0.3991040     0.8797040     1.7524870
  H        2.1752240     1.2782110    -0.9487550
  H        1.0912450     2.1632510     0.1376750
  H        0.4300030     1.2977920    -1.2600980
  H        2.1753400    -1.2779000    -0.9489720
  H        0.4301230    -1.2975720    -1.2603270
  H        1.0914300    -2.1632230     0.1372970
  H       -3.2625000     0.0001070    -1.2530880
units angstrom
no_reorient  #important for SAPT in psi4, default
symmetry c1  #important for SAPT in psi4, default
}

set PROPERTIES_ORIGIN ["COM"]
properties('MP2/aug-cc-pvtz', properties = ['dipole'])
--------------------------------------------------------------------------

    Molecular point group: c1
  Charge       = 0
  Multiplicity = 1
  Basis Set: AUG-CC-PVTZ
    Blend: AUG-CC-PVTZ
  Basis Set: (AUG-CC-PVTZ AUX)
    Blend: AUG-CC-PVTZ-JKFIT

    Orbital Energies [Eh]
    ---------------------

    Doubly Occupied:

       1A    -11.250539     2A    -11.237234     3A    -11.236692
       4A    -11.222903     5A    -11.211384     6A    -11.210811
       7A     -1.107886     8A     -1.022732     9A     -0.942167
      10A     -0.932229    11A     -0.784620    12A     -0.710571
      13A     -0.651196    14A     -0.614819    15A     -0.609222
      16A     -0.580537    17A     -0.539923    18A     -0.523793
      19A     -0.484946    20A     -0.477736    21A     -0.467804
      22A     -0.377702    23A     -0.376794

  @DF-RHF Final Energy:  -233.04860425429919

   => Energetics <=

    Nuclear Repulsion Energy =            222.8250698442211331
    One-Electron Energy =                -754.5988722740446519
    Two-Electron Energy =                 298.7251981755243264
    Total Energy =                       -233.0486042542991640
  Basis Set: (AUG-CC-PVTZ AUX)
    Blend: AUG-CC-PVTZ-RI
    Molecular point group: c1

    Geometry (in Angstrom), charge = 0, multiplicity = 1:

       Center              X                  Y                   Z               Mass
    ------------   -----------------  -----------------  -----------------  -----------------
         C            1.084277323444    -0.012670947382     0.343126940883    12.000000000000
         C           -0.276317576556     0.002033252618     1.093457940883    12.000000000000
         C            1.250905423444     1.262246252618    -0.479217059117    12.000000000000
         C            1.251018423444    -1.257759747382    -0.479435059117    12.000000000000
         C           -1.419277576556     0.002061252618     0.176331940883    12.000000000000
         C           -2.372379576556     0.002247252618    -0.587515059117    12.000000000000
         H            1.851265423444     0.002124252618     1.148202940883     1.007825032230
         H           -0.337634576556    -0.877923747382     1.746617940883     1.007825032230
         H           -0.337728576556     0.881875252618     1.746759940883     1.007825032230
         H            2.236599423444     1.280382252618    -0.954482059117     1.007825032230
         H            1.152620423444     2.165422252618     0.131947940883     1.007825032230
         H            0.491378423444     1.299963252618    -1.265825059117     1.007825032230
         H            2.236715423444    -1.275728747382    -0.954699059117     1.007825032230
         H            0.491498423444    -1.295400747382    -1.266054059117     1.007825032230
         H            1.152805423444    -2.161051747382     0.131569940883     1.007825032230
         H           -3.201124576556     0.002278252618    -1.258815059117     1.007825032230

  Basis Set: AUG-CC-PVTZ
    Blend: AUG-CC-PVTZ
  Basis Set: (AUG-CC-PVTZ AUX)
    Blend: AUG-CC-PVTZ-JKFIT
	 Reference Energy          =    -233.0486042542991925 [Eh]
	 Singles Energy            =      -0.0000000000000000 [Eh]
	 Same-Spin Energy          =      -0.2501088225027115 [Eh]
	 Opposite-Spin Energy      =      -0.8892964199049613 [Eh]
	 Correlation Energy        =      -1.1394052424076728 [Eh]
	 Total Energy              =    -234.1880094967068544 [Eh]

	 ================> DF-SCS-MP2 Energies <==================
	-----------------------------------------------------------
	 SCS Same-Spin Scale       =       0.3333333333333333 [-]
	 SCS Opposite-Spin Scale   =       1.2000000000000000 [-]
	 SCS Same-Spin Energy      =      -0.0833696075009038 [Eh]
	 SCS Opposite-Spin Energy  =      -1.0671557038859536 [Eh]
	 SCS Correlation Energy    =      -1.1505253113868574 [Eh]
	 SCS Total Energy          =    -234.1991295656860359 [Eh]
	-----------------------------------------------------------

  Dipole Moment: [D]
     X:     0.6606      Y:    -0.0111      Z:     0.3109     Total:     0.7302

*** Psi4 exiting successfully. Buy a developer a beer!
