                               Psi4 1.4a3.dev225

  ==> Input File <==

--------------------------------------------------------------------------
#psi4
#
memory 32 gb

molecule  {
0 1
  C        1.0191550    -0.0000090     0.3706600
  C       -0.3376930    -0.0001380     1.0991850
  C        1.1895300     1.2600750    -0.4734900
  C        1.1896430    -1.2599310    -0.4737080
  C       -1.4806530    -0.0001100     0.1820590
  C       -2.4337550     0.0000760    -0.5817880
  H        1.7898900    -0.0000470     1.1539300
  H       -0.3990100    -0.8800950     1.7523450
  H       -0.3991040     0.8797040     1.7524870
  H        2.1752240     1.2782110    -0.9487550
  H        1.0912450     2.1632510     0.1376750
  H        0.4300030     1.2977920    -1.2600980
  H        2.2654041    -1.2795418    -0.9923973
  H        0.4301230    -1.2975720    -1.2603270
  H        1.0914300    -2.1632230     0.1372970
  H       -3.2625000     0.0001070    -1.2530880
units angstrom
no_reorient  #important for SAPT in psi4, default
symmetry c1  #important for SAPT in psi4, default
}

set PROPERTIES_ORIGIN ["COM"]
properties('MP2/aug-cc-pvtz', properties = ['dipole'])
--------------------------------------------------------------------------

    Molecular point group: c1
  Charge       = 0
  Multiplicity = 1
  Basis Set: AUG-CC-PVTZ
    Blend: AUG-CC-PVTZ
  Basis Set: (AUG-CC-PVTZ AUX)
    Blend: AUG-CC-PVTZ-JKFIT

    Orbital Energies [Eh]
    ---------------------

    Doubly Occupied:

       1A    -11.251445     2A    -11.238312     3A    -11.236969
       4A    -11.224084     5A    -11.223367     6A    -11.211289
       7A     -1.107979     8A     -1.021519     9A     -0.942007
      10A     -0.925452    11A     -0.785719    12A     -0.711229
      13A     -0.650491    14A     -0.614583    15A     -0.606040
      16A     -0.579831    17A     -0.539894    18A     -0.514545
      19A     -0.478762    20A     -0.474673    21A     -0.472911
      22A     -0.378588    23A     -0.378477

  @DF-RHF Final Energy:  -233.04303569543882

   => Energetics <=

    Nuclear Repulsion Energy =            222.3381381550302933
    One-Electron Energy =                -753.6260209120224545
    Two-Electron Energy =                 298.2448470615534006
    Total Energy =                       -233.0430356954387889
  Basis Set: (AUG-CC-PVTZ AUX)
    Blend: AUG-CC-PVTZ-RI
    Molecular point group: c1

    Geometry (in Angstrom), charge = 0, multiplicity = 1:

       Center              X                  Y                   Z               Mass
    ------------   -----------------  -----------------  -----------------  -----------------
         C            1.079972345582     0.000013769284     0.362278073184    12.000000000000
         C           -0.276875654418    -0.000115230716     1.090803073184    12.000000000000
         C            1.250347345582     1.260097769284    -0.481871926816    12.000000000000
         C            1.250460345582    -1.259908230716    -0.482089926816    12.000000000000
         C           -1.419835654418    -0.000087230716     0.173677073184    12.000000000000
         C           -2.372937654418     0.000098769284    -0.590169926816    12.000000000000
         H            1.850707345582    -0.000024230716     1.145548073184     1.007825032230
         H           -0.338192654418    -0.880072230716     1.743963073184     1.007825032230
         H           -0.338286654418     0.879726769284     1.744105073184     1.007825032230
         H            2.236041345582     1.278233769284    -0.957136926816     1.007825032230
         H            1.152062345582     2.163273769284     0.129293073184     1.007825032230
         H            0.490820345582     1.297814769284    -1.268479926816     1.007825032230
         H            2.326221445582    -1.279519030716    -1.000779226816     1.007825032230
         H            0.490940345582    -1.297549230716    -1.268708926816     1.007825032230
         H            1.152247345582    -2.163200230716     0.128915073184     1.007825032230
         H           -3.201682654418     0.000129769284    -1.261469926816     1.007825032230

  Basis Set: AUG-CC-PVTZ
    Blend: AUG-CC-PVTZ
  Basis Set: (AUG-CC-PVTZ AUX)
    Blend: AUG-CC-PVTZ-JKFIT
	 Reference Energy          =    -233.0430356954388174 [Eh]
	 Singles Energy            =      -0.0000000000000000 [Eh]
	 Same-Spin Energy          =      -0.2499629839008353 [Eh]
	 Opposite-Spin Energy      =      -0.8899168345957011 [Eh]
	 Correlation Energy        =      -1.1398798184965364 [Eh]
	 Total Energy              =    -234.1829155139353418 [Eh]

	 ================> DF-SCS-MP2 Energies <==================
	-----------------------------------------------------------
	 SCS Same-Spin Scale       =       0.3333333333333333 [-]
	 SCS Opposite-Spin Scale   =       1.2000000000000000 [-]
	 SCS Same-Spin Energy      =      -0.0833209946336118 [Eh]
	 SCS Opposite-Spin Energy  =      -1.0679002015148413 [Eh]
	 SCS Correlation Energy    =      -1.1512211961484531 [Eh]
	 SCS Total Energy          =    -234.1942568915872585 [Eh]
	-----------------------------------------------------------

  Dipole Moment: [D]
     X:     0.5736      Y:     0.0198      Z:     0.3581     Total:     0.6765

*** Psi4 exiting successfully. Buy a developer a beer!
