                               Psi4 1.4a3.dev225

  ==> Input File <==

--------------------------------------------------------------------------
#psi4
#
memory 32 gb

molecule  {
0 1
  C        1.0191550    -0.0000090     0.3706600
  C       -0.3376930    -0.0001380     1.0991850
  C        1.1872974     1.2435628    -0.4624282
  C        1.1896430    -1.2599310    -0.4737080
  C       -1.4806530    -0.0001100     0.1820590
  C       -2.4337550     0.0000760    -0.5817880
  H        1.7898900    -0.0000470     1.1539300
  H       -0.3990100    -0.8800950     1.7523450
  H       -0.3991040     0.8797040     1.7524870
  H        2.1752240     1.2782110    -0.9487550
  H        1.0912450     2.1632510     0.1376750
  H        0.4300030     1.2977920    -1.2600980
  H        2.1753400    -1.2779000    -0.9489720
  H        0.4301230    -1.2975720    -1.2603270
  H        1.0914300    -2.1632230     0.1372970
  H       -3.2625000     0.0001070    -1.2530880
units angstrom
no_reorient  #important for SAPT in psi4, default
symmetry c1  #important for SAPT in psi4, default
}

set PROPERTIES_ORIGIN ["COM"]
properties('MP2/aug-cc-pvtz', properties = ['dipole'])
--------------------------------------------------------------------------

    Molecular point group: c1
  Charge       = 0
  Multiplicity = 1
  Basis Set: AUG-CC-PVTZ
    Blend: AUG-CC-PVTZ
  Basis Set: (AUG-CC-PVTZ AUX)
    Blend: AUG-CC-PVTZ-JKFIT

    Orbital Energies [Eh]
    ---------------------

    Doubly Occupied:

       1A    -11.250386     2A    -11.237654     3A    -11.234990
       4A    -11.223344     5A    -11.212162     6A    -11.211298
       7A     -1.109672     8A     -1.022557     9A     -0.942562
      10A     -0.929824    11A     -0.787235    12A     -0.710910
      13A     -0.651891    14A     -0.615954    15A     -0.609546
      16A     -0.578883    17A     -0.537926    18A     -0.521484
      19A     -0.484787    20A     -0.476034    21A     -0.470866
      22A     -0.377897    23A     -0.377841

  @DF-RHF Final Energy:  -233.04884289915785

   => Energetics <=

    Nuclear Repulsion Energy =            223.0222065885111249
    One-Electron Energy =                -754.9906952206936239
    Two-Electron Energy =                 298.9196457330245948
    Total Energy =                       -233.0488428991578758
  Basis Set: (AUG-CC-PVTZ AUX)
    Blend: AUG-CC-PVTZ-RI
    Molecular point group: c1

    Geometry (in Angstrom), charge = 0, multiplicity = 1:

       Center              X                  Y                   Z               Mass
    ------------   -----------------  -----------------  -----------------  -----------------
         C            1.081404637986     0.002407725687     0.360127604531    12.000000000000
         C           -0.275443362014     0.002278725687     1.088652604531    12.000000000000
         C            1.249547037986     1.245979525687    -0.472960595469    12.000000000000
         C            1.251892637986    -1.257514274313    -0.484240395469    12.000000000000
         C           -1.418403362014     0.002306725687     0.171526604531    12.000000000000
         C           -2.371505362014     0.002492725687    -0.592320395469    12.000000000000
         H            1.852139637986     0.002369725687     1.143397604531     1.007825032230
         H           -0.336760362014    -0.877678274313     1.741812604531     1.007825032230
         H           -0.336854362014     0.882120725687     1.741954604531     1.007825032230
         H            2.237473637986     1.280627725687    -0.959287395469     1.007825032230
         H            1.153494637986     2.165667725687     0.127142604531     1.007825032230
         H            0.492252637986     1.300208725687    -1.270630395469     1.007825032230
         H            2.237589637986    -1.275483274313    -0.959504395469     1.007825032230
         H            0.492372637986    -1.295155274313    -1.270859395469     1.007825032230
         H            1.153679637986    -2.160806274313     0.126764604531     1.007825032230
         H           -3.200250362014     0.002523725687    -1.263620395469     1.007825032230

  Basis Set: AUG-CC-PVTZ
    Blend: AUG-CC-PVTZ
  Basis Set: (AUG-CC-PVTZ AUX)
    Blend: AUG-CC-PVTZ-JKFIT
	 Reference Energy          =    -233.0488428991578473 [Eh]
	 Singles Energy            =      -0.0000000000000000 [Eh]
	 Same-Spin Energy          =      -0.2501499139487776 [Eh]
	 Opposite-Spin Energy      =      -0.8893757918605949 [Eh]
	 Correlation Energy        =      -1.1395257058093726 [Eh]
	 Total Energy              =    -234.1883686049672235 [Eh]

	 ================> DF-SCS-MP2 Energies <==================
	-----------------------------------------------------------
	 SCS Same-Spin Scale       =       0.3333333333333333 [-]
	 SCS Opposite-Spin Scale   =       1.2000000000000000 [-]
	 SCS Same-Spin Energy      =      -0.0833833046495925 [Eh]
	 SCS Opposite-Spin Energy  =      -1.0672509502327139 [Eh]
	 SCS Correlation Energy    =      -1.1506342548823063 [Eh]
	 SCS Total Energy          =    -234.1994771540401530 [Eh]
	-----------------------------------------------------------

  Dipole Moment: [D]
     X:     0.6480      Y:     0.0013      Z:     0.3162     Total:     0.7210

*** Psi4 exiting successfully. Buy a developer a beer!
