                               Psi4 1.4a3.dev225

  ==> Input File <==

--------------------------------------------------------------------------
#psi4
#
memory 32 gb

molecule  {
0 1
  C        1.0191550    -0.0000090     0.3706600
  C       -0.3376930    -0.0001380     1.0991850
  C        1.1895300     1.2600750    -0.4734900
  C        1.1896430    -1.2599310    -0.4737080
  C       -1.4806530    -0.0001100     0.1820590
  C       -2.4337550     0.0000760    -0.5817880
  H        1.7898900    -0.0000470     1.1539300
  H       -0.3990100    -0.8800950     1.7523450
  H       -0.3991040     0.8797040     1.7524870
  H        2.1752240     1.2782110    -0.9487550
  H        1.0912450     2.1632510     0.1376750
  H        0.4300030     1.2977920    -1.2600980
  H        2.1753400    -1.2779000    -0.9489720
  H        0.3954132    -1.2992922    -1.2962752
  H        1.0914300    -2.1632230     0.1372970
  H       -3.2625000     0.0001070    -1.2530880
units angstrom
no_reorient  #important for SAPT in psi4, default
symmetry c1  #important for SAPT in psi4, default
}

set PROPERTIES_ORIGIN ["COM"]
properties('MP2/aug-cc-pvtz', properties = ['dipole'])
--------------------------------------------------------------------------

    Molecular point group: c1
  Charge       = 0
  Multiplicity = 1
  Basis Set: AUG-CC-PVTZ
    Blend: AUG-CC-PVTZ
  Basis Set: (AUG-CC-PVTZ AUX)
    Blend: AUG-CC-PVTZ-JKFIT

    Orbital Energies [Eh]
    ---------------------

    Doubly Occupied:

       1A    -11.250448     2A    -11.237549     3A    -11.236431
       4A    -11.223160     5A    -11.217098     6A    -11.211308
       7A     -1.107463     8A     -1.021372     9A     -0.941966
      10A     -0.927515    11A     -0.785726    12A     -0.710583
      13A     -0.650895    14A     -0.615295    15A     -0.608502
      16A     -0.578468    17A     -0.533833    18A     -0.522984
      19A     -0.484558    20A     -0.473945    21A     -0.470281
      22A     -0.377757    23A     -0.377574

  @DF-RHF Final Energy:  -233.04734886040038

   => Energetics <=

    Nuclear Repulsion Energy =            222.5638233810739166
    One-Electron Energy =                -754.0929223564791073
    Two-Electron Energy =                 298.4817501150048429
    Total Energy =                       -233.0473488604003478
  Basis Set: (AUG-CC-PVTZ AUX)
    Blend: AUG-CC-PVTZ-RI
    Molecular point group: c1

    Geometry (in Angstrom), charge = 0, multiplicity = 1:

       Center              X                  Y                   Z               Mass
    ------------   -----------------  -----------------  -----------------  -----------------
         C            1.081504423316     0.000014731945     0.362186263130    12.000000000000
         C           -0.275343576684    -0.000114268055     1.090711263130    12.000000000000
         C            1.251879423316     1.260098731945    -0.481963736870    12.000000000000
         C            1.251992423316    -1.259907268055    -0.482181736870    12.000000000000
         C           -1.418303576684    -0.000086268055     0.173585263130    12.000000000000
         C           -2.371405576684     0.000099731945    -0.590261736870    12.000000000000
         H            1.852239423316    -0.000023268055     1.145456263130     1.007825032230
         H           -0.336660576684    -0.880071268055     1.743871263130     1.007825032230
         H           -0.336754576684     0.879727731945     1.744013263130     1.007825032230
         H            2.237573423316     1.278234731945    -0.957228736870     1.007825032230
         H            1.153594423316     2.163274731945     0.129201263130     1.007825032230
         H            0.492352423316     1.297815731945    -1.268571736870     1.007825032230
         H            2.237689423316    -1.277876268055    -0.957445736870     1.007825032230
         H            0.457762623316    -1.299268468055    -1.304748936870     1.007825032230
         H            1.153779423316    -2.163199268055     0.128823263130     1.007825032230
         H           -3.200150576684     0.000130731945    -1.261561736870     1.007825032230

  Basis Set: AUG-CC-PVTZ
    Blend: AUG-CC-PVTZ
  Basis Set: (AUG-CC-PVTZ AUX)
    Blend: AUG-CC-PVTZ-JKFIT
	 Reference Energy          =    -233.0473488604003762 [Eh]
	 Singles Energy            =      -0.0000000000000000 [Eh]
	 Same-Spin Energy          =      -0.2500337602110143 [Eh]
	 Opposite-Spin Energy      =      -0.8895948401021031 [Eh]
	 Correlation Energy        =      -1.1396286003131173 [Eh]
	 Total Energy              =    -234.1869774607135071 [Eh]

	 ================> DF-SCS-MP2 Energies <==================
	-----------------------------------------------------------
	 SCS Same-Spin Scale       =       0.3333333333333333 [-]
	 SCS Opposite-Spin Scale   =       1.2000000000000000 [-]
	 SCS Same-Spin Energy      =      -0.0833445867370047 [Eh]
	 SCS Opposite-Spin Energy  =      -1.0675138081225237 [Eh]
	 SCS Correlation Energy    =      -1.1508583948595286 [Eh]
	 SCS Total Energy          =    -234.1982072552599163 [Eh]
	-----------------------------------------------------------

  Dipole Moment: [D]
     X:     0.6616      Y:     0.0070      Z:     0.3401     Total:     0.7439

*** Psi4 exiting successfully. Buy a developer a beer!
