                               Psi4 1.4a3.dev225

  ==> Input File <==

--------------------------------------------------------------------------
#psi4
#
memory 32 gb

molecule  {
0 1
  C        1.0191550    -0.0000090     0.3706600
  C       -0.5139001    -0.0001548     1.1937949
  C        1.1895300     1.2600750    -0.4734900
  C        1.1896430    -1.2599310    -0.4737080
  C       -1.4806530    -0.0001100     0.1820590
  C       -2.4337550     0.0000760    -0.5817880
  H        1.7898900    -0.0000470     1.1539300
  H       -0.3990100    -0.8800950     1.7523450
  H       -0.3991040     0.8797040     1.7524870
  H        2.1752240     1.2782110    -0.9487550
  H        1.0912450     2.1632510     0.1376750
  H        0.4300030     1.2977920    -1.2600980
  H        2.1753400    -1.2779000    -0.9489720
  H        0.4301230    -1.2975720    -1.2603270
  H        1.0914300    -2.1632230     0.1372970
  H       -3.2625000     0.0001070    -1.2530880
units angstrom
no_reorient  #important for SAPT in psi4, default
symmetry c1  #important for SAPT in psi4, default
}

set PROPERTIES_ORIGIN ["COM"]
properties('MP2/aug-cc-pvtz', properties = ['dipole'])
--------------------------------------------------------------------------

    Molecular point group: c1
  Charge       = 0
  Multiplicity = 1
  Basis Set: AUG-CC-PVTZ
    Blend: AUG-CC-PVTZ
  Basis Set: (AUG-CC-PVTZ AUX)
    Blend: AUG-CC-PVTZ-JKFIT

    Orbital Energies [Eh]
    ---------------------

    Doubly Occupied:

       1A    -11.246251     2A    -11.243151     3A    -11.235734
       4A    -11.223277     5A    -11.211741     6A    -11.211725
       7A     -1.094638     8A     -1.027918     9A     -0.944966
      10A     -0.928579    11A     -0.779732    12A     -0.715834
      13A     -0.652988    14A     -0.628449    15A     -0.607803
      16A     -0.587544    17A     -0.543261    18A     -0.529854
      19A     -0.476375    20A     -0.475306    21A     -0.458922
      22A     -0.380210    23A     -0.355751

  @DF-RHF Final Energy:  -233.02249379718970

   => Energetics <=

    Nuclear Repulsion Energy =            221.0722095138465306
    One-Electron Energy =                -751.0693870017018980
    Two-Electron Energy =                 296.9746836906657563
    Total Energy =                       -233.0224937971896679
  Basis Set: (AUG-CC-PVTZ AUX)
    Blend: AUG-CC-PVTZ-RI
    Molecular point group: c1

    Geometry (in Angstrom), charge = 0, multiplicity = 1:

       Center              X                  Y                   Z               Mass
    ------------   -----------------  -----------------  -----------------  -----------------
         C            1.106840048607    -0.000003933909     0.347912709647    12.000000000000
         C           -0.426215051393    -0.000149733909     1.171047609647    12.000000000000
         C            1.277215048607     1.260080066091    -0.496237290353    12.000000000000
         C            1.277328048607    -1.259925933909    -0.496455290353    12.000000000000
         C           -1.392967951393    -0.000104933909     0.159311709647    12.000000000000
         C           -2.346069951393     0.000081066091    -0.604535290353    12.000000000000
         H            1.877575048607    -0.000041933909     1.131182709647     1.007825032230
         H           -0.311324951393    -0.880089933909     1.729597709647     1.007825032230
         H           -0.311418951393     0.879709066091     1.729739709647     1.007825032230
         H            2.262909048607     1.278216066091    -0.971502290353     1.007825032230
         H            1.178930048607     2.163256066091     0.114927709647     1.007825032230
         H            0.517688048607     1.297797066091    -1.282845290353     1.007825032230
         H            2.263025048607    -1.277894933909    -0.971719290353     1.007825032230
         H            0.517808048607    -1.297566933909    -1.283074290353     1.007825032230
         H            1.179115048607    -2.163217933909     0.114549709647     1.007825032230
         H           -3.174814951393     0.000112066091    -1.275835290353     1.007825032230

  Basis Set: AUG-CC-PVTZ
    Blend: AUG-CC-PVTZ
  Basis Set: (AUG-CC-PVTZ AUX)
    Blend: AUG-CC-PVTZ-JKFIT
	 Reference Energy          =    -233.0224937971896964 [Eh]
	 Singles Energy            =      -0.0000000000000000 [Eh]
	 Same-Spin Energy          =      -0.2513543937188119 [Eh]
	 Opposite-Spin Energy      =      -0.8918497582920083 [Eh]
	 Correlation Energy        =      -1.1432041520108203 [Eh]
	 Total Energy              =    -234.1656979492005064 [Eh]

	 ================> DF-SCS-MP2 Energies <==================
	-----------------------------------------------------------
	 SCS Same-Spin Scale       =       0.3333333333333333 [-]
	 SCS Opposite-Spin Scale   =       1.2000000000000000 [-]
	 SCS Same-Spin Energy      =      -0.0837847979062706 [Eh]
	 SCS Opposite-Spin Energy  =      -1.0702197099504098 [Eh]
	 SCS Correlation Energy    =      -1.1540045078566805 [Eh]
	 SCS Total Energy          =    -234.1764983050463798 [Eh]
	-----------------------------------------------------------

  Dipole Moment: [D]
     X:     0.6791      Y:    -0.0000      Z:     0.3218     Total:     0.7515

*** Psi4 exiting successfully. Buy a developer a beer!
