                               Psi4 1.4a3.dev225

  ==> Input File <==

--------------------------------------------------------------------------
#psi4
#
memory 32 gb

molecule  {
0 1
  C        1.0191550    -0.0000090     0.3706600
  C       -0.3376930    -0.0001380     1.0991850
  C        1.1895300     1.2600750    -0.4734900
  C        1.1896430    -1.2599310    -0.4737080
  C       -1.4026580    -0.0001119     0.2446432
  C       -2.4337550     0.0000760    -0.5817880
  H        1.7898900    -0.0000470     1.1539300
  H       -0.3990100    -0.8800950     1.7523450
  H       -0.3991040     0.8797040     1.7524870
  H        2.1752240     1.2782110    -0.9487550
  H        1.0912450     2.1632510     0.1376750
  H        0.4300030     1.2977920    -1.2600980
  H        2.1753400    -1.2779000    -0.9489720
  H        0.4301230    -1.2975720    -1.2603270
  H        1.0914300    -2.1632230     0.1372970
  H       -3.2625000     0.0001070    -1.2530880
units angstrom
no_reorient  #important for SAPT in psi4, default
symmetry c1  #important for SAPT in psi4, default
}

set PROPERTIES_ORIGIN ["COM"]
properties('MP2/aug-cc-pvtz', properties = ['dipole'])
--------------------------------------------------------------------------

    Molecular point group: c1
  Charge       = 0
  Multiplicity = 1
  Basis Set: AUG-CC-PVTZ
    Blend: AUG-CC-PVTZ
  Basis Set: (AUG-CC-PVTZ AUX)
    Blend: AUG-CC-PVTZ-JKFIT

    Orbital Energies [Eh]
    ---------------------

    Doubly Occupied:

       1A    -11.262492     2A    -11.250130     3A    -11.244366
       4A    -11.238481     5A    -11.212275     6A    -11.212258
       7A     -1.122438     8A     -1.020237     9A     -0.932224
      10A     -0.931337    11A     -0.797114    12A     -0.713391
      13A     -0.656992    14A     -0.624198    15A     -0.618244
      16A     -0.585175    17A     -0.540974    18A     -0.526123
      19A     -0.489809    20A     -0.475537    21A     -0.474230
      22A     -0.353308    23A     -0.353217

  @DF-RHF Final Energy:  -233.01087460406953

   => Energetics <=

    Nuclear Repulsion Energy =            223.1699793532496301
    One-Electron Energy =                -755.0926086574360170
    Two-Electron Energy =                 298.9117547001167736
    Total Energy =                       -233.0108746040695564
  Basis Set: (AUG-CC-PVTZ AUX)
    Blend: AUG-CC-PVTZ-RI
    Molecular point group: c1

    Geometry (in Angstrom), charge = 0, multiplicity = 1:

       Center              X                  Y                   Z               Mass
    ------------   -----------------  -----------------  -----------------  -----------------
         C            1.069675206666    -0.000006112318     0.352594929339    12.000000000000
         C           -0.287172793334    -0.000135112318     1.081119929339    12.000000000000
         C            1.240050206666     1.260077887682    -0.491555070661    12.000000000000
         C            1.240163206666    -1.259928112318    -0.491773070661    12.000000000000
         C           -1.352137793334    -0.000109012318     0.226578129339    12.000000000000
         C           -2.383234793334     0.000078887682    -0.599853070661    12.000000000000
         H            1.840410206666    -0.000044112318     1.135864929339     1.007825032230
         H           -0.348489793334    -0.880092112318     1.734279929339     1.007825032230
         H           -0.348583793334     0.879706887682     1.734421929339     1.007825032230
         H            2.225744206666     1.278213887682    -0.966820070661     1.007825032230
         H            1.141765206666     2.163253887682     0.119609929339     1.007825032230
         H            0.480523206666     1.297794887682    -1.278163070661     1.007825032230
         H            2.225860206666    -1.277897112318    -0.967037070661     1.007825032230
         H            0.480643206666    -1.297569112318    -1.278392070661     1.007825032230
         H            1.141950206666    -2.163220112318     0.119231929339     1.007825032230
         H           -3.211979793334     0.000109887682    -1.271153070661     1.007825032230

  Basis Set: AUG-CC-PVTZ
    Blend: AUG-CC-PVTZ
  Basis Set: (AUG-CC-PVTZ AUX)
    Blend: AUG-CC-PVTZ-JKFIT
	 Reference Energy          =    -233.0108746040695280 [Eh]
	 Singles Energy            =      -0.0000000000000000 [Eh]
	 Same-Spin Energy          =      -0.2560811150058676 [Eh]
	 Opposite-Spin Energy      =      -0.9000456320859929 [Eh]
	 Correlation Energy        =      -1.1561267470918604 [Eh]
	 Total Energy              =    -234.1670013511613888 [Eh]

	 ================> DF-SCS-MP2 Energies <==================
	-----------------------------------------------------------
	 SCS Same-Spin Scale       =       0.3333333333333333 [-]
	 SCS Opposite-Spin Scale   =       1.2000000000000000 [-]
	 SCS Same-Spin Energy      =      -0.0853603716686225 [Eh]
	 SCS Opposite-Spin Energy  =      -1.0800547585031914 [Eh]
	 SCS Correlation Energy    =      -1.1654151301718139 [Eh]
	 SCS Total Energy          =    -234.1762897342413510 [Eh]
	-----------------------------------------------------------

  Dipole Moment: [D]
     X:     0.7570      Y:    -0.0000      Z:     0.3822     Total:     0.8480

*** Psi4 exiting successfully. Buy a developer a beer!
