                               Psi4 1.4a3.dev225

  ==> Input File <==

--------------------------------------------------------------------------
#psi4
#
memory 32 gb

molecule  {
0 1
  C        1.0191550    -0.0000090     0.3706600
  C       -0.3376930    -0.0001380     1.0991850
  C        1.1895300     1.2600750    -0.4734900
  C        1.1896430    -1.2599310    -0.4737080
  C       -1.4806530    -0.0001100     0.1820590
  C       -2.4337550     0.0000760    -0.5817880
  H        1.7898900    -0.0000470     1.1539300
  H       -0.3990100    -0.8800950     1.7523450
  H       -0.3991040     0.8797040     1.7524870
  H        2.1752240     1.2782110    -0.9487550
  H        1.0912450     2.1632510     0.1376750
  H        0.4300030     1.2977920    -1.2600980
  H        2.0852759    -1.2762582    -0.9055467
  H        0.4301230    -1.2975720    -1.2603270
  H        1.0914300    -2.1632230     0.1372970
  H       -3.2625000     0.0001070    -1.2530880
units angstrom
no_reorient  #important for SAPT in psi4, default
symmetry c1  #important for SAPT in psi4, default
}

set PROPERTIES_ORIGIN ["COM"]
properties('MP2/aug-cc-pvtz', properties = ['dipole'])
--------------------------------------------------------------------------

    Molecular point group: c1
  Charge       = 0
  Multiplicity = 1
  Basis Set: AUG-CC-PVTZ
    Blend: AUG-CC-PVTZ
  Basis Set: (AUG-CC-PVTZ AUX)
    Blend: AUG-CC-PVTZ-JKFIT

    Orbital Energies [Eh]
    ---------------------

    Doubly Occupied:

       1A    -11.249441     2A    -11.237126     3A    -11.234970
       4A    -11.222750     5A    -11.211223     6A    -11.198542
       7A     -1.108004     8A     -1.022656     9A     -0.945268
      10A     -0.934803    11A     -0.789666    12A     -0.710544
      13A     -0.652877    14A     -0.619310    15A     -0.610451
      16A     -0.578511    17A     -0.539563    18A     -0.531866
      19A     -0.487480    20A     -0.472591    21A     -0.472101
      22A     -0.377358    23A     -0.377281

  @DF-RHF Final Energy:  -233.04343526216786

   => Energetics <=

    Nuclear Repulsion Energy =            223.2040544467667189
    One-Electron Energy =                -755.3262143636488872
    Two-Electron Energy =                 299.0787246547143354
    Total Energy =                       -233.0434352621678613
  Basis Set: (AUG-CC-PVTZ AUX)
    Blend: AUG-CC-PVTZ-RI
    Molecular point group: c1

    Geometry (in Angstrom), charge = 0, multiplicity = 1:

       Center              X                  Y                   Z               Mass
    ------------   -----------------  -----------------  -----------------  -----------------
         C            1.082184109456    -0.000026549488     0.361211649272    12.000000000000
         C           -0.274663890544    -0.000155549488     1.089736649272    12.000000000000
         C            1.252559109456     1.260057450512    -0.482938350728    12.000000000000
         C            1.252672109456    -1.259948549488    -0.483156350728    12.000000000000
         C           -1.417623890544    -0.000127549488     0.172610649272    12.000000000000
         C           -2.370725890544     0.000058450512    -0.591236350728    12.000000000000
         H            1.852919109456    -0.000064549488     1.144481649272     1.007825032230
         H           -0.335980890544    -0.880112549488     1.742896649272     1.007825032230
         H           -0.336074890544     0.879686450512     1.743038649272     1.007825032230
         H            2.238253109456     1.278193450512    -0.958203350728     1.007825032230
         H            1.154274109456     2.163233450512     0.128226649272     1.007825032230
         H            0.493032109456     1.297774450512    -1.269546350728     1.007825032230
         H            2.148305009456    -1.276275749488    -0.914995050728     1.007825032230
         H            0.493152109456    -1.297589549488    -1.269775350728     1.007825032230
         H            1.154459109456    -2.163240549488     0.127848649272     1.007825032230
         H           -3.199470890544     0.000089450512    -1.262536350728     1.007825032230

  Basis Set: AUG-CC-PVTZ
    Blend: AUG-CC-PVTZ
  Basis Set: (AUG-CC-PVTZ AUX)
    Blend: AUG-CC-PVTZ-JKFIT
	 Reference Energy          =    -233.0434352621678613 [Eh]
	 Singles Energy            =      -0.0000000000000000 [Eh]
	 Same-Spin Energy          =      -0.2500218996944012 [Eh]
	 Opposite-Spin Energy      =      -0.8887362276620132 [Eh]
	 Correlation Energy        =      -1.1387581273564145 [Eh]
	 Total Energy              =    -234.1821933895242864 [Eh]

	 ================> DF-SCS-MP2 Energies <==================
	-----------------------------------------------------------
	 SCS Same-Spin Scale       =       0.3333333333333333 [-]
	 SCS Opposite-Spin Scale   =       1.2000000000000000 [-]
	 SCS Same-Spin Energy      =      -0.0833406332314671 [Eh]
	 SCS Opposite-Spin Energy  =      -1.0664834731944157 [Eh]
	 SCS Correlation Energy    =      -1.1498241064258827 [Eh]
	 SCS Total Energy          =    -234.1932593685937434 [Eh]
	-----------------------------------------------------------

  Dipole Moment: [D]
     X:     0.7071      Y:    -0.0160      Z:     0.2875     Total:     0.7634

*** Psi4 exiting successfully. Buy a developer a beer!
