                               Psi4 1.4a3.dev225

  ==> Input File <==

--------------------------------------------------------------------------
#psi4
#
memory 32 gb

molecule  {
0 1
  C        1.0191550    -0.0000090     0.3706600
  C       -0.3376930    -0.0001380     1.0991850
  C        1.1895300     1.2600750    -0.4734900
  C        1.1896430    -1.2599310    -0.4737080
  C       -1.4806530    -0.0001100     0.1820590
  C       -2.4337550     0.0000760    -0.5817880
  H        1.7898900    -0.0000470     1.1539300
  H       -0.3990100    -0.8800950     1.7523450
  H       -0.3991040     0.8797040     1.7524870
  H        2.1752240     1.2782110    -0.9487550
  H        1.0912450     2.1632510     0.1376750
  H        0.4300030     1.2977920    -1.2600980
  H        1.9952118    -1.2746163    -0.8621213
  H        0.4301230    -1.2975720    -1.2603270
  H        1.0914300    -2.1632230     0.1372970
  H       -3.2625000     0.0001070    -1.2530880
units angstrom
no_reorient  #important for SAPT in psi4, default
symmetry c1  #important for SAPT in psi4, default
}

set PROPERTIES_ORIGIN ["COM"]
properties('MP2/aug-cc-pvtz', properties = ['dipole'])
--------------------------------------------------------------------------

    Molecular point group: c1
  Charge       = 0
  Multiplicity = 1
  Basis Set: AUG-CC-PVTZ
    Blend: AUG-CC-PVTZ
  Basis Set: (AUG-CC-PVTZ AUX)
    Blend: AUG-CC-PVTZ-JKFIT

    Orbital Energies [Eh]
    ---------------------

    Doubly Occupied:

       1A    -11.248807     2A    -11.236745     3A    -11.234351
       4A    -11.222320     5A    -11.211269     6A    -11.185965
       7A     -1.109058     8A     -1.024625     9A     -0.953500
      10A     -0.937119    11A     -0.792890    12A     -0.710594
      13A     -0.656464    14A     -0.624896    15A     -0.610592
      16A     -0.578228    17A     -0.544042    18A     -0.535653
      19A     -0.489207    20A     -0.472152    21A     -0.471580
      22A     -0.377008    23A     -0.376865

  @DF-RHF Final Energy:  -233.01557383063704

   => Energetics <=

    Nuclear Repulsion Energy =            223.7346511311335178
    One-Electron Energy =                -756.2925878701211104
    Two-Electron Energy =                 299.5423629083505261
    Total Energy =                       -233.0155738306370381
  Basis Set: (AUG-CC-PVTZ AUX)
    Blend: AUG-CC-PVTZ-RI
    Molecular point group: c1

    Geometry (in Angstrom), charge = 0, multiplicity = 1:

       Center              X                  Y                   Z               Mass
    ------------   -----------------  -----------------  -----------------  -----------------
         C            1.083289991394    -0.000046710102     0.360678436089    12.000000000000
         C           -0.273558008606    -0.000175710102     1.089203436089    12.000000000000
         C            1.253664991394     1.260037289898    -0.483471563911    12.000000000000
         C            1.253777991394    -1.259968710102    -0.483689563911    12.000000000000
         C           -1.416518008606    -0.000147710102     0.172077436089    12.000000000000
         C           -2.369620008606     0.000038289898    -0.591769563911    12.000000000000
         H            1.854024991394    -0.000084710102     1.143948436089     1.007825032230
         H           -0.334875008606    -0.880132710102     1.742363436089     1.007825032230
         H           -0.334969008606     0.879666289898     1.742505436089     1.007825032230
         H            2.239358991394     1.278173289898    -0.958736563911     1.007825032230
         H            1.155379991394     2.163213289898     0.127693436089     1.007825032230
         H            0.494137991394     1.297754289898    -1.270079563911     1.007825032230
         H            2.059346791394    -1.274654010102    -0.872102863911     1.007825032230
         H            0.494257991394    -1.297609710102    -1.270308563911     1.007825032230
         H            1.155564991394    -2.163260710102     0.127315436089     1.007825032230
         H           -3.198365008606     0.000069289898    -1.263069563911     1.007825032230

  Basis Set: AUG-CC-PVTZ
    Blend: AUG-CC-PVTZ
  Basis Set: (AUG-CC-PVTZ AUX)
    Blend: AUG-CC-PVTZ-JKFIT
	 Reference Energy          =    -233.0155738306370381 [Eh]
	 Singles Energy            =      -0.0000000000000000 [Eh]
	 Same-Spin Energy          =      -0.2501151105150691 [Eh]
	 Opposite-Spin Energy      =      -0.8886188933897323 [Eh]
	 Correlation Energy        =      -1.1387340039048013 [Eh]
	 Total Energy              =    -234.1543078345418394 [Eh]

	 ================> DF-SCS-MP2 Energies <==================
	-----------------------------------------------------------
	 SCS Same-Spin Scale       =       0.3333333333333333 [-]
	 SCS Opposite-Spin Scale   =       1.2000000000000000 [-]
	 SCS Same-Spin Energy      =      -0.0833717035050230 [Eh]
	 SCS Opposite-Spin Energy  =      -1.0663426720676787 [Eh]
	 SCS Correlation Energy    =      -1.1497143755727017 [Eh]
	 SCS Total Energy          =    -234.1652882062097376 [Eh]
	-----------------------------------------------------------

  Dipole Moment: [D]
     X:     0.7488      Y:    -0.0284      Z:     0.2646     Total:     0.7947

*** Psi4 exiting successfully. Buy a developer a beer!
