                               Psi4 1.4a3.dev225

  ==> Input File <==

--------------------------------------------------------------------------
#psi4
#
memory 32 gb

molecule  {
0 1
  C        1.0191550    -0.0000090     0.3706600
  C       -0.3376930    -0.0001380     1.0991850
  C        1.1895300     1.2600750    -0.4734900
  C        1.1896430    -1.2599310    -0.4737080
  C       -1.4806530    -0.0001100     0.1820590
  C       -2.4337550     0.0000760    -0.5817880
  H        1.9301661    -0.0000539     1.2964875
  H       -0.3990100    -0.8800950     1.7523450
  H       -0.3991040     0.8797040     1.7524870
  H        2.1752240     1.2782110    -0.9487550
  H        1.0912450     2.1632510     0.1376750
  H        0.4300030     1.2977920    -1.2600980
  H        2.1753400    -1.2779000    -0.9489720
  H        0.4301230    -1.2975720    -1.2603270
  H        1.0914300    -2.1632230     0.1372970
  H       -3.2625000     0.0001070    -1.2530880
units angstrom
no_reorient  #important for SAPT in psi4, default
symmetry c1  #important for SAPT in psi4, default
}

set PROPERTIES_ORIGIN ["COM"]
properties('MP2/aug-cc-pvtz', properties = ['dipole'])
--------------------------------------------------------------------------

    Molecular point group: c1
  Charge       = 0
  Multiplicity = 1
  Basis Set: AUG-CC-PVTZ
    Blend: AUG-CC-PVTZ
  Basis Set: (AUG-CC-PVTZ AUX)
    Blend: AUG-CC-PVTZ-JKFIT

    Orbital Energies [Eh]
    ---------------------

    Doubly Occupied:

       1A    -11.259721     2A    -11.252562     3A    -11.239349
       4A    -11.225284     5A    -11.213860     6A    -11.213845
       7A     -1.105759     8A     -1.021722     9A     -0.944221
      10A     -0.932199    11A     -0.770337    12A     -0.711387
      13A     -0.646071    14A     -0.617031    15A     -0.608941
      16A     -0.577470    17A     -0.540814    18A     -0.524788
      19A     -0.487057    20A     -0.476734    21A     -0.446626
      22A     -0.379786    23A     -0.379469

  @DF-RHF Final Energy:  -233.03001996423578

   => Energetics <=

    Nuclear Repulsion Energy =            221.8611043317052349
    One-Electron Energy =                -752.6321821303101842
    Two-Electron Energy =                 297.7410578343691441
    Total Energy =                       -233.0300199642357484
  Basis Set: (AUG-CC-PVTZ AUX)
    Blend: AUG-CC-PVTZ-RI
    Molecular point group: c1

    Geometry (in Angstrom), charge = 0, multiplicity = 1:

       Center              X                  Y                   Z               Mass
    ------------   -----------------  -----------------  -----------------  -----------------
         C            1.079355800878    -0.000006305378     0.359994421660    12.000000000000
         C           -0.277492199122    -0.000135305378     1.088519421660    12.000000000000
         C            1.249730800878     1.260077694622    -0.484155578340    12.000000000000
         C            1.249843800878    -1.259928305378    -0.484373578340    12.000000000000
         C           -1.420452199122    -0.000107305378     0.171393421660    12.000000000000
         C           -2.373554199122     0.000078694622    -0.592453578340    12.000000000000
         H            1.990366900878    -0.000051205378     1.285821921660     1.007825032230
         H           -0.338809199122    -0.880092305378     1.741679421660     1.007825032230
         H           -0.338903199122     0.879706694622     1.741821421660     1.007825032230
         H            2.235424800878     1.278213694622    -0.959420578340     1.007825032230
         H            1.151445800878     2.163253694622     0.127009421660     1.007825032230
         H            0.490203800878     1.297794694622    -1.270763578340     1.007825032230
         H            2.235540800878    -1.277897305378    -0.959637578340     1.007825032230
         H            0.490323800878    -1.297569305378    -1.270992578340     1.007825032230
         H            1.151630800878    -2.163220305378     0.126631421660     1.007825032230
         H           -3.202299199122     0.000109694622    -1.263753578340     1.007825032230

  Basis Set: AUG-CC-PVTZ
    Blend: AUG-CC-PVTZ
  Basis Set: (AUG-CC-PVTZ AUX)
    Blend: AUG-CC-PVTZ-JKFIT
	 Reference Energy          =    -233.0300199642357768 [Eh]
	 Singles Energy            =      -0.0000000000000000 [Eh]
	 Same-Spin Energy          =      -0.2500361028104315 [Eh]
	 Opposite-Spin Energy      =      -0.8908741327957649 [Eh]
	 Correlation Energy        =      -1.1409102356061964 [Eh]
	 Total Energy              =    -234.1709301998419619 [Eh]

	 ================> DF-SCS-MP2 Energies <==================
	-----------------------------------------------------------
	 SCS Same-Spin Scale       =       0.3333333333333333 [-]
	 SCS Opposite-Spin Scale   =       1.2000000000000000 [-]
	 SCS Same-Spin Energy      =      -0.0833453676034772 [Eh]
	 SCS Opposite-Spin Energy  =      -1.0690489593549177 [Eh]
	 SCS Correlation Energy    =      -1.1523943269583949 [Eh]
	 SCS Total Energy          =    -234.1824142911941635 [Eh]
	-----------------------------------------------------------

  Dipole Moment: [D]
     X:     0.4949      Y:     0.0000      Z:     0.1590     Total:     0.5198

*** Psi4 exiting successfully. Buy a developer a beer!
