                               Psi4 1.4a3.dev225

  ==> Input File <==

--------------------------------------------------------------------------
#psi4
#
memory 32 gb

molecule  {
0 1
  C        1.0191550    -0.0000090     0.3706600
  C       -0.3376930    -0.0001380     1.0991850
  C        1.1951115     1.3013555    -0.5011444
  C        1.1896430    -1.2599310    -0.4737080
  C       -1.4806530    -0.0001100     0.1820590
  C       -2.4337550     0.0000760    -0.5817880
  H        1.7898900    -0.0000470     1.1539300
  H       -0.3990100    -0.8800950     1.7523450
  H       -0.3991040     0.8797040     1.7524870
  H        2.1752240     1.2782110    -0.9487550
  H        1.0912450     2.1632510     0.1376750
  H        0.4300030     1.2977920    -1.2600980
  H        2.1753400    -1.2779000    -0.9489720
  H        0.4301230    -1.2975720    -1.2603270
  H        1.0914300    -2.1632230     0.1372970
  H       -3.2625000     0.0001070    -1.2530880
units angstrom
no_reorient  #important for SAPT in psi4, default
symmetry c1  #important for SAPT in psi4, default
}

set PROPERTIES_ORIGIN ["COM"]
properties('MP2/aug-cc-pvtz', properties = ['dipole'])
--------------------------------------------------------------------------

    Molecular point group: c1
  Charge       = 0
  Multiplicity = 1
  Basis Set: AUG-CC-PVTZ
    Blend: AUG-CC-PVTZ
  Basis Set: (AUG-CC-PVTZ AUX)
    Blend: AUG-CC-PVTZ-JKFIT

    Orbital Energies [Eh]
    ---------------------

    Doubly Occupied:

       1A    -11.250231     2A    -11.237826     3A    -11.237653
       4A    -11.223344     5A    -11.211119     6A    -11.209384
       7A     -1.103478     8A     -1.019875     9A     -0.942155
      10A     -0.930596    11A     -0.787200    12A     -0.710450
      13A     -0.649372    14A     -0.614254    15A     -0.608300
      16A     -0.580001    17A     -0.542832    18A     -0.527885
      19A     -0.486354    20A     -0.476867    21A     -0.461345
      22A     -0.377886    23A     -0.377707

  @DF-RHF Final Energy:  -233.04788740321970

   => Energetics <=

    Nuclear Repulsion Energy =            222.0637245350848730
    One-Electron Energy =                -753.0909955141632963
    Two-Electron Energy =                 297.9793835758586624
    Total Energy =                       -233.0478874032197041
  Basis Set: (AUG-CC-PVTZ AUX)
    Blend: AUG-CC-PVTZ-RI
    Molecular point group: c1

    Geometry (in Angstrom), charge = 0, multiplicity = 1:

       Center              X                  Y                   Z               Mass
    ------------   -----------------  -----------------  -----------------  -----------------
         C            1.080262201352    -0.006041679573     0.365787988350    12.000000000000
         C           -0.276585798648    -0.006170679573     1.094312988350    12.000000000000
         C            1.256218701352     1.295322820427    -0.506016411650    12.000000000000
         C            1.250750201352    -1.265963679573    -0.478580011650    12.000000000000
         C           -1.419545798648    -0.006142679573     0.177186988350    12.000000000000
         C           -2.372647798648    -0.005956679573    -0.586660011650    12.000000000000
         H            1.850997201352    -0.006079679573     1.149057988350     1.007825032230
         H           -0.337902798648    -0.886127679573     1.747472988350     1.007825032230
         H           -0.337996798648     0.873671320427     1.747614988350     1.007825032230
         H            2.236331201352     1.272178320427    -0.953627011650     1.007825032230
         H            1.152352201352     2.157218320427     0.132802988350     1.007825032230
         H            0.491110201352     1.291759320427    -1.264970011650     1.007825032230
         H            2.236447201352    -1.283932679573    -0.953844011650     1.007825032230
         H            0.491230201352    -1.303604679573    -1.265199011650     1.007825032230
         H            1.152537201352    -2.169255679573     0.132424988350     1.007825032230
         H           -3.201392798648    -0.005925679573    -1.257960011650     1.007825032230

  Basis Set: AUG-CC-PVTZ
    Blend: AUG-CC-PVTZ
  Basis Set: (AUG-CC-PVTZ AUX)
    Blend: AUG-CC-PVTZ-JKFIT
	 Reference Energy          =    -233.0478874032197041 [Eh]
	 Singles Energy            =      -0.0000000000000000 [Eh]
	 Same-Spin Energy          =      -0.2496988383713689 [Eh]
	 Opposite-Spin Energy      =      -0.8890342439481568 [Eh]
	 Correlation Energy        =      -1.1387330823195256 [Eh]
	 Total Energy              =    -234.1866204855392368 [Eh]

	 ================> DF-SCS-MP2 Energies <==================
	-----------------------------------------------------------
	 SCS Same-Spin Scale       =       0.3333333333333333 [-]
	 SCS Opposite-Spin Scale   =       1.2000000000000000 [-]
	 SCS Same-Spin Energy      =      -0.0832329461237896 [Eh]
	 SCS Opposite-Spin Energy  =      -1.0668410927377880 [Eh]
	 SCS Correlation Energy    =      -1.1500740388615778 [Eh]
	 SCS Total Energy          =    -234.1979614420812936 [Eh]
	-----------------------------------------------------------

  Dipole Moment: [D]
     X:     0.6477      Y:    -0.0087      Z:     0.3276     Total:     0.7259

*** Psi4 exiting successfully. Buy a developer a beer!
