                               Psi4 1.4a3.dev225

  ==> Input File <==

--------------------------------------------------------------------------
#psi4
#
memory 32 gb

molecule  {
0 1
  C        1.0191550    -0.0000090     0.3706600
  C       -0.3376930    -0.0001380     1.0991850
  C        1.1895300     1.2600750    -0.4734900
  C        1.1918771    -1.2764411    -0.4847726
  C       -1.4806530    -0.0001100     0.1820590
  C       -2.4337550     0.0000760    -0.5817880
  H        1.7898900    -0.0000470     1.1539300
  H       -0.3990100    -0.8800950     1.7523450
  H       -0.3991040     0.8797040     1.7524870
  H        2.1752240     1.2782110    -0.9487550
  H        1.0912450     2.1632510     0.1376750
  H        0.4300030     1.2977920    -1.2600980
  H        2.1753400    -1.2779000    -0.9489720
  H        0.4301230    -1.2975720    -1.2603270
  H        1.0914300    -2.1632230     0.1372970
  H       -3.2625000     0.0001070    -1.2530880
units angstrom
no_reorient  #important for SAPT in psi4, default
symmetry c1  #important for SAPT in psi4, default
}

set PROPERTIES_ORIGIN ["COM"]
properties('MP2/aug-cc-pvtz', properties = ['dipole'])
--------------------------------------------------------------------------

    Molecular point group: c1
  Charge       = 0
  Multiplicity = 1
  Basis Set: AUG-CC-PVTZ
    Blend: AUG-CC-PVTZ
  Basis Set: (AUG-CC-PVTZ AUX)
    Blend: AUG-CC-PVTZ-JKFIT

    Orbital Energies [Eh]
    ---------------------

    Doubly Occupied:

       1A    -11.250270     2A    -11.237647     3A    -11.236659
       4A    -11.223335     5A    -11.211167     6A    -11.210398
       7A     -1.105905     8A     -1.020971     9A     -0.942293
      10A     -0.930208    11A     -0.787254    12A     -0.710629
      13A     -0.650347    14A     -0.614861    15A     -0.608746
      16A     -0.579323    17A     -0.540525    18A     -0.525034
      19A     -0.485018    20A     -0.474641    21A     -0.468899
      22A     -0.377863    23A     -0.377800

  @DF-RHF Final Energy:  -233.04935859470191

   => Energetics <=

    Nuclear Repulsion Energy =            222.4694049063192267
    One-Electron Energy =                -753.8979411457817150
    Two-Electron Energy =                 298.3791776447605457
    Total Energy =                       -233.0493585947019142
  Basis Set: (AUG-CC-PVTZ AUX)
    Blend: AUG-CC-PVTZ-RI
    Molecular point group: c1

    Geometry (in Angstrom), charge = 0, multiplicity = 1:

       Center              X                  Y                   Z               Mass
    ------------   -----------------  -----------------  -----------------  -----------------
         C            1.080751597749     0.002407418663     0.363362527290    12.000000000000
         C           -0.276096402251     0.002278418663     1.091887527290    12.000000000000
         C            1.251126597749     1.262491418663    -0.480787472710    12.000000000000
         C            1.253473697749    -1.274024681337    -0.492070072710    12.000000000000
         C           -1.419056402251     0.002306418663     0.174761527290    12.000000000000
         C           -2.372158402251     0.002492418663    -0.589085472710    12.000000000000
         H            1.851486597749     0.002369418663     1.146632527290     1.007825032230
         H           -0.337413402251    -0.877678581337     1.745047527290     1.007825032230
         H           -0.337507402251     0.882120418663     1.745189527290     1.007825032230
         H            2.236820597749     1.280627418663    -0.956052472710     1.007825032230
         H            1.152841597749     2.165667418663     0.130377527290     1.007825032230
         H            0.491599597749     1.300208418663    -1.267395472710     1.007825032230
         H            2.236936597749    -1.275483581337    -0.956269472710     1.007825032230
         H            0.491719597749    -1.295155581337    -1.267624472710     1.007825032230
         H            1.153026597749    -2.160806581337     0.129999527290     1.007825032230
         H           -3.200903402251     0.002523418663    -1.260385472710     1.007825032230

  Basis Set: AUG-CC-PVTZ
    Blend: AUG-CC-PVTZ
  Basis Set: (AUG-CC-PVTZ AUX)
    Blend: AUG-CC-PVTZ-JKFIT
	 Reference Energy          =    -233.0493585947019142 [Eh]
	 Singles Energy            =      -0.0000000000000000 [Eh]
	 Same-Spin Energy          =      -0.2498474065370823 [Eh]
	 Opposite-Spin Energy      =      -0.8891005931785079 [Eh]
	 Correlation Energy        =      -1.1389479997155902 [Eh]
	 Total Energy              =    -234.1883065944174973 [Eh]

	 ================> DF-SCS-MP2 Energies <==================
	-----------------------------------------------------------
	 SCS Same-Spin Scale       =       0.3333333333333333 [-]
	 SCS Opposite-Spin Scale   =       1.2000000000000000 [-]
	 SCS Same-Spin Energy      =      -0.0832824688456941 [Eh]
	 SCS Opposite-Spin Energy  =      -1.0669207118142094 [Eh]
	 SCS Correlation Energy    =      -1.1502031806599036 [Eh]
	 SCS Total Energy          =    -234.1995617753618149 [Eh]
	-----------------------------------------------------------

  Dipole Moment: [D]
     X:     0.6484      Y:     0.0025      Z:     0.3218     Total:     0.7239

*** Psi4 exiting successfully. Buy a developer a beer!
