                               Psi4 1.4a3.dev225

  ==> Input File <==

--------------------------------------------------------------------------
#psi4
#
memory 32 gb

molecule  {
0 1
  C        1.0191550    -0.0000090     0.3706600
  C       -0.3817448    -0.0001422     1.1228375
  C        1.1895300     1.2600750    -0.4734900
  C        1.1896430    -1.2599310    -0.4737080
  C       -1.4806530    -0.0001100     0.1820590
  C       -2.4337550     0.0000760    -0.5817880
  H        1.7898900    -0.0000470     1.1539300
  H       -0.3990100    -0.8800950     1.7523450
  H       -0.3991040     0.8797040     1.7524870
  H        2.1752240     1.2782110    -0.9487550
  H        1.0912450     2.1632510     0.1376750
  H        0.4300030     1.2977920    -1.2600980
  H        2.1753400    -1.2779000    -0.9489720
  H        0.4301230    -1.2975720    -1.2603270
  H        1.0914300    -2.1632230     0.1372970
  H       -3.2625000     0.0001070    -1.2530880
units angstrom
no_reorient  #important for SAPT in psi4, default
symmetry c1  #important for SAPT in psi4, default
}

set PROPERTIES_ORIGIN ["COM"]
properties('MP2/aug-cc-pvtz', properties = ['dipole'])
--------------------------------------------------------------------------

    Molecular point group: c1
  Charge       = 0
  Multiplicity = 1
  Basis Set: AUG-CC-PVTZ
    Blend: AUG-CC-PVTZ
  Basis Set: (AUG-CC-PVTZ AUX)
    Blend: AUG-CC-PVTZ-JKFIT

    Orbital Energies [Eh]
    ---------------------

    Doubly Occupied:

       1A    -11.247653     2A    -11.238451     3A    -11.237177
       4A    -11.223584     5A    -11.211077     6A    -11.211060
       7A     -1.103126     8A     -1.023380     9A     -0.943299
      10A     -0.929314    11A     -0.784795    12A     -0.712084
      13A     -0.650378    14A     -0.618394    15A     -0.607576
      16A     -0.583059    17A     -0.539825    18A     -0.525648
      19A     -0.478386    20A     -0.474331    21A     -0.471829
      22A     -0.378791    23A     -0.374284

  @DF-RHF Final Energy:  -233.04751174446488

   => Energetics <=

    Nuclear Repulsion Energy =            222.3142036291567365
    One-Electron Energy =                -753.5884267787549788
    Two-Electron Energy =                 298.2267114051333579
    Total Energy =                       -233.0475117444648845
  Basis Set: (AUG-CC-PVTZ AUX)
    Blend: AUG-CC-PVTZ-RI
    Molecular point group: c1

    Geometry (in Angstrom), charge = 0, multiplicity = 1:

       Center              X                  Y                   Z               Mass
    ------------   -----------------  -----------------  -----------------  -----------------
         C            1.087518686446    -0.000005776053     0.358286819678    12.000000000000
         C           -0.313381113554    -0.000138976053     1.110464319678    12.000000000000
         C            1.257893686446     1.260078223947    -0.485863180322    12.000000000000
         C            1.258006686446    -1.259927776053    -0.486081180322    12.000000000000
         C           -1.412289313554    -0.000106776053     0.169685819678    12.000000000000
         C           -2.365391313554     0.000079223947    -0.594161180322    12.000000000000
         H            1.858253686446    -0.000043776053     1.141556819678     1.007825032230
         H           -0.330646313554    -0.880091776053     1.739971819678     1.007825032230
         H           -0.330740313554     0.879707223947     1.740113819678     1.007825032230
         H            2.243587686446     1.278214223947    -0.961128180322     1.007825032230
         H            1.159608686446     2.163254223947     0.125301819678     1.007825032230
         H            0.498366686446     1.297795223947    -1.272471180322     1.007825032230
         H            2.243703686446    -1.277896776053    -0.961345180322     1.007825032230
         H            0.498486686446    -1.297568776053    -1.272700180322     1.007825032230
         H            1.159793686446    -2.163219776053     0.124923819678     1.007825032230
         H           -3.194136313554     0.000110223947    -1.265461180322     1.007825032230

  Basis Set: AUG-CC-PVTZ
    Blend: AUG-CC-PVTZ
  Basis Set: (AUG-CC-PVTZ AUX)
    Blend: AUG-CC-PVTZ-JKFIT
	 Reference Energy          =    -233.0475117444648845 [Eh]
	 Singles Energy            =      -0.0000000000000000 [Eh]
	 Same-Spin Energy          =      -0.2500571494646497 [Eh]
	 Opposite-Spin Energy      =      -0.8893479044960325 [Eh]
	 Correlation Energy        =      -1.1394050539606821 [Eh]
	 Total Energy              =    -234.1869167984255569 [Eh]

	 ================> DF-SCS-MP2 Energies <==================
	-----------------------------------------------------------
	 SCS Same-Spin Scale       =       0.3333333333333333 [-]
	 SCS Opposite-Spin Scale   =       1.2000000000000000 [-]
	 SCS Same-Spin Energy      =      -0.0833523831548832 [Eh]
	 SCS Opposite-Spin Energy  =      -1.0672174853952390 [Eh]
	 SCS Correlation Energy    =      -1.1505698685501222 [Eh]
	 SCS Total Energy          =    -234.1980816130150060 [Eh]
	-----------------------------------------------------------

  Dipole Moment: [D]
     X:     0.6349      Y:    -0.0000      Z:     0.3269     Total:     0.7141

*** Psi4 exiting successfully. Buy a developer a beer!
