                               Psi4 1.4a3.dev225

  ==> Input File <==

--------------------------------------------------------------------------
#psi4
#
memory 32 gb

molecule  {
0 1
  C        1.0191550    -0.0000090     0.3706600
  C       -0.3376930    -0.0001380     1.0991850
  C        1.1895300     1.2600750    -0.4734900
  C        1.1896430    -1.2599310    -0.4737080
  C       -1.5196505    -0.0001090     0.1507669
  C       -2.4337550     0.0000760    -0.5817880
  H        1.7898900    -0.0000470     1.1539300
  H       -0.3990100    -0.8800950     1.7523450
  H       -0.3991040     0.8797040     1.7524870
  H        2.1752240     1.2782110    -0.9487550
  H        1.0912450     2.1632510     0.1376750
  H        0.4300030     1.2977920    -1.2600980
  H        2.1753400    -1.2779000    -0.9489720
  H        0.4301230    -1.2975720    -1.2603270
  H        1.0914300    -2.1632230     0.1372970
  H       -3.2625000     0.0001070    -1.2530880
units angstrom
no_reorient  #important for SAPT in psi4, default
symmetry c1  #important for SAPT in psi4, default
}

set PROPERTIES_ORIGIN ["COM"]
properties('MP2/aug-cc-pvtz', properties = ['dipole'])
--------------------------------------------------------------------------

    Molecular point group: c1
  Charge       = 0
  Multiplicity = 1
  Basis Set: AUG-CC-PVTZ
    Blend: AUG-CC-PVTZ
  Basis Set: (AUG-CC-PVTZ AUX)
    Blend: AUG-CC-PVTZ-JKFIT

    Orbital Energies [Eh]
    ---------------------

    Doubly Occupied:

       1A    -11.253264     2A    -11.235059     3A    -11.223801
       4A    -11.210929     5A    -11.210911     6A    -11.208115
       7A     -1.103017     8A     -1.028856     9A     -0.942063
      10A     -0.929557    11A     -0.782616    12A     -0.707992
      13A     -0.648073    14A     -0.612216    15A     -0.604756
      16A     -0.574649    17A     -0.538543    18A     -0.522073
      19A     -0.482484    20A     -0.472752    21A     -0.472050
      22A     -0.390782    23A     -0.390622

  @DF-RHF Final Energy:  -233.05111524881769

   => Energetics <=

    Nuclear Repulsion Energy =            222.6625814434129893
    One-Electron Energy =                -754.3370302517924983
    Two-Electron Energy =                 298.6233335595618428
    Total Energy =                       -233.0511152488177231
  Basis Set: (AUG-CC-PVTZ AUX)
    Blend: AUG-CC-PVTZ-RI
    Molecular point group: c1

    Geometry (in Angstrom), charge = 0, multiplicity = 1:

       Center              X                  Y                   Z               Mass
    ------------   -----------------  -----------------  -----------------  -----------------
         C            1.086779737946    -0.000006536304     0.366319827172    12.000000000000
         C           -0.270068262054    -0.000135536304     1.094844827172    12.000000000000
         C            1.257154737946     1.260077463696    -0.477830172828    12.000000000000
         C            1.257267737946    -1.259928536304    -0.478048172828    12.000000000000
         C           -1.452025762054    -0.000106536304     0.146426727172    12.000000000000
         C           -2.366130262054     0.000078463696    -0.586128172828    12.000000000000
         H            1.857514737946    -0.000044536304     1.149589827172     1.007825032230
         H           -0.331385262054    -0.880092536304     1.748004827172     1.007825032230
         H           -0.331479262054     0.879706463696     1.748146827172     1.007825032230
         H            2.242848737946     1.278213463696    -0.953095172828     1.007825032230
         H            1.158869737946     2.163253463696     0.133334827172     1.007825032230
         H            0.497627737946     1.297794463696    -1.264438172828     1.007825032230
         H            2.242964737946    -1.277897536304    -0.953312172828     1.007825032230
         H            0.497747737946    -1.297569536304    -1.264667172828     1.007825032230
         H            1.159054737946    -2.163220536304     0.132956827172     1.007825032230
         H           -3.194875262054     0.000109463696    -1.257428172828     1.007825032230

  Basis Set: AUG-CC-PVTZ
    Blend: AUG-CC-PVTZ
  Basis Set: (AUG-CC-PVTZ AUX)
    Blend: AUG-CC-PVTZ-JKFIT
	 Reference Energy          =    -233.0511152488176947 [Eh]
	 Singles Energy            =      -0.0000000000000000 [Eh]
	 Same-Spin Energy          =      -0.2474499066024684 [Eh]
	 Opposite-Spin Energy      =      -0.8847079206217537 [Eh]
	 Correlation Energy        =      -1.1321578272242221 [Eh]
	 Total Energy              =    -234.1832730760419281 [Eh]

	 ================> DF-SCS-MP2 Energies <==================
	-----------------------------------------------------------
	 SCS Same-Spin Scale       =       0.3333333333333333 [-]
	 SCS Opposite-Spin Scale   =       1.2000000000000000 [-]
	 SCS Same-Spin Energy      =      -0.0824833022008228 [Eh]
	 SCS Opposite-Spin Energy  =      -1.0616495047461045 [Eh]
	 SCS Correlation Energy    =      -1.1441328069469274 [Eh]
	 SCS Total Energy          =    -234.1952480557646084 [Eh]
	-----------------------------------------------------------

  Dipole Moment: [D]
     X:     0.6178      Y:    -0.0000      Z:     0.3003     Total:     0.6870

*** Psi4 exiting successfully. Buy a developer a beer!
