                               Psi4 1.4a3.dev225

  ==> Input File <==

--------------------------------------------------------------------------
#psi4
#
memory 32 gb

molecule  {
0 1
  C        1.0191550    -0.0000090     0.3706600
  C       -0.3434072    -0.0239216     1.0880424
  C        1.1895300     1.2600750    -0.4734900
  C        1.1896430    -1.2599310    -0.4737080
  C       -1.4806530    -0.0001100     0.1820590
  C       -2.4337550     0.0000760    -0.5817880
  H        1.7898900    -0.0000470     1.1539300
  H       -0.3990100    -0.8800950     1.7523450
  H       -0.3991040     0.8797040     1.7524870
  H        2.1752240     1.2782110    -0.9487550
  H        1.0912450     2.1632510     0.1376750
  H        0.4300030     1.2977920    -1.2600980
  H        2.1753400    -1.2779000    -0.9489720
  H        0.4301230    -1.2975720    -1.2603270
  H        1.0914300    -2.1632230     0.1372970
  H       -3.2625000     0.0001070    -1.2530880
units angstrom
no_reorient  #important for SAPT in psi4, default
symmetry c1  #important for SAPT in psi4, default
}

set PROPERTIES_ORIGIN ["COM"]
properties('MP2/aug-cc-pvtz', properties = ['dipole'])
--------------------------------------------------------------------------

    Molecular point group: c1
  Charge       = 0
  Multiplicity = 1
  Basis Set: AUG-CC-PVTZ
    Blend: AUG-CC-PVTZ
  Basis Set: (AUG-CC-PVTZ AUX)
    Blend: AUG-CC-PVTZ-JKFIT

    Orbital Energies [Eh]
    ---------------------

    Doubly Occupied:

       1A    -11.250330     2A    -11.237569     3A    -11.235945
       4A    -11.223708     5A    -11.211477     6A    -11.210804
       7A     -1.108402     8A     -1.022705     9A     -0.942256
      10A     -0.929947    11A     -0.788021    12A     -0.710849
      13A     -0.652075    14A     -0.613701    15A     -0.610400
      16A     -0.579520    17A     -0.539093    18A     -0.522421
      19A     -0.484438    20A     -0.473286    21A     -0.472856
      22A     -0.378381    23A     -0.376484

  @DF-RHF Final Energy:  -233.04844105755649

   => Energetics <=

    Nuclear Repulsion Energy =            222.8692126358069459
    One-Electron Energy =                -754.6859720323533338
    Two-Electron Energy =                 298.7683183389898431
    Total Energy =                       -233.0484410575564880
  Basis Set: (AUG-CC-PVTZ AUX)
    Blend: AUG-CC-PVTZ-RI
    Molecular point group: c1

    Geometry (in Angstrom), charge = 0, multiplicity = 1:

       Center              X                  Y                   Z               Mass
    ------------   -----------------  -----------------  -----------------  -----------------
         C            1.081913654684     0.003470818524     0.363373931042    12.000000000000
         C           -0.280648545316    -0.020441781476     1.080756331042    12.000000000000
         C            1.252288654684     1.263554818524    -0.480776068958    12.000000000000
         C            1.252401654684    -1.256451181476    -0.480994068958    12.000000000000
         C           -1.417894345316     0.003369818524     0.174772931042    12.000000000000
         C           -2.370996345316     0.003555818524    -0.589074068958    12.000000000000
         H            1.852648654684     0.003432818524     1.146643931042     1.007825032230
         H           -0.336251345316    -0.876615181476     1.745058931042     1.007825032230
         H           -0.336345345316     0.883183818524     1.745200931042     1.007825032230
         H            2.237982654684     1.281690818524    -0.956041068958     1.007825032230
         H            1.154003654684     2.166730818524     0.130388931042     1.007825032230
         H            0.492761654684     1.301271818524    -1.267384068958     1.007825032230
         H            2.238098654684    -1.274420181476    -0.956258068958     1.007825032230
         H            0.492881654684    -1.294092181476    -1.267613068958     1.007825032230
         H            1.154188654684    -2.159743181476     0.130010931042     1.007825032230
         H           -3.199741345316     0.003586818524    -1.260374068958     1.007825032230

  Basis Set: AUG-CC-PVTZ
    Blend: AUG-CC-PVTZ
  Basis Set: (AUG-CC-PVTZ AUX)
    Blend: AUG-CC-PVTZ-JKFIT
	 Reference Energy          =    -233.0484410575564880 [Eh]
	 Singles Energy            =      -0.0000000000000000 [Eh]
	 Same-Spin Energy          =      -0.2501650875892564 [Eh]
	 Opposite-Spin Energy      =      -0.8894477658565987 [Eh]
	 Correlation Energy        =      -1.1396128534458552 [Eh]
	 Total Energy              =    -234.1880539110023562 [Eh]

	 ================> DF-SCS-MP2 Energies <==================
	-----------------------------------------------------------
	 SCS Same-Spin Scale       =       0.3333333333333333 [-]
	 SCS Opposite-Spin Scale   =       1.2000000000000000 [-]
	 SCS Same-Spin Energy      =      -0.0833883625297521 [Eh]
	 SCS Opposite-Spin Energy  =      -1.0673373190279183 [Eh]
	 SCS Correlation Energy    =      -1.1507256815576705 [Eh]
	 SCS Total Energy          =    -234.1991667391141618 [Eh]
	-----------------------------------------------------------

  Dipole Moment: [D]
     X:     0.6422      Y:    -0.0138      Z:     0.3109     Total:     0.7136

*** Psi4 exiting successfully. Buy a developer a beer!
