                               Psi4 1.4a3.dev225

  ==> Input File <==

--------------------------------------------------------------------------
#psi4
#
memory 32 gb

molecule  {
0 1
  C        1.0191550    -0.0000090     0.3706600
  C       -0.3487064    -0.0476979     1.0766813
  C        1.1895300     1.2600750    -0.4734900
  C        1.1896430    -1.2599310    -0.4737080
  C       -1.4806530    -0.0001100     0.1820590
  C       -2.4337550     0.0000760    -0.5817880
  H        1.7898900    -0.0000470     1.1539300
  H       -0.3990100    -0.8800950     1.7523450
  H       -0.3991040     0.8797040     1.7524870
  H        2.1752240     1.2782110    -0.9487550
  H        1.0912450     2.1632510     0.1376750
  H        0.4300030     1.2977920    -1.2600980
  H        2.1753400    -1.2779000    -0.9489720
  H        0.4301230    -1.2975720    -1.2603270
  H        1.0914300    -2.1632230     0.1372970
  H       -3.2625000     0.0001070    -1.2530880
units angstrom
no_reorient  #important for SAPT in psi4, default
symmetry c1  #important for SAPT in psi4, default
}

set PROPERTIES_ORIGIN ["COM"]
properties('MP2/aug-cc-pvtz', properties = ['dipole'])
--------------------------------------------------------------------------

    Molecular point group: c1
  Charge       = 0
  Multiplicity = 1
  Basis Set: AUG-CC-PVTZ
    Blend: AUG-CC-PVTZ
  Basis Set: (AUG-CC-PVTZ AUX)
    Blend: AUG-CC-PVTZ-JKFIT

    Orbital Energies [Eh]
    ---------------------

    Doubly Occupied:

       1A    -11.250556     2A    -11.237529     3A    -11.236144
       4A    -11.224066     5A    -11.211758     6A    -11.210441
       7A     -1.109182     8A     -1.023673     9A     -0.942279
      10A     -0.929873    11A     -0.788831    12A     -0.711138
      13A     -0.653804    14A     -0.613911    15A     -0.609784
      16A     -0.579577    17A     -0.539072    18A     -0.521597
      19A     -0.484922    20A     -0.473803    21A     -0.471806
      22A     -0.378877    23A     -0.374858

  @DF-RHF Final Energy:  -233.04598356786258

   => Energetics <=

    Nuclear Repulsion Energy =            222.9933150406466495
    One-Electron Energy =                -754.9236313735034400
    Two-Electron Energy =                 298.8843327649942694
    Total Energy =                       -233.0459835678625495
  Basis Set: (AUG-CC-PVTZ AUX)
    Blend: AUG-CC-PVTZ-RI
    Molecular point group: c1

    Geometry (in Angstrom), charge = 0, multiplicity = 1:

       Center              X                  Y                   Z               Mass
    ------------   -----------------  -----------------  -----------------  -----------------
         C            1.082688408042     0.006946959875     0.365034945982    12.000000000000
         C           -0.285172991958    -0.040741940125     1.071056245982    12.000000000000
         C            1.253063408042     1.267030959875    -0.479115054018    12.000000000000
         C            1.253176408042    -1.252975040125    -0.479333054018    12.000000000000
         C           -1.417119591958     0.006845959875     0.176433945982    12.000000000000
         C           -2.370221591958     0.007031959875    -0.587413054018    12.000000000000
         H            1.853423408042     0.006908959875     1.148304945982     1.007825032230
         H           -0.335476591958    -0.873139040125     1.746719945982     1.007825032230
         H           -0.335570591958     0.886659959875     1.746861945982     1.007825032230
         H            2.238757408042     1.285166959875    -0.954380054018     1.007825032230
         H            1.154778408042     2.170206959875     0.132049945982     1.007825032230
         H            0.493536408042     1.304747959875    -1.265723054018     1.007825032230
         H            2.238873408042    -1.270944040125    -0.954597054018     1.007825032230
         H            0.493656408042    -1.290616040125    -1.265952054018     1.007825032230
         H            1.154963408042    -2.156267040125     0.131671945982     1.007825032230
         H           -3.198966591958     0.007062959875    -1.258713054018     1.007825032230

  Basis Set: AUG-CC-PVTZ
    Blend: AUG-CC-PVTZ
  Basis Set: (AUG-CC-PVTZ AUX)
    Blend: AUG-CC-PVTZ-JKFIT
	 Reference Energy          =    -233.0459835678625780 [Eh]
	 Singles Energy            =      -0.0000000000000000 [Eh]
	 Same-Spin Energy          =      -0.2503742563124975 [Eh]
	 Opposite-Spin Energy      =      -0.8897715115882666 [Eh]
	 Correlation Energy        =      -1.1401457679007643 [Eh]
	 Total Energy              =    -234.1861293357633542 [Eh]

	 ================> DF-SCS-MP2 Energies <==================
	-----------------------------------------------------------
	 SCS Same-Spin Scale       =       0.3333333333333333 [-]
	 SCS Opposite-Spin Scale   =       1.2000000000000000 [-]
	 SCS Same-Spin Energy      =      -0.0834580854374992 [Eh]
	 SCS Opposite-Spin Energy  =      -1.0677258139059198 [Eh]
	 SCS Correlation Energy    =      -1.1511838993434189 [Eh]
	 SCS Total Energy          =    -234.1971674672059862 [Eh]
	-----------------------------------------------------------

  Dipole Moment: [D]
     X:     0.6380      Y:    -0.0285      Z:     0.3012     Total:     0.7061

*** Psi4 exiting successfully. Buy a developer a beer!
