                               Psi4 1.4a3.dev225

  ==> Input File <==

--------------------------------------------------------------------------
#psi4
#
memory 32 gb

molecule  {
0 1
  C        1.0191550    -0.0000090     0.3706600
  C       -0.3376930    -0.0001380     1.0991850
  C        1.1895300     1.2600750    -0.4734900
  C        1.1896430    -1.2599310    -0.4737080
  C       -1.3246630    -0.0001138     0.3072274
  C       -2.4337550     0.0000760    -0.5817880
  H        1.7898900    -0.0000470     1.1539300
  H       -0.3990100    -0.8800950     1.7523450
  H       -0.3991040     0.8797040     1.7524870
  H        2.1752240     1.2782110    -0.9487550
  H        1.0912450     2.1632510     0.1376750
  H        0.4300030     1.2977920    -1.2600980
  H        2.1753400    -1.2779000    -0.9489720
  H        0.4301230    -1.2975720    -1.2603270
  H        1.0914300    -2.1632230     0.1372970
  H       -3.2625000     0.0001070    -1.2530880
units angstrom
no_reorient  #important for SAPT in psi4, default
symmetry c1  #important for SAPT in psi4, default
}

set PROPERTIES_ORIGIN ["COM"]
properties('MP2/aug-cc-pvtz', properties = ['dipole'])
--------------------------------------------------------------------------

    Molecular point group: c1
  Charge       = 0
  Multiplicity = 1
  Basis Set: AUG-CC-PVTZ
    Blend: AUG-CC-PVTZ
  Basis Set: (AUG-CC-PVTZ AUX)
    Blend: AUG-CC-PVTZ-JKFIT

    Orbital Energies [Eh]
    ---------------------

    Doubly Occupied:

       1A    -11.282057     2A    -11.270538     3A    -11.243095
       4A    -11.239035     5A    -11.214122     6A    -11.214105
       7A     -1.146919     8A     -1.031542     9A     -0.933542
      10A     -0.910971    11A     -0.806769    12A     -0.714170
      13A     -0.660543    14A     -0.637611    15A     -0.626829
      16A     -0.590378    17A     -0.543961    18A     -0.529904
      19A     -0.497759    20A     -0.478754    21A     -0.476593
      22A     -0.329316    23A     -0.329215

  @DF-RHF Final Energy:  -232.93136731571116

   => Energetics <=

    Nuclear Repulsion Energy =            223.9354373765696096
    One-Electron Energy =                -756.3181504826726496
    Two-Electron Energy =                 299.4513457903918265
    Total Energy =                       -232.9313673157111566
  Basis Set: (AUG-CC-PVTZ AUX)
    Blend: AUG-CC-PVTZ-RI
    Molecular point group: c1

    Geometry (in Angstrom), charge = 0, multiplicity = 1:

       Center              X                  Y                   Z               Mass
    ------------   -----------------  -----------------  -----------------  -----------------
         C            1.058272185813    -0.000005834534     0.343444997450    12.000000000000
         C           -0.298575814187    -0.000134834534     1.071969997450    12.000000000000
         C            1.228647185813     1.260078165466    -0.500705002550    12.000000000000
         C            1.228760185813    -1.259927834534    -0.500923002550    12.000000000000
         C           -1.285545814187    -0.000110634534     0.280012397450    12.000000000000
         C           -2.394637814187     0.000079165466    -0.609003002550    12.000000000000
         H            1.829007185813    -0.000043834534     1.126714997450     1.007825032230
         H           -0.359892814187    -0.880091834534     1.725129997450     1.007825032230
         H           -0.359986814187     0.879707165466     1.725271997450     1.007825032230
         H            2.214341185813     1.278214165466    -0.975970002550     1.007825032230
         H            1.130362185813     2.163254165466     0.110459997450     1.007825032230
         H            0.469120185813     1.297795165466    -1.287313002550     1.007825032230
         H            2.214457185813    -1.277896834534    -0.976187002550     1.007825032230
         H            0.469240185813    -1.297568834534    -1.287542002550     1.007825032230
         H            1.130547185813    -2.163219834534     0.110081997450     1.007825032230
         H           -3.223382814187     0.000110165466    -1.280303002550     1.007825032230

  Basis Set: AUG-CC-PVTZ
    Blend: AUG-CC-PVTZ
  Basis Set: (AUG-CC-PVTZ AUX)
    Blend: AUG-CC-PVTZ-JKFIT
	 Reference Energy          =    -232.9313673157111566 [Eh]
	 Singles Energy            =      -0.0000000000000000 [Eh]
	 Same-Spin Energy          =      -0.2635159841405879 [Eh]
	 Opposite-Spin Energy      =      -0.9131180820672109 [Eh]
	 Correlation Energy        =      -1.1766340662077988 [Eh]
	 Total Energy              =    -234.1080013819189674 [Eh]

	 ================> DF-SCS-MP2 Energies <==================
	-----------------------------------------------------------
	 SCS Same-Spin Scale       =       0.3333333333333333 [-]
	 SCS Opposite-Spin Scale   =       1.2000000000000000 [-]
	 SCS Same-Spin Energy      =      -0.0878386613801959 [Eh]
	 SCS Opposite-Spin Energy  =      -1.0957416984806529 [Eh]
	 SCS Correlation Energy    =      -1.1835803598608490 [Eh]
	 SCS Total Energy          =    -234.1149476755720116 [Eh]
	-----------------------------------------------------------

  Dipole Moment: [D]
     X:     0.9302      Y:    -0.0000      Z:     0.4755     Total:     1.0446

*** Psi4 exiting successfully. Buy a developer a beer!
