                               Psi4 1.4a3.dev225

  ==> Input File <==

--------------------------------------------------------------------------
#psi4
#
memory 32 gb

molecule  {
0 1
  C        1.0423743    -0.0830970     0.2362020
  C       -0.3376930    -0.0001380     1.0991850
  C        1.1895300     1.2600750    -0.4734900
  C        1.1896430    -1.2599310    -0.4737080
  C       -1.4806530    -0.0001100     0.1820590
  C       -2.4337550     0.0000760    -0.5817880
  H        1.7898900    -0.0000470     1.1539300
  H       -0.3990100    -0.8800950     1.7523450
  H       -0.3991040     0.8797040     1.7524870
  H        2.1752240     1.2782110    -0.9487550
  H        1.0912450     2.1632510     0.1376750
  H        0.4300030     1.2977920    -1.2600980
  H        2.1753400    -1.2779000    -0.9489720
  H        0.4301230    -1.2975720    -1.2603270
  H        1.0914300    -2.1632230     0.1372970
  H       -3.2625000     0.0001070    -1.2530880
units angstrom
no_reorient  #important for SAPT in psi4, default
symmetry c1  #important for SAPT in psi4, default
}

set PROPERTIES_ORIGIN ["COM"]
properties('MP2/aug-cc-pvtz', properties = ['dipole'])
--------------------------------------------------------------------------

    Molecular point group: c1
  Charge       = 0
  Multiplicity = 1
  Basis Set: AUG-CC-PVTZ
    Blend: AUG-CC-PVTZ
  Basis Set: (AUG-CC-PVTZ AUX)
    Blend: AUG-CC-PVTZ-JKFIT

    Orbital Energies [Eh]
    ---------------------

    Doubly Occupied:

       1A    -11.251809     2A    -11.243521     3A    -11.235310
       4A    -11.220681     5A    -11.213783     6A    -11.208299
       7A     -1.114090     8A     -1.028996     9A     -0.948285
      10A     -0.936370    11A     -0.771351    12A     -0.709933
      13A     -0.652966    14A     -0.618474    15A     -0.609693
      16A     -0.587000    17A     -0.546091    18A     -0.528726
      19A     -0.519624    20A     -0.462371    21A     -0.438596
      22A     -0.376521    23A     -0.369463

  @DF-RHF Final Energy:  -233.02025365805667

   => Energetics <=

    Nuclear Repulsion Energy =            223.2597443408242555
    One-Electron Energy =                -755.3760858412739481
    Two-Electron Energy =                 299.0960878423930467
    Total Energy =                       -233.0202536580566743
  Basis Set: (AUG-CC-PVTZ AUX)
    Blend: AUG-CC-PVTZ-RI
    Molecular point group: c1

    Geometry (in Angstrom), charge = 0, multiplicity = 1:

       Center              X                  Y                   Z               Mass
    ------------   -----------------  -----------------  -----------------  -----------------
         C            1.100902820652    -0.070946762733     0.246944882612    12.000000000000
         C           -0.279164479348     0.012012237267     1.109927882612    12.000000000000
         C            1.248058520652     1.272225237267    -0.462747117388    12.000000000000
         C            1.248171520652    -1.247780762733    -0.462965117388    12.000000000000
         C           -1.422124479348     0.012040237267     0.192801882612    12.000000000000
         C           -2.375226479348     0.012226237267    -0.571045117388    12.000000000000
         H            1.848418520652     0.012103237267     1.164672882612     1.007825032230
         H           -0.340481479348    -0.867944762733     1.763087882612     1.007825032230
         H           -0.340575479348     0.891854237267     1.763229882612     1.007825032230
         H            2.233752520652     1.290361237267    -0.938012117388     1.007825032230
         H            1.149773520652     2.175401237267     0.148417882612     1.007825032230
         H            0.488531520652     1.309942237267    -1.249355117388     1.007825032230
         H            2.233868520652    -1.265749762733    -0.938229117388     1.007825032230
         H            0.488651520652    -1.285421762733    -1.249584117388     1.007825032230
         H            1.149958520652    -2.151072762733     0.148039882612     1.007825032230
         H           -3.203971479348     0.012257237267    -1.242345117388     1.007825032230

  Basis Set: AUG-CC-PVTZ
    Blend: AUG-CC-PVTZ
  Basis Set: (AUG-CC-PVTZ AUX)
    Blend: AUG-CC-PVTZ-JKFIT
	 Reference Energy          =    -233.0202536580566743 [Eh]
	 Singles Energy            =      -0.0000000000000000 [Eh]
	 Same-Spin Energy          =      -0.2516000084995607 [Eh]
	 Opposite-Spin Energy      =      -0.8913472364719962 [Eh]
	 Correlation Energy        =      -1.1429472449715568 [Eh]
	 Total Energy              =    -234.1632009030282404 [Eh]

	 ================> DF-SCS-MP2 Energies <==================
	-----------------------------------------------------------
	 SCS Same-Spin Scale       =       0.3333333333333333 [-]
	 SCS Opposite-Spin Scale   =       1.2000000000000000 [-]
	 SCS Same-Spin Energy      =      -0.0838666694998536 [Eh]
	 SCS Opposite-Spin Energy  =      -1.0696166837663954 [Eh]
	 SCS Correlation Energy    =      -1.1534833532662490 [Eh]
	 SCS Total Energy          =    -234.1737370113229133 [Eh]
	-----------------------------------------------------------

  Dipole Moment: [D]
     X:     0.7242      Y:    -0.0668      Z:     0.2518     Total:     0.7697

*** Psi4 exiting successfully. Buy a developer a beer!
