                               Psi4 1.4a3.dev225

  ==> Input File <==

--------------------------------------------------------------------------
#psi4
#
memory 32 gb

molecule  {
0 1
  C        1.0191550    -0.0000090     0.3706600
  C       -0.3376930    -0.0001380     1.0991850
  C        1.1895300     1.2600750    -0.4734900
  C        1.1896430    -1.2599310    -0.4737080
  C       -1.4806530    -0.0001100     0.1820590
  C       -2.4337550     0.0000760    -0.5817880
  H        1.7898900    -0.0000470     1.1539300
  H       -0.3990100    -0.8800950     1.7523450
  H       -0.3991040     0.8797040     1.7524870
  H        2.1752240     1.2782110    -0.9487550
  H        1.0912450     2.1632510     0.1376750
  H        0.4300030     1.2977920    -1.2600980
  H        2.1753400    -1.2779000    -0.9489720
  H        0.4648328    -1.2958518    -1.2243788
  H        1.0914300    -2.1632230     0.1372970
  H       -3.2625000     0.0001070    -1.2530880
units angstrom
no_reorient  #important for SAPT in psi4, default
symmetry c1  #important for SAPT in psi4, default
}

set PROPERTIES_ORIGIN ["COM"]
properties('MP2/aug-cc-pvtz', properties = ['dipole'])
--------------------------------------------------------------------------

    Molecular point group: c1
  Charge       = 0
  Multiplicity = 1
  Basis Set: AUG-CC-PVTZ
    Blend: AUG-CC-PVTZ
  Basis Set: (AUG-CC-PVTZ AUX)
    Blend: AUG-CC-PVTZ-JKFIT

    Orbital Energies [Eh]
    ---------------------

    Doubly Occupied:

       1A    -11.250212     2A    -11.237739     3A    -11.235314
       4A    -11.223503     5A    -11.211156     6A    -11.205185
       7A     -1.108082     8A     -1.022234     9A     -0.943283
      10A     -0.932703    11A     -0.789036    12A     -0.710965
      13A     -0.651348    14A     -0.615708    15A     -0.609871
      16A     -0.579828    17A     -0.544729    18A     -0.523174
      19A     -0.484214    20A     -0.474541    21A     -0.472972
      22A     -0.378086    23A     -0.377937

  @DF-RHF Final Energy:  -233.04851985096639

   => Energetics <=

    Nuclear Repulsion Energy =            222.9364331129528694
    One-Electron Energy =                -754.8062662873404634
    Two-Electron Energy =                 298.8213133234212364
    Total Energy =                       -233.0485198509663860
  Basis Set: (AUG-CC-PVTZ AUX)
    Blend: AUG-CC-PVTZ-RI
    Molecular point group: c1

    Geometry (in Angstrom), charge = 0, multiplicity = 1:

       Center              X                  Y                   Z               Mass
    ------------   -----------------  -----------------  -----------------  -----------------
         C            1.080652031722    -0.000027512148     0.361303459326    12.000000000000
         C           -0.276195968278    -0.000156512148     1.089828459326    12.000000000000
         C            1.251027031722     1.260056487852    -0.482846540674    12.000000000000
         C            1.251140031722    -1.259949512148    -0.483064540674    12.000000000000
         C           -1.419155968278    -0.000128512148     0.172702459326    12.000000000000
         C           -2.372257968278     0.000057487852    -0.591144540674    12.000000000000
         H            1.851387031722    -0.000065512148     1.144573459326     1.007825032230
         H           -0.337512968278    -0.880113512148     1.742988459326     1.007825032230
         H           -0.337606968278     0.879685487852     1.743130459326     1.007825032230
         H            2.236721031722     1.278192487852    -0.958111540674     1.007825032230
         H            1.152742031722     2.163232487852     0.128318459326     1.007825032230
         H            0.491500031722     1.297773487852    -1.269454540674     1.007825032230
         H            2.236837031722    -1.277918512148    -0.958328540674     1.007825032230
         H            0.526329831722    -1.295870312148    -1.233735340674     1.007825032230
         H            1.152927031722    -2.163241512148     0.127940459326     1.007825032230
         H           -3.201002968278     0.000088487852    -1.262444540674     1.007825032230

  Basis Set: AUG-CC-PVTZ
    Blend: AUG-CC-PVTZ
  Basis Set: (AUG-CC-PVTZ AUX)
    Blend: AUG-CC-PVTZ-JKFIT
	 Reference Energy          =    -233.0485198509663860 [Eh]
	 Singles Energy            =      -0.0000000000000000 [Eh]
	 Same-Spin Energy          =      -0.2499416453862329 [Eh]
	 Opposite-Spin Energy      =      -0.8888914588227119 [Eh]
	 Correlation Energy        =      -1.1388331042089448 [Eh]
	 Total Energy              =    -234.1873529551753279 [Eh]

	 ================> DF-SCS-MP2 Energies <==================
	-----------------------------------------------------------
	 SCS Same-Spin Scale       =       0.3333333333333333 [-]
	 SCS Opposite-Spin Scale   =       1.2000000000000000 [-]
	 SCS Same-Spin Energy      =      -0.0833138817954110 [Eh]
	 SCS Opposite-Spin Energy  =      -1.0666697505872542 [Eh]
	 SCS Correlation Energy    =      -1.1499836323826651 [Eh]
	 SCS Total Energy          =    -234.1985034833490431 [Eh]
	-----------------------------------------------------------

  Dipole Moment: [D]
     X:     0.6369      Y:    -0.0062      Z:     0.2999     Total:     0.7040

*** Psi4 exiting successfully. Buy a developer a beer!
