                               Psi4 1.4a3.dev225

  ==> Input File <==

--------------------------------------------------------------------------
#psi4
#
memory 32 gb

molecule  {
0 1
  C        1.0191550    -0.0000090     0.3706600
  C       -0.3376930    -0.0001380     1.0991850
  C        1.1895300     1.2600750    -0.4734900
  C        1.1840578    -1.2186558    -0.4460464
  C       -1.4806530    -0.0001100     0.1820590
  C       -2.4337550     0.0000760    -0.5817880
  H        1.7898900    -0.0000470     1.1539300
  H       -0.3990100    -0.8800950     1.7523450
  H       -0.3991040     0.8797040     1.7524870
  H        2.1752240     1.2782110    -0.9487550
  H        1.0912450     2.1632510     0.1376750
  H        0.4300030     1.2977920    -1.2600980
  H        2.1753400    -1.2779000    -0.9489720
  H        0.4301230    -1.2975720    -1.2603270
  H        1.0914300    -2.1632230     0.1372970
  H       -3.2625000     0.0001070    -1.2530880
units angstrom
no_reorient  #important for SAPT in psi4, default
symmetry c1  #important for SAPT in psi4, default
}

set PROPERTIES_ORIGIN ["COM"]
properties('MP2/aug-cc-pvtz', properties = ['dipole'])
--------------------------------------------------------------------------

    Molecular point group: c1
  Charge       = 0
  Multiplicity = 1
  Basis Set: AUG-CC-PVTZ
    Blend: AUG-CC-PVTZ
  Basis Set: (AUG-CC-PVTZ AUX)
    Blend: AUG-CC-PVTZ-JKFIT

    Orbital Energies [Eh]
    ---------------------

    Doubly Occupied:

       1A    -11.250524     2A    -11.237672     3A    -11.233648
       4A    -11.223367     5A    -11.213774     6A    -11.211451
       7A     -1.112952     8A     -1.023837     9A     -0.942829
      10A     -0.929671    11A     -0.787121    12A     -0.711152
      13A     -0.653248    14A     -0.616971    15A     -0.610326
      16A     -0.578883    17A     -0.536478    18A     -0.519205
      19A     -0.489076    20A     -0.475539    21A     -0.467442
      22A     -0.377954    23A     -0.377830

  @DF-RHF Final Energy:  -233.04635288044631

   => Energetics <=

    Nuclear Repulsion Energy =            223.4470613732028710
    One-Electron Energy =                -755.8249282075721567
    Two-Electron Energy =                 299.3315139539230358
    Total Energy =                       -233.0463528804463067
  Basis Set: (AUG-CC-PVTZ AUX)
    Blend: AUG-CC-PVTZ-RI
    Molecular point group: c1

    Geometry (in Angstrom), charge = 0, multiplicity = 1:

       Center              X                  Y                   Z               Mass
    ------------   -----------------  -----------------  -----------------  -----------------
         C            1.081894794633    -0.006040904703     0.357700681452    12.000000000000
         C           -0.274953205367    -0.006169904703     1.086225681452    12.000000000000
         C            1.252269794633     1.254043095297    -0.486449318548    12.000000000000
         C            1.246797594633    -1.224687704703    -0.459005718548    12.000000000000
         C           -1.417913205367    -0.006141904703     0.169099681452    12.000000000000
         C           -2.371015205367    -0.005955904703    -0.594747318548    12.000000000000
         H            1.852629794633    -0.006078904703     1.140970681452     1.007825032230
         H           -0.336270205367    -0.886126904703     1.739385681452     1.007825032230
         H           -0.336364205367     0.873672095297     1.739527681452     1.007825032230
         H            2.237963794633     1.272179095297    -0.961714318548     1.007825032230
         H            1.153984794633     2.157219095297     0.124715681452     1.007825032230
         H            0.492742794633     1.291760095297    -1.273057318548     1.007825032230
         H            2.238079794633    -1.283931904703    -0.961931318548     1.007825032230
         H            0.492862794633    -1.303603904703    -1.273286318548     1.007825032230
         H            1.154169794633    -2.169254904703     0.124337681452     1.007825032230
         H           -3.199760205367    -0.005924904703    -1.266047318548     1.007825032230

  Basis Set: AUG-CC-PVTZ
    Blend: AUG-CC-PVTZ
  Basis Set: (AUG-CC-PVTZ AUX)
    Blend: AUG-CC-PVTZ-JKFIT
	 Reference Energy          =    -233.0463528804463067 [Eh]
	 Singles Energy            =      -0.0000000000000000 [Eh]
	 Same-Spin Energy          =      -0.2504596175795076 [Eh]
	 Opposite-Spin Energy      =      -0.8897285299245454 [Eh]
	 Correlation Energy        =      -1.1401881475040530 [Eh]
	 Total Energy              =    -234.1865410279503692 [Eh]

	 ================> DF-SCS-MP2 Energies <==================
	-----------------------------------------------------------
	 SCS Same-Spin Scale       =       0.3333333333333333 [-]
	 SCS Opposite-Spin Scale   =       1.2000000000000000 [-]
	 SCS Same-Spin Energy      =      -0.0834865391931692 [Eh]
	 SCS Opposite-Spin Energy  =      -1.0676742359094544 [Eh]
	 SCS Correlation Energy    =      -1.1511607751026236 [Eh]
	 SCS Total Energy          =    -234.1975136555489314 [Eh]
	-----------------------------------------------------------

  Dipole Moment: [D]
     X:     0.6465      Y:    -0.0010      Z:     0.3135     Total:     0.7185

*** Psi4 exiting successfully. Buy a developer a beer!
