                               Psi4 1.4a3.dev225

  ==> Input File <==

--------------------------------------------------------------------------
#psi4
#
memory 32 gb

molecule  {
0 1
  C        1.1669964    -0.0401988     0.3253897
  C       -0.3376930    -0.0001380     1.0991850
  C        1.1895300     1.2600750    -0.4734900
  C        1.1896430    -1.2599310    -0.4737080
  C       -1.4806530    -0.0001100     0.1820590
  C       -2.4337550     0.0000760    -0.5817880
  H        1.7898900    -0.0000470     1.1539300
  H       -0.3990100    -0.8800950     1.7523450
  H       -0.3991040     0.8797040     1.7524870
  H        2.1752240     1.2782110    -0.9487550
  H        1.0912450     2.1632510     0.1376750
  H        0.4300030     1.2977920    -1.2600980
  H        2.1753400    -1.2779000    -0.9489720
  H        0.4301230    -1.2975720    -1.2603270
  H        1.0914300    -2.1632230     0.1372970
  H       -3.2625000     0.0001070    -1.2530880
units angstrom
no_reorient  #important for SAPT in psi4, default
symmetry c1  #important for SAPT in psi4, default
}

set PROPERTIES_ORIGIN ["COM"]
properties('MP2/aug-cc-pvtz', properties = ['dipole'])
--------------------------------------------------------------------------

    Molecular point group: c1
  Charge       = 0
  Multiplicity = 1
  Basis Set: AUG-CC-PVTZ
    Blend: AUG-CC-PVTZ
  Basis Set: (AUG-CC-PVTZ AUX)
    Blend: AUG-CC-PVTZ-JKFIT

    Orbital Energies [Eh]
    ---------------------

    Doubly Occupied:

       1A    -11.248470     2A    -11.239206     3A    -11.235932
       4A    -11.220244     5A    -11.213396     6A    -11.211482
       7A     -1.100113     8A     -1.025365     9A     -0.938503
      10A     -0.932267    11A     -0.794349    12A     -0.708602
      13A     -0.645799    14A     -0.609464    15A     -0.603068
      16A     -0.586375    17A     -0.551270    18A     -0.523190
      19A     -0.504748    20A     -0.483704    21A     -0.445515
      22A     -0.375366    23A     -0.364051

  @DF-RHF Final Energy:  -233.02843219367551

   => Energetics <=

    Nuclear Repulsion Energy =            221.7347566494656235
    One-Electron Energy =                -752.4054216137276399
    Two-Electron Energy =                 297.6422327705864745
    Total Energy =                       -233.0284321936754850
  Basis Set: (AUG-CC-PVTZ AUX)
    Blend: AUG-CC-PVTZ-RI
    Molecular point group: c1

    Geometry (in Angstrom), charge = 0, multiplicity = 1:

       Center              X                  Y                   Z               Mass
    ------------   -----------------  -----------------  -----------------  -----------------
         C            1.207304926998    -0.034320363094     0.323093167227    12.000000000000
         C           -0.297384473002     0.005740436906     1.096888467227    12.000000000000
         C            1.229838526998     1.265953436906    -0.475786532773    12.000000000000
         C            1.229951526998    -1.254052563094    -0.476004532773    12.000000000000
         C           -1.440344473002     0.005768436906     0.179762467227    12.000000000000
         C           -2.393446473002     0.005954436906    -0.584084532773    12.000000000000
         H            1.830198526998     0.005831436906     1.151633467227     1.007825032230
         H           -0.358701473002    -0.874216563094     1.750048467227     1.007825032230
         H           -0.358795473002     0.885582436906     1.750190467227     1.007825032230
         H            2.215532526998     1.284089436906    -0.951051532773     1.007825032230
         H            1.131553526998     2.169129436906     0.135378467227     1.007825032230
         H            0.470311526998     1.303670436906    -1.262394532773     1.007825032230
         H            2.215648526998    -1.272021563094    -0.951268532773     1.007825032230
         H            0.470431526998    -1.291693563094    -1.262623532773     1.007825032230
         H            1.131738526998    -2.157344563094     0.135000467227     1.007825032230
         H           -3.222191473002     0.005985436906    -1.255384532773     1.007825032230

  Basis Set: AUG-CC-PVTZ
    Blend: AUG-CC-PVTZ
  Basis Set: (AUG-CC-PVTZ AUX)
    Blend: AUG-CC-PVTZ-JKFIT
	 Reference Energy          =    -233.0284321936755134 [Eh]
	 Singles Energy            =      -0.0000000000000000 [Eh]
	 Same-Spin Energy          =      -0.2507291607308798 [Eh]
	 Opposite-Spin Energy      =      -0.8903264136381569 [Eh]
	 Correlation Energy        =      -1.1410555743690367 [Eh]
	 Total Energy              =    -234.1694877680445472 [Eh]

	 ================> DF-SCS-MP2 Energies <==================
	-----------------------------------------------------------
	 SCS Same-Spin Scale       =       0.3333333333333333 [-]
	 SCS Opposite-Spin Scale   =       1.2000000000000000 [-]
	 SCS Same-Spin Energy      =      -0.0835763869102933 [Eh]
	 SCS Opposite-Spin Energy  =      -1.0683916963657882 [Eh]
	 SCS Correlation Energy    =      -1.1519680832760815 [Eh]
	 SCS Total Energy          =    -234.1804002769515876 [Eh]
	-----------------------------------------------------------

  Dipole Moment: [D]
     X:     0.8213      Y:    -0.0332      Z:     0.2843     Total:     0.8698

*** Psi4 exiting successfully. Buy a developer a beer!
