                               Psi4 1.4a3.dev225

  ==> Input File <==

--------------------------------------------------------------------------
#psi4
#
memory 32 gb

molecule  {
0 1
  C        1.0191550    -0.0000090     0.3706600
  C       -0.3250265     0.0474221     1.1208011
  C        1.1895300     1.2600750    -0.4734900
  C        1.1896430    -1.2599310    -0.4737080
  C       -1.4806530    -0.0001100     0.1820590
  C       -2.4337550     0.0000760    -0.5817880
  H        1.7898900    -0.0000470     1.1539300
  H       -0.3990100    -0.8800950     1.7523450
  H       -0.3991040     0.8797040     1.7524870
  H        2.1752240     1.2782110    -0.9487550
  H        1.0912450     2.1632510     0.1376750
  H        0.4300030     1.2977920    -1.2600980
  H        2.1753400    -1.2779000    -0.9489720
  H        0.4301230    -1.2975720    -1.2603270
  H        1.0914300    -2.1632230     0.1372970
  H       -3.2625000     0.0001070    -1.2530880
units angstrom
no_reorient  #important for SAPT in psi4, default
symmetry c1  #important for SAPT in psi4, default
}

set PROPERTIES_ORIGIN ["COM"]
properties('MP2/aug-cc-pvtz', properties = ['dipole'])
--------------------------------------------------------------------------

    Molecular point group: c1
  Charge       = 0
  Multiplicity = 1
  Basis Set: AUG-CC-PVTZ
    Blend: AUG-CC-PVTZ
  Basis Set: (AUG-CC-PVTZ AUX)
    Blend: AUG-CC-PVTZ-JKFIT

    Orbital Energies [Eh]
    ---------------------

    Doubly Occupied:

       1A    -11.250934     2A    -11.237902     3A    -11.235941
       4A    -11.222558     5A    -11.212224     6A    -11.210801
       7A     -1.106594     8A     -1.019869     9A     -0.943386
      10A     -0.929981    11A     -0.785991    12A     -0.711289
      13A     -0.651953    14A     -0.618262    15A     -0.606233
      16A     -0.576694    17A     -0.539315    18A     -0.524601
      19A     -0.485446    20A     -0.472775    21A     -0.471443
      22A     -0.379905    23A     -0.376683

  @DF-RHF Final Energy:  -233.04678584685016

   => Energetics <=

    Nuclear Repulsion Energy =            222.4926229507410085
    One-Electron Energy =                -753.9372603292487156
    Two-Electron Energy =                 298.3978515316574658
    Total Energy =                       -233.0467858468501845
  Basis Set: (AUG-CC-PVTZ AUX)
    Blend: AUG-CC-PVTZ-RI
    Molecular point group: c1

    Geometry (in Angstrom), charge = 0, multiplicity = 1:

       Center              X                  Y                   Z               Mass
    ------------   -----------------  -----------------  -----------------  -----------------
         C            1.079226360558    -0.006959769319     0.358584545322    12.000000000000
         C           -0.264955139442     0.040471330681     1.108725645322    12.000000000000
         C            1.249601360558     1.253124230681    -0.485565454678    12.000000000000
         C            1.249714360558    -1.266881769319    -0.485783454678    12.000000000000
         C           -1.420581639442    -0.007060769319     0.169983545322    12.000000000000
         C           -2.373683639442    -0.006874769319    -0.593863454678    12.000000000000
         H            1.849961360558    -0.006997769319     1.141854545322     1.007825032230
         H           -0.338938639442    -0.887045769319     1.740269545322     1.007825032230
         H           -0.339032639442     0.872753230681     1.740411545322     1.007825032230
         H            2.235295360558     1.271260230681    -0.960830454678     1.007825032230
         H            1.151316360558     2.156300230681     0.125599545322     1.007825032230
         H            0.490074360558     1.290841230681    -1.272173454678     1.007825032230
         H            2.235411360558    -1.284850769319    -0.961047454678     1.007825032230
         H            0.490194360558    -1.304522769319    -1.272402454678     1.007825032230
         H            1.151501360558    -2.170173769319     0.125221545322     1.007825032230
         H           -3.202428639442    -0.006843769319    -1.265163454678     1.007825032230

  Basis Set: AUG-CC-PVTZ
    Blend: AUG-CC-PVTZ
  Basis Set: (AUG-CC-PVTZ AUX)
    Blend: AUG-CC-PVTZ-JKFIT
	 Reference Energy          =    -233.0467858468501561 [Eh]
	 Singles Energy            =      -0.0000000000000000 [Eh]
	 Same-Spin Energy          =      -0.2497066254796549 [Eh]
	 Opposite-Spin Energy      =      -0.8890142560413642 [Eh]
	 Correlation Energy        =      -1.1387208815210190 [Eh]
	 Total Energy              =    -234.1855067283711662 [Eh]

	 ================> DF-SCS-MP2 Energies <==================
	-----------------------------------------------------------
	 SCS Same-Spin Scale       =       0.3333333333333333 [-]
	 SCS Opposite-Spin Scale   =       1.2000000000000000 [-]
	 SCS Same-Spin Energy      =      -0.0832355418265516 [Eh]
	 SCS Opposite-Spin Energy  =      -1.0668171072496371 [Eh]
	 SCS Correlation Energy    =      -1.1500526490761886 [Eh]
	 SCS Total Energy          =    -234.1968384959263574 [Eh]
	-----------------------------------------------------------

  Dipole Moment: [D]
     X:     0.6668      Y:     0.0252      Z:     0.3284     Total:     0.7437

*** Psi4 exiting successfully. Buy a developer a beer!
