                               Psi4 1.4a3.dev225

  ==> Input File <==

--------------------------------------------------------------------------
#psi4
#
memory 32 gb

molecule  {
0 1
  C        1.0191550    -0.0000090     0.3706600
  C       -0.3376930    -0.0001380     1.0991850
  C        1.1895300     1.2600750    -0.4734900
  C        1.1896430    -1.2599310    -0.4737080
  C       -1.4650540    -0.0001104     0.1945758
  C       -2.4337550     0.0000760    -0.5817880
  H        1.7898900    -0.0000470     1.1539300
  H       -0.3990100    -0.8800950     1.7523450
  H       -0.3991040     0.8797040     1.7524870
  H        2.1752240     1.2782110    -0.9487550
  H        1.0912450     2.1632510     0.1376750
  H        0.4300030     1.2977920    -1.2600980
  H        2.1753400    -1.2779000    -0.9489720
  H        0.4301230    -1.2975720    -1.2603270
  H        1.0914300    -2.1632230     0.1372970
  H       -3.2625000     0.0001070    -1.2530880
units angstrom
no_reorient  #important for SAPT in psi4, default
symmetry c1  #important for SAPT in psi4, default
}

set PROPERTIES_ORIGIN ["COM"]
properties('MP2/aug-cc-pvtz', properties = ['dipole'])
--------------------------------------------------------------------------

    Molecular point group: c1
  Charge       = 0
  Multiplicity = 1
  Basis Set: AUG-CC-PVTZ
    Blend: AUG-CC-PVTZ
  Basis Set: (AUG-CC-PVTZ AUX)
    Blend: AUG-CC-PVTZ-JKFIT

    Orbital Energies [Eh]
    ---------------------

    Doubly Occupied:

       1A    -11.249139     2A    -11.242945     3A    -11.236244
       4A    -11.229125     5A    -11.211389     6A    -11.211371
       7A     -1.110022     8A     -1.019995     9A     -0.941621
      10A     -0.930207    11A     -0.789195    12A     -0.711578
      13A     -0.652314    14A     -0.616841    15A     -0.610937
      16A     -0.580472    17A     -0.539437    18A     -0.523716
      19A     -0.485251    20A     -0.473781    21A     -0.472950
      22A     -0.372854    23A     -0.372822

  @DF-RHF Final Energy:  -233.04529287957274

   => Energetics <=

    Nuclear Repulsion Energy =            222.8015485144551633
    One-Electron Energy =                -754.5252680977368982
    Two-Electron Energy =                 298.6784267037090217
    Total Energy =                       -233.0452928795727416
  Basis Set: (AUG-CC-PVTZ AUX)
    Blend: AUG-CC-PVTZ-RI
    Molecular point group: c1

    Geometry (in Angstrom), charge = 0, multiplicity = 1:

       Center              X                  Y                   Z               Mass
    ------------   -----------------  -----------------  -----------------  -----------------
         C            1.078797623348    -0.000006331621     0.359914880698    12.000000000000
         C           -0.278050376652    -0.000135331621     1.088439880698    12.000000000000
         C            1.249172623348     1.260077668379    -0.484235119302    12.000000000000
         C            1.249285623348    -1.259928331621    -0.484453119302    12.000000000000
         C           -1.405411376652    -0.000107731621     0.183830680698    12.000000000000
         C           -2.374112376652     0.000078668379    -0.592533119302    12.000000000000
         H            1.849532623348    -0.000044331621     1.143184880698     1.007825032230
         H           -0.339367376652    -0.880092331621     1.741599880698     1.007825032230
         H           -0.339461376652     0.879706668379     1.741741880698     1.007825032230
         H            2.234866623348     1.278213668379    -0.959500119302     1.007825032230
         H            1.150887623348     2.163253668379     0.126929880698     1.007825032230
         H            0.489645623348     1.297794668379    -1.270843119302     1.007825032230
         H            2.234982623348    -1.277897331621    -0.959717119302     1.007825032230
         H            0.489765623348    -1.297569331621    -1.271072119302     1.007825032230
         H            1.151072623348    -2.163220331621     0.126551880698     1.007825032230
         H           -3.202857376652     0.000109668379    -1.263833119302     1.007825032230

  Basis Set: AUG-CC-PVTZ
    Blend: AUG-CC-PVTZ
  Basis Set: (AUG-CC-PVTZ AUX)
    Blend: AUG-CC-PVTZ-JKFIT
	 Reference Energy          =    -233.0452928795727416 [Eh]
	 Singles Energy            =      -0.0000000000000000 [Eh]
	 Same-Spin Energy          =      -0.2510924929542372 [Eh]
	 Opposite-Spin Energy      =      -0.8911795929616877 [Eh]
	 Correlation Energy        =      -1.1422720859159248 [Eh]
	 Total Energy              =    -234.1875649654886615 [Eh]

	 ================> DF-SCS-MP2 Energies <==================
	-----------------------------------------------------------
	 SCS Same-Spin Scale       =       0.3333333333333333 [-]
	 SCS Opposite-Spin Scale   =       1.2000000000000000 [-]
	 SCS Same-Spin Energy      =      -0.0836974976514124 [Eh]
	 SCS Opposite-Spin Energy  =      -1.0694155115540251 [Eh]
	 SCS Correlation Energy    =      -1.1531130092054376 [Eh]
	 SCS Total Energy          =    -234.1984058887781828 [Eh]
	-----------------------------------------------------------

  Dipole Moment: [D]
     X:     0.6649      Y:    -0.0000      Z:     0.3285     Total:     0.7416

*** Psi4 exiting successfully. Buy a developer a beer!
