                               Psi4 1.4a3.dev225

  ==> Input File <==

--------------------------------------------------------------------------
#psi4
#
memory 32 gb

molecule  {
0 1
  C        1.0609222     0.0151563     0.4000465
  C       -0.3376930    -0.0001380     1.0991850
  C        1.1895300     1.2600750    -0.4734900
  C        1.1896430    -1.2599310    -0.4737080
  C       -1.4806530    -0.0001100     0.1820590
  C       -2.4337550     0.0000760    -0.5817880
  H        1.7898900    -0.0000470     1.1539300
  H       -0.3990100    -0.8800950     1.7523450
  H       -0.3991040     0.8797040     1.7524870
  H        2.1752240     1.2782110    -0.9487550
  H        1.0912450     2.1632510     0.1376750
  H        0.4300030     1.2977920    -1.2600980
  H        2.1753400    -1.2779000    -0.9489720
  H        0.4301230    -1.2975720    -1.2603270
  H        1.0914300    -2.1632230     0.1372970
  H       -3.2625000     0.0001070    -1.2530880
units angstrom
no_reorient  #important for SAPT in psi4, default
symmetry c1  #important for SAPT in psi4, default
}

set PROPERTIES_ORIGIN ["COM"]
properties('MP2/aug-cc-pvtz', properties = ['dipole'])
--------------------------------------------------------------------------

    Molecular point group: c1
  Charge       = 0
  Multiplicity = 1
  Basis Set: AUG-CC-PVTZ
    Blend: AUG-CC-PVTZ
  Basis Set: (AUG-CC-PVTZ AUX)
    Blend: AUG-CC-PVTZ-JKFIT

    Orbital Energies [Eh]
    ---------------------

    Doubly Occupied:

       1A    -11.250188     2A    -11.238061     3A    -11.234506
       4A    -11.223327     5A    -11.211723     6A    -11.211311
       7A     -1.103379     8A     -1.021439     9A     -0.940129
      10A     -0.927560    11A     -0.795066    12A     -0.710733
      13A     -0.648285    14A     -0.612596    15A     -0.608529
      16A     -0.578694    17A     -0.540619    18A     -0.521903
      19A     -0.489627    20A     -0.477157    21A     -0.465893
      22A     -0.377696    23A     -0.376471

  @DF-RHF Final Energy:  -233.04675024737710

   => Energetics <=

    Nuclear Repulsion Energy =            222.2305543697081873
    One-Electron Energy =                -753.4248228544053063
    Two-Electron Energy =                 298.1475182373200141
    Total Energy =                       -233.0467502473770764
  Basis Set: (AUG-CC-PVTZ AUX)
    Blend: AUG-CC-PVTZ-RI
    Molecular point group: c1

    Geometry (in Angstrom), charge = 0, multiplicity = 1:

       Center              X                  Y                   Z               Mass
    ------------   -----------------  -----------------  -----------------  -----------------
         C            1.116738981560     0.012941713512     0.386834997714    12.000000000000
         C           -0.281876218440    -0.002352586488     1.085973497714    12.000000000000
         C            1.245346781560     1.257860413512    -0.486701502286    12.000000000000
         C            1.245459781560    -1.262145586488    -0.486919502286    12.000000000000
         C           -1.424836218440    -0.002324586488     0.168847497714    12.000000000000
         C           -2.377938218440    -0.002138586488    -0.594999502286    12.000000000000
         H            1.845706781560    -0.002261586488     1.140718497714     1.007825032230
         H           -0.343193218440    -0.882309586488     1.739133497714     1.007825032230
         H           -0.343287218440     0.877489413512     1.739275497714     1.007825032230
         H            2.231040781560     1.275996413512    -0.961966502286     1.007825032230
         H            1.147061781560     2.161036413512     0.124463497714     1.007825032230
         H            0.485819781560     1.295577413512    -1.273309502286     1.007825032230
         H            2.231156781560    -1.280114586488    -0.962183502286     1.007825032230
         H            0.485939781560    -1.299786586488    -1.273538502286     1.007825032230
         H            1.147246781560    -2.165437586488     0.124085497714     1.007825032230
         H           -3.206683218440    -0.002107586488    -1.266299502286     1.007825032230

  Basis Set: AUG-CC-PVTZ
    Blend: AUG-CC-PVTZ
  Basis Set: (AUG-CC-PVTZ AUX)
    Blend: AUG-CC-PVTZ-JKFIT
	 Reference Energy          =    -233.0467502473771049 [Eh]
	 Singles Energy            =      -0.0000000000000000 [Eh]
	 Same-Spin Energy          =      -0.2497842075594365 [Eh]
	 Opposite-Spin Energy      =      -0.8891195656244024 [Eh]
	 Correlation Energy        =      -1.1389037731838390 [Eh]
	 Total Energy              =    -234.1856540205609463 [Eh]

	 ================> DF-SCS-MP2 Energies <==================
	-----------------------------------------------------------
	 SCS Same-Spin Scale       =       0.3333333333333333 [-]
	 SCS Opposite-Spin Scale   =       1.2000000000000000 [-]
	 SCS Same-Spin Energy      =      -0.0832614025198122 [Eh]
	 SCS Opposite-Spin Energy  =      -1.0669434787492829 [Eh]
	 SCS Correlation Energy    =      -1.1502048812690950 [Eh]
	 SCS Total Energy          =    -234.1969551286462092 [Eh]
	-----------------------------------------------------------

  Dipole Moment: [D]
     X:     0.6732      Y:     0.0116      Z:     0.3253     Total:     0.7478

*** Psi4 exiting successfully. Buy a developer a beer!
