                               Psi4 1.4a3.dev225

  ==> Input File <==

--------------------------------------------------------------------------
#psi4
#
memory 32 gb

molecule  {
0 1
  C        1.0191550    -0.0000090     0.3706600
  C       -0.3376930    -0.0001380     1.0991850
  C        1.1895300     1.2600750    -0.4734900
  C        1.1896430    -1.2599310    -0.4737080
  C       -1.4806530    -0.0001100     0.1820590
  C       -2.4337550     0.0000760    -0.5817880
  H        1.8039176    -0.0000477     1.1681857
  H       -0.3990100    -0.8800950     1.7523450
  H       -0.3991040     0.8797040     1.7524870
  H        2.1752240     1.2782110    -0.9487550
  H        1.0912450     2.1632510     0.1376750
  H        0.4300030     1.2977920    -1.2600980
  H        2.1753400    -1.2779000    -0.9489720
  H        0.4301230    -1.2975720    -1.2603270
  H        1.0914300    -2.1632230     0.1372970
  H       -3.2625000     0.0001070    -1.2530880
units angstrom
no_reorient  #important for SAPT in psi4, default
symmetry c1  #important for SAPT in psi4, default
}

set PROPERTIES_ORIGIN ["COM"]
properties('MP2/aug-cc-pvtz', properties = ['dipole'])
--------------------------------------------------------------------------

    Molecular point group: c1
  Charge       = 0
  Multiplicity = 1
  Basis Set: AUG-CC-PVTZ
    Blend: AUG-CC-PVTZ
  Basis Set: (AUG-CC-PVTZ AUX)
    Blend: AUG-CC-PVTZ-JKFIT

    Orbital Energies [Eh]
    ---------------------

    Doubly Occupied:

       1A    -11.250499     2A    -11.238361     3A    -11.237777
       4A    -11.223493     5A    -11.211443     6A    -11.211426
       7A     -1.107299     8A     -1.021640     9A     -0.942554
      10A     -0.930166    11A     -0.784949    12A     -0.710773
      13A     -0.650513    14A     -0.615490    15A     -0.609024
      16A     -0.578846    17A     -0.539267    18A     -0.523323
      19A     -0.484552    20A     -0.473707    21A     -0.470301
      22A     -0.378003    23A     -0.377982

  @DF-RHF Final Energy:  -233.04893696243167

   => Energetics <=

    Nuclear Repulsion Energy =            222.6471759760222824
    One-Electron Energy =                -754.2494480405807735
    Two-Electron Energy =                 298.5533351021268800
    Total Energy =                       -233.0489369624316396
  Basis Set: (AUG-CC-PVTZ AUX)
    Blend: AUG-CC-PVTZ-RI
    Molecular point group: c1

    Geometry (in Angstrom), charge = 0, multiplicity = 1:

       Center              X                  Y                   Z               Mass
    ------------   -----------------  -----------------  -----------------  -----------------
         C            1.080905984978    -0.000006381506     0.361569817885    12.000000000000
         C           -0.275942015022    -0.000135381506     1.090094817885    12.000000000000
         C            1.251280984978     1.260077618494    -0.482580182115    12.000000000000
         C            1.251393984978    -1.259928381506    -0.482798182115    12.000000000000
         C           -1.418902015022    -0.000107381506     0.172968817885    12.000000000000
         C           -2.372004015022     0.000078618494    -0.590878182115    12.000000000000
         H            1.865668584978    -0.000045081506     1.159095517885     1.007825032230
         H           -0.337259015022    -0.880092381506     1.743254817885     1.007825032230
         H           -0.337353015022     0.879706618494     1.743396817885     1.007825032230
         H            2.236974984978     1.278213618494    -0.957845182115     1.007825032230
         H            1.152995984978     2.163253618494     0.128584817885     1.007825032230
         H            0.491753984978     1.297794618494    -1.269188182115     1.007825032230
         H            2.237090984978    -1.277897381506    -0.958062182115     1.007825032230
         H            0.491873984978    -1.297569381506    -1.269417182115     1.007825032230
         H            1.153180984978    -2.163220381506     0.128206817885     1.007825032230
         H           -3.200749015022     0.000109618494    -1.262178182115     1.007825032230

  Basis Set: AUG-CC-PVTZ
    Blend: AUG-CC-PVTZ
  Basis Set: (AUG-CC-PVTZ AUX)
    Blend: AUG-CC-PVTZ-JKFIT
	 Reference Energy          =    -233.0489369624316680 [Eh]
	 Singles Energy            =      -0.0000000000000000 [Eh]
	 Same-Spin Energy          =      -0.2499892170686157 [Eh]
	 Opposite-Spin Energy      =      -0.8893476048933137 [Eh]
	 Correlation Energy        =      -1.1393368219619293 [Eh]
	 Total Energy              =    -234.1882737843936013 [Eh]

	 ================> DF-SCS-MP2 Energies <==================
	-----------------------------------------------------------
	 SCS Same-Spin Scale       =       0.3333333333333333 [-]
	 SCS Opposite-Spin Scale   =       1.2000000000000000 [-]
	 SCS Same-Spin Energy      =      -0.0833297390228719 [Eh]
	 SCS Opposite-Spin Energy  =      -1.0672171258719763 [Eh]
	 SCS Correlation Energy    =      -1.1505468648948483 [Eh]
	 SCS Total Energy          =    -234.1994838273265032 [Eh]
	-----------------------------------------------------------

  Dipole Moment: [D]
     X:     0.6362      Y:    -0.0000      Z:     0.3058     Total:     0.7059

*** Psi4 exiting successfully. Buy a developer a beer!
