                               Psi4 1.4a3.dev225

  ==> Input File <==

--------------------------------------------------------------------------
#psi4
#
memory 32 gb

molecule  {
0 1
  C        1.0191550    -0.0000090     0.3706600
  C       -0.3376930    -0.0001380     1.0991850
  C        1.1895300     1.2600750    -0.4734900
  C        1.1896430    -1.2599310    -0.4737080
  C       -1.4962520    -0.0001096     0.1695422
  C       -2.4337550     0.0000760    -0.5817880
  H        1.7898900    -0.0000470     1.1539300
  H       -0.3990100    -0.8800950     1.7523450
  H       -0.3991040     0.8797040     1.7524870
  H        2.1752240     1.2782110    -0.9487550
  H        1.0912450     2.1632510     0.1376750
  H        0.4300030     1.2977920    -1.2600980
  H        2.1753400    -1.2779000    -0.9489720
  H        0.4301230    -1.2975720    -1.2603270
  H        1.0914300    -2.1632230     0.1372970
  H       -3.2625000     0.0001070    -1.2530880
units angstrom
no_reorient  #important for SAPT in psi4, default
symmetry c1  #important for SAPT in psi4, default
}

set PROPERTIES_ORIGIN ["COM"]
properties('MP2/aug-cc-pvtz', properties = ['dipole'])
--------------------------------------------------------------------------

    Molecular point group: c1
  Charge       = 0
  Multiplicity = 1
  Basis Set: AUG-CC-PVTZ
    Blend: AUG-CC-PVTZ
  Basis Set: (AUG-CC-PVTZ AUX)
    Blend: AUG-CC-PVTZ-JKFIT

    Orbital Energies [Eh]
    ---------------------

    Doubly Occupied:

       1A    -11.251504     2A    -11.235492     3A    -11.232197
       4A    -11.217367     5A    -11.211096     6A    -11.211078
       7A     -1.105655     8A     -1.024173     9A     -0.942632
      10A     -0.929803    11A     -0.785365    12A     -0.709782
      13A     -0.649861    14A     -0.614022    15A     -0.607324
      16A     -0.577437    17A     -0.538882    18A     -0.522725
      19A     -0.483534    20A     -0.473138    21A     -0.472425
      22A     -0.382962    23A     -0.382903

  @DF-RHF Final Energy:  -233.05170984446625

   => Energetics <=

    Nuclear Repulsion Energy =            222.7005834828032675
    One-Electron Energy =                -754.3818704029716855
    Two-Electron Energy =                 298.6295770757021728
    Total Energy =                       -233.0517098444662452
  Basis Set: (AUG-CC-PVTZ AUX)
    Blend: AUG-CC-PVTZ-RI
    Molecular point group: c1

    Geometry (in Angstrom), charge = 0, multiplicity = 1:

       Center              X                  Y                   Z               Mass
    ------------   -----------------  -----------------  -----------------  -----------------
         C            1.083358831690    -0.000006448582     0.363574841758    12.000000000000
         C           -0.273489168310    -0.000135448582     1.092099841758    12.000000000000
         C            1.253733831690     1.260077551418    -0.480575158242    12.000000000000
         C            1.253846831690    -1.259928448582    -0.480793158242    12.000000000000
         C           -1.432048168310    -0.000107048582     0.162457041758    12.000000000000
         C           -2.369551168310     0.000078551418    -0.588873158242    12.000000000000
         H            1.854093831690    -0.000044448582     1.146844841758     1.007825032230
         H           -0.334806168310    -0.880092448582     1.745259841758     1.007825032230
         H           -0.334900168310     0.879706551418     1.745401841758     1.007825032230
         H            2.239427831690     1.278213551418    -0.955840158242     1.007825032230
         H            1.155448831690     2.163253551418     0.130589841758     1.007825032230
         H            0.494206831690     1.297794551418    -1.267183158242     1.007825032230
         H            2.239543831690    -1.277897448582    -0.956057158242     1.007825032230
         H            0.494326831690    -1.297569448582    -1.267412158242     1.007825032230
         H            1.155633831690    -2.163220448582     0.130211841758     1.007825032230
         H           -3.198296168310     0.000109551418    -1.260173158242     1.007825032230

  Basis Set: AUG-CC-PVTZ
    Blend: AUG-CC-PVTZ
  Basis Set: (AUG-CC-PVTZ AUX)
    Blend: AUG-CC-PVTZ-JKFIT
	 Reference Energy          =    -233.0517098444662452 [Eh]
	 Singles Energy            =      -0.0000000000000000 [Eh]
	 Same-Spin Energy          =      -0.2489292213162403 [Eh]
	 Opposite-Spin Energy      =      -0.8873394127897684 [Eh]
	 Correlation Energy        =      -1.1362686341060086 [Eh]
	 Total Energy              =    -234.1879784785722620 [Eh]

	 ================> DF-SCS-MP2 Energies <==================
	-----------------------------------------------------------
	 SCS Same-Spin Scale       =       0.3333333333333333 [-]
	 SCS Opposite-Spin Scale   =       1.2000000000000000 [-]
	 SCS Same-Spin Energy      =      -0.0829764071054134 [Eh]
	 SCS Opposite-Spin Energy  =      -1.0648072953477219 [Eh]
	 SCS Correlation Energy    =      -1.1477837024531352 [Eh]
	 SCS Total Energy          =    -234.1994935469193706 [Eh]
	-----------------------------------------------------------

  Dipole Moment: [D]
     X:     0.6345      Y:    -0.0000      Z:     0.3104     Total:     0.7063

*** Psi4 exiting successfully. Buy a developer a beer!
