                               Psi4 1.4a3.dev225

  ==> Input File <==

--------------------------------------------------------------------------
#psi4
#
memory 32 gb

molecule  {
0 1
  C        1.1448755     0.0500168     0.4555922
  C       -0.3376930    -0.0001380     1.0991850
  C        1.1895300     1.2600750    -0.4734900
  C        1.1896430    -1.2599310    -0.4737080
  C       -1.4806530    -0.0001100     0.1820590
  C       -2.4337550     0.0000760    -0.5817880
  H        1.7898900    -0.0000470     1.1539300
  H       -0.3990100    -0.8800950     1.7523450
  H       -0.3991040     0.8797040     1.7524870
  H        2.1752240     1.2782110    -0.9487550
  H        1.0912450     2.1632510     0.1376750
  H        0.4300030     1.2977920    -1.2600980
  H        2.1753400    -1.2779000    -0.9489720
  H        0.4301230    -1.2975720    -1.2603270
  H        1.0914300    -2.1632230     0.1372970
  H       -3.2625000     0.0001070    -1.2530880
units angstrom
no_reorient  #important for SAPT in psi4, default
symmetry c1  #important for SAPT in psi4, default
}

set PROPERTIES_ORIGIN ["COM"]
properties('MP2/aug-cc-pvtz', properties = ['dipole'])
--------------------------------------------------------------------------

    Molecular point group: c1
  Charge       = 0
  Multiplicity = 1
  Basis Set: AUG-CC-PVTZ
    Blend: AUG-CC-PVTZ
  Basis Set: (AUG-CC-PVTZ AUX)
    Blend: AUG-CC-PVTZ-JKFIT

    Orbital Energies [Eh]
    ---------------------

    Doubly Occupied:

       1A    -11.250567     2A    -11.238971     3A    -11.234000
       4A    -11.223424     5A    -11.213587     6A    -11.212873
       7A     -1.095911     8A     -1.021609     9A     -0.936416
      10A     -0.922728    11A     -0.815250    12A     -0.711290
      13A     -0.642290    14A     -0.610198    15A     -0.605125
      16A     -0.579222    17A     -0.544642    18A     -0.520705
      19A     -0.517795    20A     -0.465643    21A     -0.446502
      22A     -0.377506    23A     -0.372598

  @DF-RHF Final Energy:  -233.01886763191388

   => Energetics <=

    Nuclear Repulsion Energy =            221.1906553633810404
    One-Electron Energy =                -751.3013416446473229
    Two-Electron Energy =                 297.0918186493523763
    Total Energy =                       -233.0188676319138494
  Basis Set: (AUG-CC-PVTZ AUX)
    Blend: AUG-CC-PVTZ-RI
    Molecular point group: c1

    Geometry (in Angstrom), charge = 0, multiplicity = 1:

       Center              X                  Y                   Z               Mass
    ------------   -----------------  -----------------  -----------------  -----------------
         C            1.188418145647     0.042705540540     0.434259808229    12.000000000000
         C           -0.294150354353    -0.007449259460     1.077852608229    12.000000000000
         C            1.233072645647     1.252763740540    -0.494822391771    12.000000000000
         C            1.233185645647    -1.267242259460    -0.495040391771    12.000000000000
         C           -1.437110354353    -0.007421259460     0.160726608229    12.000000000000
         C           -2.390212354353    -0.007235259460    -0.603120391771    12.000000000000
         H            1.833432645647    -0.007358259460     1.132597608229     1.007825032230
         H           -0.355467354353    -0.887406259460     1.731012608229     1.007825032230
         H           -0.355561354353     0.872392740540     1.731154608229     1.007825032230
         H            2.218766645647     1.270899740540    -0.970087391771     1.007825032230
         H            1.134787645647     2.155939740540     0.116342608229     1.007825032230
         H            0.473545645647     1.290480740540    -1.281430391771     1.007825032230
         H            2.218882645647    -1.285211259460    -0.970304391771     1.007825032230
         H            0.473665645647    -1.304883259460    -1.281659391771     1.007825032230
         H            1.134972645647    -2.170534259460     0.115964608229     1.007825032230
         H           -3.218957354353    -0.007204259460    -1.274420391771     1.007825032230

  Basis Set: AUG-CC-PVTZ
    Blend: AUG-CC-PVTZ
  Basis Set: (AUG-CC-PVTZ AUX)
    Blend: AUG-CC-PVTZ-JKFIT
	 Reference Energy          =    -233.0188676319138779 [Eh]
	 Singles Energy            =      -0.0000000000000000 [Eh]
	 Same-Spin Energy          =      -0.2498340328265855 [Eh]
	 Opposite-Spin Energy      =      -0.8901602391280230 [Eh]
	 Correlation Energy        =      -1.1399942719546086 [Eh]
	 Total Energy              =    -234.1588619038684840 [Eh]

	 ================> DF-SCS-MP2 Energies <==================
	-----------------------------------------------------------
	 SCS Same-Spin Scale       =       0.3333333333333333 [-]
	 SCS Opposite-Spin Scale   =       1.2000000000000000 [-]
	 SCS Same-Spin Energy      =      -0.0832780109421952 [Eh]
	 SCS Opposite-Spin Energy  =      -1.0681922869536276 [Eh]
	 SCS Correlation Energy    =      -1.1514702978958227 [Eh]
	 SCS Total Energy          =    -234.1703379298097047 [Eh]
	-----------------------------------------------------------

  Dipole Moment: [D]
     X:     0.7066      Y:     0.0407      Z:     0.3192     Total:     0.7764

*** Psi4 exiting successfully. Buy a developer a beer!
