                               Psi4 1.4a3.dev225

  ==> Input File <==

--------------------------------------------------------------------------
#psi4
#
memory 32 gb

molecule  {
0 1
  C        0.9702098     0.0164817     0.3837165
  C       -0.3376930    -0.0001380     1.0991850
  C        1.1895300     1.2600750    -0.4734900
  C        1.1896430    -1.2599310    -0.4737080
  C       -1.4806530    -0.0001100     0.1820590
  C       -2.4337550     0.0000760    -0.5817880
  H        1.7898900    -0.0000470     1.1539300
  H       -0.3990100    -0.8800950     1.7523450
  H       -0.3991040     0.8797040     1.7524870
  H        2.1752240     1.2782110    -0.9487550
  H        1.0912450     2.1632510     0.1376750
  H        0.4300030     1.2977920    -1.2600980
  H        2.1753400    -1.2779000    -0.9489720
  H        0.4301230    -1.2975720    -1.2603270
  H        1.0914300    -2.1632230     0.1372970
  H       -3.2625000     0.0001070    -1.2530880
units angstrom
no_reorient  #important for SAPT in psi4, default
symmetry c1  #important for SAPT in psi4, default
}

set PROPERTIES_ORIGIN ["COM"]
properties('MP2/aug-cc-pvtz', properties = ['dipole'])
--------------------------------------------------------------------------

    Molecular point group: c1
  Charge       = 0
  Multiplicity = 1
  Basis Set: AUG-CC-PVTZ
    Blend: AUG-CC-PVTZ
  Basis Set: (AUG-CC-PVTZ AUX)
    Blend: AUG-CC-PVTZ-JKFIT

    Orbital Energies [Eh]
    ---------------------

    Doubly Occupied:

       1A    -11.249957     2A    -11.238084     3A    -11.236414
       4A    -11.224222     5A    -11.211787     6A    -11.211357
       7A     -1.112794     8A     -1.020339     9A     -0.945655
      10A     -0.927797    11A     -0.785690    12A     -0.711355
      13A     -0.653814    14A     -0.619846    15A     -0.609711
      16A     -0.576593    17A     -0.536648    18A     -0.523702
      19A     -0.497373    20A     -0.467957    21A     -0.460222
      22A     -0.380569    23A     -0.378447

  @DF-RHF Final Energy:  -233.04629867387189

   => Energetics <=

    Nuclear Repulsion Energy =            223.0963330334359114
    One-Electron Energy =                -755.1245957397046595
    Two-Electron Energy =                 298.9819640323968315
    Total Energy =                       -233.0462986738718882
  Basis Set: (AUG-CC-PVTZ AUX)
    Blend: AUG-CC-PVTZ-RI
    Molecular point group: c1

    Geometry (in Angstrom), charge = 0, multiplicity = 1:

       Center              X                  Y                   Z               Mass
    ------------   -----------------  -----------------  -----------------  -----------------
         C            1.039288911053     0.014073337452     0.372892475508    12.000000000000
         C           -0.268613888947    -0.002546362548     1.088360975508    12.000000000000
         C            1.258609111053     1.257666637452    -0.484314024492    12.000000000000
         C            1.258722111053    -1.262339362548    -0.484532024492    12.000000000000
         C           -1.411573888947    -0.002518362548     0.171234975508    12.000000000000
         C           -2.364675888947    -0.002332362548    -0.592612024492    12.000000000000
         H            1.858969111053    -0.002455362548     1.143105975508     1.007825032230
         H           -0.329930888947    -0.882503362548     1.741520975508     1.007825032230
         H           -0.330024888947     0.877295637452     1.741662975508     1.007825032230
         H            2.244303111053     1.275802637452    -0.959579024492     1.007825032230
         H            1.160324111053     2.160842637452     0.126850975508     1.007825032230
         H            0.499082111053     1.295383637452    -1.270922024492     1.007825032230
         H            2.244419111053    -1.280308362548    -0.959796024492     1.007825032230
         H            0.499202111053    -1.299980362548    -1.271151024492     1.007825032230
         H            1.160509111053    -2.165631362548     0.126472975508     1.007825032230
         H           -3.193420888947    -0.002301362548    -1.263912024492     1.007825032230

  Basis Set: AUG-CC-PVTZ
    Blend: AUG-CC-PVTZ
  Basis Set: (AUG-CC-PVTZ AUX)
    Blend: AUG-CC-PVTZ-JKFIT
	 Reference Energy          =    -233.0462986738718882 [Eh]
	 Singles Energy            =      -0.0000000000000000 [Eh]
	 Same-Spin Energy          =      -0.2501726305003332 [Eh]
	 Opposite-Spin Energy      =      -0.8896412600879147 [Eh]
	 Correlation Energy        =      -1.1398138905882478 [Eh]
	 Total Energy              =    -234.1861125644601316 [Eh]

	 ================> DF-SCS-MP2 Energies <==================
	-----------------------------------------------------------
	 SCS Same-Spin Scale       =       0.3333333333333333 [-]
	 SCS Opposite-Spin Scale   =       1.2000000000000000 [-]
	 SCS Same-Spin Energy      =      -0.0833908768334444 [Eh]
	 SCS Opposite-Spin Energy  =      -1.0675695121054976 [Eh]
	 SCS Correlation Energy    =      -1.1509603889389419 [Eh]
	 SCS Total Energy          =    -234.1972590628108435 [Eh]
	-----------------------------------------------------------

  Dipole Moment: [D]
     X:     0.5971      Y:     0.0122      Z:     0.3212     Total:     0.6782

*** Psi4 exiting successfully. Buy a developer a beer!
