                               Psi4 1.4a3.dev225

  ==> Input File <==

--------------------------------------------------------------------------
#psi4
#
memory 32 gb

molecule  {
0 1
  C        0.9362940    -0.0257174     0.3088386
  C       -0.3376930    -0.0001380     1.0991850
  C        1.1895300     1.2600750    -0.4734900
  C        1.1896430    -1.2599310    -0.4737080
  C       -1.4806530    -0.0001100     0.1820590
  C       -2.4337550     0.0000760    -0.5817880
  H        1.7898900    -0.0000470     1.1539300
  H       -0.3990100    -0.8800950     1.7523450
  H       -0.3991040     0.8797040     1.7524870
  H        2.1752240     1.2782110    -0.9487550
  H        1.0912450     2.1632510     0.1376750
  H        0.4300030     1.2977920    -1.2600980
  H        2.1753400    -1.2779000    -0.9489720
  H        0.4301230    -1.2975720    -1.2603270
  H        1.0914300    -2.1632230     0.1372970
  H       -3.2625000     0.0001070    -1.2530880
units angstrom
no_reorient  #important for SAPT in psi4, default
symmetry c1  #important for SAPT in psi4, default
}

set PROPERTIES_ORIGIN ["COM"]
properties('MP2/aug-cc-pvtz', properties = ['dipole'])
--------------------------------------------------------------------------

    Molecular point group: c1
  Charge       = 0
  Multiplicity = 1
  Basis Set: AUG-CC-PVTZ
    Blend: AUG-CC-PVTZ
  Basis Set: (AUG-CC-PVTZ AUX)
    Blend: AUG-CC-PVTZ-JKFIT

    Orbital Energies [Eh]
    ---------------------

    Doubly Occupied:

       1A    -11.251420     2A    -11.240818     3A    -11.237057
       4A    -11.223599     5A    -11.212393     6A    -11.211295
       7A     -1.117259     8A     -1.023206     9A     -0.947774
      10A     -0.934831    11A     -0.775733    12A     -0.711918
      13A     -0.655871    14A     -0.621609    15A     -0.610889
      16A     -0.580626    17A     -0.537032    18A     -0.527200
      19A     -0.501334    20A     -0.482377    21A     -0.436217
      22A     -0.379845    23A     -0.378413

  @DF-RHF Final Energy:  -233.03671353931804

   => Energetics <=

    Nuclear Repulsion Energy =            223.7297649142311968
    One-Electron Energy =                -756.3355257460422081
    Two-Electron Energy =                 299.5690472924929963
    Total Energy =                       -233.0367135393180433
  Basis Set: (AUG-CC-PVTZ AUX)
    Blend: AUG-CC-PVTZ-RI
    Molecular point group: c1

    Geometry (in Angstrom), charge = 0, multiplicity = 1:

       Center              X                  Y                   Z               Mass
    ------------   -----------------  -----------------  -----------------  -----------------
         C            1.010331667046    -0.021956171968     0.308961870272    12.000000000000
         C           -0.263655332954     0.003623228032     1.099308270272    12.000000000000
         C            1.263567667046     1.263836228032    -0.473366729728    12.000000000000
         C            1.263680667046    -1.256169771968    -0.473584729728    12.000000000000
         C           -1.406615332954     0.003651228032     0.182182270272    12.000000000000
         C           -2.359717332954     0.003837228032    -0.581664729728    12.000000000000
         H            1.863927667046     0.003714228032     1.154053270272     1.007825032230
         H           -0.324972332954    -0.876333771968     1.752468270272     1.007825032230
         H           -0.325066332954     0.883465228032     1.752610270272     1.007825032230
         H            2.249261667046     1.281972228032    -0.948631729728     1.007825032230
         H            1.165282667046     2.167012228032     0.137798270272     1.007825032230
         H            0.504040667046     1.301553228032    -1.259974729728     1.007825032230
         H            2.249377667046    -1.274138771968    -0.948848729728     1.007825032230
         H            0.504160667046    -1.293810771968    -1.260203729728     1.007825032230
         H            1.165467667046    -2.159461771968     0.137420270272     1.007825032230
         H           -3.188462332954     0.003868228032    -1.252964729728     1.007825032230

  Basis Set: AUG-CC-PVTZ
    Blend: AUG-CC-PVTZ
  Basis Set: (AUG-CC-PVTZ AUX)
    Blend: AUG-CC-PVTZ-JKFIT
	 Reference Energy          =    -233.0367135393180433 [Eh]
	 Singles Energy            =      -0.0000000000000000 [Eh]
	 Same-Spin Energy          =      -0.2507862249962934 [Eh]
	 Opposite-Spin Energy      =      -0.8904799477401166 [Eh]
	 Correlation Energy        =      -1.1412661727364100 [Eh]
	 Total Energy              =    -234.1779797120544515 [Eh]

	 ================> DF-SCS-MP2 Energies <==================
	-----------------------------------------------------------
	 SCS Same-Spin Scale       =       0.3333333333333333 [-]
	 SCS Opposite-Spin Scale   =       1.2000000000000000 [-]
	 SCS Same-Spin Energy      =      -0.0835954083320978 [Eh]
	 SCS Opposite-Spin Energy  =      -1.0685759372881398 [Eh]
	 SCS Correlation Energy    =      -1.1521713456202376 [Eh]
	 SCS Total Energy          =    -234.1888848849382896 [Eh]
	-----------------------------------------------------------

  Dipole Moment: [D]
     X:     0.5784      Y:    -0.0185      Z:     0.2838     Total:     0.6446

*** Psi4 exiting successfully. Buy a developer a beer!
