                               Psi4 1.4a3.dev225

  ==> Input File <==

--------------------------------------------------------------------------
#psi4
#
memory 32 gb

molecule  {
0 1
  C        1.0191550    -0.0000090     0.3706600
  C       -0.3107223     0.0949244     1.1415032
  C        1.1895300     1.2600750    -0.4734900
  C        1.1896430    -1.2599310    -0.4737080
  C       -1.4806530    -0.0001100     0.1820590
  C       -2.4337550     0.0000760    -0.5817880
  H        1.7898900    -0.0000470     1.1539300
  H       -0.3990100    -0.8800950     1.7523450
  H       -0.3991040     0.8797040     1.7524870
  H        2.1752240     1.2782110    -0.9487550
  H        1.0912450     2.1632510     0.1376750
  H        0.4300030     1.2977920    -1.2600980
  H        2.1753400    -1.2779000    -0.9489720
  H        0.4301230    -1.2975720    -1.2603270
  H        1.0914300    -2.1632230     0.1372970
  H       -3.2625000     0.0001070    -1.2530880
units angstrom
no_reorient  #important for SAPT in psi4, default
symmetry c1  #important for SAPT in psi4, default
}

set PROPERTIES_ORIGIN ["COM"]
properties('MP2/aug-cc-pvtz', properties = ['dipole'])
--------------------------------------------------------------------------

    Molecular point group: c1
  Charge       = 0
  Multiplicity = 1
  Basis Set: AUG-CC-PVTZ
    Blend: AUG-CC-PVTZ
  Basis Set: (AUG-CC-PVTZ AUX)
    Blend: AUG-CC-PVTZ-JKFIT

    Orbital Energies [Eh]
    ---------------------

    Doubly Occupied:

       1A    -11.252392     2A    -11.238245     3A    -11.236475
       4A    -11.221731     5A    -11.213433     6A    -11.210501
       7A     -1.105881     8A     -1.018073     9A     -0.945337
      10A     -0.929868    11A     -0.785302    12A     -0.712908
      13A     -0.656347    14A     -0.618890    15A     -0.604265
      16A     -0.572767    17A     -0.539533    18A     -0.525692
      19A     -0.487468    20A     -0.470918    21A     -0.469545
      22A     -0.381202    23A     -0.375351

  @DF-RHF Final Energy:  -233.03691483547593

   => Energetics <=

    Nuclear Repulsion Energy =            222.2439839233750263
    One-Electron Energy =                -753.4175482988248405
    Two-Electron Energy =                 298.1366495399738596
    Total Energy =                       -233.0369148354759545
  Basis Set: (AUG-CC-PVTZ AUX)
    Blend: AUG-CC-PVTZ-RI
    Molecular point group: c1

    Geometry (in Angstrom), charge = 0, multiplicity = 1:

       Center              X                  Y                   Z               Mass
    ------------   -----------------  -----------------  -----------------  -----------------
         C            1.077135058668    -0.013904698064     0.355557857996    12.000000000000
         C           -0.252742241332     0.081028701936     1.126401057996    12.000000000000
         C            1.247510058668     1.246179301936    -0.488592142004    12.000000000000
         C            1.247623058668    -1.273826698064    -0.488810142004    12.000000000000
         C           -1.422672941332    -0.014005698064     0.166956857996    12.000000000000
         C           -2.375774941332    -0.013819698064    -0.596890142004    12.000000000000
         H            1.847870058668    -0.013942698064     1.138827857996     1.007825032230
         H           -0.341029941332    -0.893990698064     1.737242857996     1.007825032230
         H           -0.341123941332     0.865808301936     1.737384857996     1.007825032230
         H            2.233204058668     1.264315301936    -0.963857142004     1.007825032230
         H            1.149225058668     2.149355301936     0.122572857996     1.007825032230
         H            0.487983058668     1.283896301936    -1.275200142004     1.007825032230
         H            2.233320058668    -1.291795698064    -0.964074142004     1.007825032230
         H            0.488103058668    -1.311467698064    -1.275429142004     1.007825032230
         H            1.149410058668    -2.177118698064     0.122194857996     1.007825032230
         H           -3.204519941332    -0.013788698064    -1.268190142004     1.007825032230

  Basis Set: AUG-CC-PVTZ
    Blend: AUG-CC-PVTZ
  Basis Set: (AUG-CC-PVTZ AUX)
    Blend: AUG-CC-PVTZ-JKFIT
	 Reference Energy          =    -233.0369148354759261 [Eh]
	 Singles Energy            =      -0.0000000000000000 [Eh]
	 Same-Spin Energy          =      -0.2495531175127901 [Eh]
	 Opposite-Spin Energy      =      -0.8892046317134834 [Eh]
	 Correlation Energy        =      -1.1387577492262735 [Eh]
	 Total Energy              =    -234.1756725847021983 [Eh]

	 ================> DF-SCS-MP2 Energies <==================
	-----------------------------------------------------------
	 SCS Same-Spin Scale       =       0.3333333333333333 [-]
	 SCS Opposite-Spin Scale   =       1.2000000000000000 [-]
	 SCS Same-Spin Energy      =      -0.0831843725042634 [Eh]
	 SCS Opposite-Spin Energy  =      -1.0670455580561800 [Eh]
	 SCS Correlation Energy    =      -1.1502299305604433 [Eh]
	 SCS Total Energy          =    -234.1871447660363685 [Eh]
	-----------------------------------------------------------

  Dipole Moment: [D]
     X:     0.6933      Y:     0.0473      Z:     0.3297     Total:     0.7691

*** Psi4 exiting successfully. Buy a developer a beer!
