                               Psi4 1.4a3.dev225

  ==> Input File <==

--------------------------------------------------------------------------
#psi4
#
memory 32 gb

molecule  {
0 1
  C        1.0400158     0.0073829     0.3854841
  C       -0.3376930    -0.0001380     1.0991850
  C        1.1895300     1.2600750    -0.4734900
  C        1.1896430    -1.2599310    -0.4737080
  C       -1.4806530    -0.0001100     0.1820590
  C       -2.4337550     0.0000760    -0.5817880
  H        1.7898900    -0.0000470     1.1539300
  H       -0.3990100    -0.8800950     1.7523450
  H       -0.3991040     0.8797040     1.7524870
  H        2.1752240     1.2782110    -0.9487550
  H        1.0912450     2.1632510     0.1376750
  H        0.4300030     1.2977920    -1.2600980
  H        2.1753400    -1.2779000    -0.9489720
  H        0.4301230    -1.2975720    -1.2603270
  H        1.0914300    -2.1632230     0.1372970
  H       -3.2625000     0.0001070    -1.2530880
units angstrom
no_reorient  #important for SAPT in psi4, default
symmetry c1  #important for SAPT in psi4, default
}

set PROPERTIES_ORIGIN ["COM"]
properties('MP2/aug-cc-pvtz', properties = ['dipole'])
--------------------------------------------------------------------------

    Molecular point group: c1
  Charge       = 0
  Multiplicity = 1
  Basis Set: AUG-CC-PVTZ
    Blend: AUG-CC-PVTZ
  Basis Set: (AUG-CC-PVTZ AUX)
    Blend: AUG-CC-PVTZ-JKFIT

    Orbital Energies [Eh]
    ---------------------

    Doubly Occupied:

       1A    -11.250222     2A    -11.237848     3A    -11.235082
       4A    -11.223325     5A    -11.211433     6A    -11.211210
       7A     -1.105500     8A     -1.021559     9A     -0.941236
      10A     -0.928779    11A     -0.790978    12A     -0.710712
      13A     -0.649710    14A     -0.613926    15A     -0.608833
      16A     -0.578822    17A     -0.539854    18A     -0.522507
      19A     -0.481318    20A     -0.480552    21A     -0.469959
      22A     -0.377768    23A     -0.377196

  @DF-RHF Final Energy:  -233.04895928855035

   => Energetics <=

    Nuclear Repulsion Energy =            222.4883738337615569
    One-Electron Energy =                -753.9380139187441046
    Two-Electron Energy =                 298.4006807964321979
    Total Energy =                       -233.0489592885503498
  Basis Set: (AUG-CC-PVTZ AUX)
    Blend: AUG-CC-PVTZ-RI
    Molecular point group: c1

    Geometry (in Angstrom), charge = 0, multiplicity = 1:

       Center              X                  Y                   Z               Mass
    ------------   -----------------  -----------------  -----------------  -----------------
         C            1.098889137944     0.006304799727     0.374401648946    12.000000000000
         C           -0.278819662056    -0.001216100273     1.088102548946    12.000000000000
         C            1.248403337944     1.258996899727    -0.484572451054    12.000000000000
         C            1.248516337944    -1.261009100273    -0.484790451054    12.000000000000
         C           -1.421779662056    -0.001188100273     0.170976548946    12.000000000000
         C           -2.374881662056    -0.001002100273    -0.592870451054    12.000000000000
         H            1.848763337944    -0.001125100273     1.142847548946     1.007825032230
         H           -0.340136662056    -0.881173100273     1.741262548946     1.007825032230
         H           -0.340230662056     0.878625899727     1.741404548946     1.007825032230
         H            2.234097337944     1.277132899727    -0.959837451054     1.007825032230
         H            1.150118337944     2.162172899727     0.126592548946     1.007825032230
         H            0.488876337944     1.296713899727    -1.271180451054     1.007825032230
         H            2.234213337944    -1.278978100273    -0.960054451054     1.007825032230
         H            0.488996337944    -1.298650100273    -1.271409451054     1.007825032230
         H            1.150303337944    -2.164301100273     0.126214548946     1.007825032230
         H           -3.203626662056    -0.000971100273    -1.264170451054     1.007825032230

  Basis Set: AUG-CC-PVTZ
    Blend: AUG-CC-PVTZ
  Basis Set: (AUG-CC-PVTZ AUX)
    Blend: AUG-CC-PVTZ-JKFIT
	 Reference Energy          =    -233.0489592885503498 [Eh]
	 Singles Energy            =      -0.0000000000000000 [Eh]
	 Same-Spin Energy          =      -0.2498659492475297 [Eh]
	 Opposite-Spin Energy      =      -0.8891169920574538 [Eh]
	 Correlation Energy        =      -1.1389829413049835 [Eh]
	 Total Energy              =    -234.1879422298553379 [Eh]

	 ================> DF-SCS-MP2 Energies <==================
	-----------------------------------------------------------
	 SCS Same-Spin Scale       =       0.3333333333333333 [-]
	 SCS Opposite-Spin Scale   =       1.2000000000000000 [-]
	 SCS Same-Spin Energy      =      -0.0832886497491766 [Eh]
	 SCS Opposite-Spin Energy  =      -1.0669403904689445 [Eh]
	 SCS Correlation Energy    =      -1.1502290402181210 [Eh]
	 SCS Total Energy          =    -234.1991883287684573 [Eh]
	-----------------------------------------------------------

  Dipole Moment: [D]
     X:     0.6616      Y:     0.0056      Z:     0.3229     Total:     0.7362

*** Psi4 exiting successfully. Buy a developer a beer!
