                               Psi4 1.4a3.dev225

  ==> Input File <==

--------------------------------------------------------------------------
#psi4
#
memory 32 gb

molecule  {
0 1
  C        1.0191550    -0.0000090     0.3706600
  C       -0.2936412    -0.0001338     1.0755325
  C        1.1895300     1.2600750    -0.4734900
  C        1.1896430    -1.2599310    -0.4737080
  C       -1.4806530    -0.0001100     0.1820590
  C       -2.4337550     0.0000760    -0.5817880
  H        1.7898900    -0.0000470     1.1539300
  H       -0.3990100    -0.8800950     1.7523450
  H       -0.3991040     0.8797040     1.7524870
  H        2.1752240     1.2782110    -0.9487550
  H        1.0912450     2.1632510     0.1376750
  H        0.4300030     1.2977920    -1.2600980
  H        2.1753400    -1.2779000    -0.9489720
  H        0.4301230    -1.2975720    -1.2603270
  H        1.0914300    -2.1632230     0.1372970
  H       -3.2625000     0.0001070    -1.2530880
units angstrom
no_reorient  #important for SAPT in psi4, default
symmetry c1  #important for SAPT in psi4, default
}

set PROPERTIES_ORIGIN ["COM"]
properties('MP2/aug-cc-pvtz', properties = ['dipole'])
--------------------------------------------------------------------------

    Molecular point group: c1
  Charge       = 0
  Multiplicity = 1
  Basis Set: AUG-CC-PVTZ
    Blend: AUG-CC-PVTZ
  Basis Set: (AUG-CC-PVTZ AUX)
    Blend: AUG-CC-PVTZ-JKFIT

    Orbital Energies [Eh]
    ---------------------

    Doubly Occupied:

       1A    -11.253505     2A    -11.238089     3A    -11.233169
       4A    -11.222933     5A    -11.211586     6A    -11.211568
       7A     -1.113478     8A     -1.020027     9A     -0.941498
      10A     -0.930902    11A     -0.789997    12A     -0.709422
      13A     -0.652965    14A     -0.613011    15A     -0.611302
      16A     -0.573861    17A     -0.538824    18A     -0.520177
      19A     -0.491206    20A     -0.472628    21A     -0.472159
      22A     -0.380257    23A     -0.376673

  @DF-RHF Final Energy:  -233.04698914551230

   => Energetics <=

    Nuclear Repulsion Energy =            223.1902634700308852
    One-Electron Energy =                -755.3160355604230745
    Two-Electron Energy =                 299.0787829448798902
    Total Energy =                       -233.0469891455122706
  Basis Set: (AUG-CC-PVTZ AUX)
    Blend: AUG-CC-PVTZ-RI
    Molecular point group: c1

    Geometry (in Angstrom), charge = 0, multiplicity = 1:

       Center              X                  Y                   Z               Mass
    ------------   -----------------  -----------------  -----------------  -----------------
         C            1.074637768592    -0.000007004150     0.365202902778    12.000000000000
         C           -0.238158431408    -0.000131804150     1.070075402778    12.000000000000
         C            1.245012768592     1.260076995850    -0.478947097222    12.000000000000
         C            1.245125768592    -1.259929004150    -0.479165097222    12.000000000000
         C           -1.425170231408    -0.000108004150     0.176601902778    12.000000000000
         C           -2.378272231408     0.000077995850    -0.587245097222    12.000000000000
         H            1.845372768592    -0.000045004150     1.148472902778     1.007825032230
         H           -0.343527231408    -0.880093004150     1.746887902778     1.007825032230
         H           -0.343621231408     0.879705995850     1.747029902778     1.007825032230
         H            2.230706768592     1.278212995850    -0.954212097222     1.007825032230
         H            1.146727768592     2.163252995850     0.132217902778     1.007825032230
         H            0.485485768592     1.297793995850    -1.265555097222     1.007825032230
         H            2.230822768592    -1.277898004150    -0.954429097222     1.007825032230
         H            0.485605768592    -1.297570004150    -1.265784097222     1.007825032230
         H            1.146912768592    -2.163221004150     0.131839902778     1.007825032230
         H           -3.207017231408     0.000108995850    -1.258545097222     1.007825032230

  Basis Set: AUG-CC-PVTZ
    Blend: AUG-CC-PVTZ
  Basis Set: (AUG-CC-PVTZ AUX)
    Blend: AUG-CC-PVTZ-JKFIT
	 Reference Energy          =    -233.0469891455122990 [Eh]
	 Singles Energy            =      -0.0000000000000000 [Eh]
	 Same-Spin Energy          =      -0.2501195673196190 [Eh]
	 Opposite-Spin Energy      =      -0.8894632780492334 [Eh]
	 Correlation Energy        =      -1.1395828453688523 [Eh]
	 Total Energy              =    -234.1865719908811627 [Eh]

	 ================> DF-SCS-MP2 Energies <==================
	-----------------------------------------------------------
	 SCS Same-Spin Scale       =       0.3333333333333333 [-]
	 SCS Opposite-Spin Scale   =       1.2000000000000000 [-]
	 SCS Same-Spin Energy      =      -0.0833731891065397 [Eh]
	 SCS Opposite-Spin Energy  =      -1.0673559336590801 [Eh]
	 SCS Correlation Energy    =      -1.1507291227656198 [Eh]
	 SCS Total Energy          =    -234.1977182682779244 [Eh]
	-----------------------------------------------------------

  Dipole Moment: [D]
     X:     0.6765      Y:    -0.0000      Z:     0.3046     Total:     0.7419

*** Psi4 exiting successfully. Buy a developer a beer!
