                               Psi4 1.4a3.dev225

  ==> Input File <==

--------------------------------------------------------------------------
#psi4
#
memory 32 gb

molecule  {
0 1
  C        1.0191550    -0.0000090     0.3706600
  C       -0.3376930    -0.0001380     1.0991850
  C        1.1895300     1.2600750    -0.4734900
  C        1.1896430    -1.2599310    -0.4737080
  C       -1.4806530    -0.0001100     0.1820590
  C       -2.4337550     0.0000760    -0.5817880
  H        1.7898900    -0.0000470     1.1539300
  H       -0.3990100    -0.8800950     1.7523450
  H       -0.3991040     0.8797040     1.7524870
  H        2.1752240     1.2782110    -0.9487550
  H        1.0912450     2.1632510     0.1376750
  H        0.4300030     1.2977920    -1.2600980
  H        2.1573272    -1.2775716    -0.9402869
  H        0.4301230    -1.2975720    -1.2603270
  H        1.0914300    -2.1632230     0.1372970
  H       -3.2625000     0.0001070    -1.2530880
units angstrom
no_reorient  #important for SAPT in psi4, default
symmetry c1  #important for SAPT in psi4, default
}

set PROPERTIES_ORIGIN ["COM"]
properties('MP2/aug-cc-pvtz', properties = ['dipole'])
--------------------------------------------------------------------------

    Molecular point group: c1
  Charge       = 0
  Multiplicity = 1
  Basis Set: AUG-CC-PVTZ
    Blend: AUG-CC-PVTZ
  Basis Set: (AUG-CC-PVTZ AUX)
    Blend: AUG-CC-PVTZ-JKFIT

    Orbital Energies [Eh]
    ---------------------

    Doubly Occupied:

       1A    -11.250123     2A    -11.237532     3A    -11.235646
       4A    -11.223207     5A    -11.211218     6A    -11.208718
       7A     -1.107716     8A     -1.021865     9A     -0.942688
      10A     -0.931024    11A     -0.787672    12A     -0.710699
      13A     -0.651328    14A     -0.615885    15A     -0.609559
      16A     -0.578912    17A     -0.539084    18A     -0.525066
      19A     -0.485142    20A     -0.473237    21A     -0.472569
      22A     -0.377739    23A     -0.377727

  @DF-RHF Final Energy:  -233.04949813758870

   => Energetics <=

    Nuclear Repulsion Energy =            222.8312239313863472
    One-Electron Energy =                -754.6127313267570571
    Two-Electron Energy =                 298.7320092577819537
    Total Energy =                       -233.0494981375887278
  Basis Set: (AUG-CC-PVTZ AUX)
    Blend: AUG-CC-PVTZ-RI
    Molecular point group: c1

    Geometry (in Angstrom), charge = 0, multiplicity = 1:

       Center              X                  Y                   Z               Mass
    ------------   -----------------  -----------------  -----------------  -----------------
         C            1.081299403661    -0.000010422470     0.361638218346    12.000000000000
         C           -0.275548596339    -0.000139422470     1.090163218346    12.000000000000
         C            1.251674403661     1.260073577530    -0.482511781654    12.000000000000
         C            1.251787403661    -1.259932422470    -0.482729781654    12.000000000000
         C           -1.418508596339    -0.000111422470     0.173037218346    12.000000000000
         C           -2.371610596339     0.000074577530    -0.590809781654    12.000000000000
         H            1.852034403661    -0.000048422470     1.144908218346     1.007825032230
         H           -0.336865596339    -0.880096422470     1.743323218346     1.007825032230
         H           -0.336959596339     0.879702577530     1.743465218346     1.007825032230
         H            2.237368403661     1.278209577530    -0.957776781654     1.007825032230
         H            1.153389403661     2.163249577530     0.128653218346     1.007825032230
         H            0.492147403661     1.297790577530    -1.269119781654     1.007825032230
         H            2.219471603661    -1.277573022470    -0.949308681654     1.007825032230
         H            0.492267403661    -1.297573422470    -1.269348781654     1.007825032230
         H            1.153574403661    -2.163224422470     0.128275218346     1.007825032230
         H           -3.200355596339     0.000105577530    -1.262109781654     1.007825032230

  Basis Set: AUG-CC-PVTZ
    Blend: AUG-CC-PVTZ
  Basis Set: (AUG-CC-PVTZ AUX)
    Blend: AUG-CC-PVTZ-JKFIT
	 Reference Energy          =    -233.0494981375886994 [Eh]
	 Singles Energy            =      -0.0000000000000000 [Eh]
	 Same-Spin Energy          =      -0.2499883892565851 [Eh]
	 Opposite-Spin Energy      =      -0.8890934267984280 [Eh]
	 Correlation Energy        =      -1.1390818160550131 [Eh]
	 Total Energy              =    -234.1885799536437105 [Eh]

	 ================> DF-SCS-MP2 Energies <==================
	-----------------------------------------------------------
	 SCS Same-Spin Scale       =       0.3333333333333333 [-]
	 SCS Opposite-Spin Scale   =       1.2000000000000000 [-]
	 SCS Same-Spin Energy      =      -0.0833294630855284 [Eh]
	 SCS Opposite-Spin Energy  =      -1.0669121121581135 [Eh]
	 SCS Correlation Energy    =      -1.1502415752436419 [Eh]
	 SCS Total Energy          =    -234.1997397128323541 [Eh]
	-----------------------------------------------------------

  Dipole Moment: [D]
     X:     0.6615      Y:    -0.0035      Z:     0.3118     Total:     0.7313

*** Psi4 exiting successfully. Buy a developer a beer!
