                               Psi4 1.4a3.dev225

  ==> Input File <==

--------------------------------------------------------------------------
#psi4
#
memory 32 gb

molecule  {
0 1
  C        0.8953012    -0.0362291     0.2764791
  C       -0.3376930    -0.0001380     1.0991850
  C        1.1895300     1.2600750    -0.4734900
  C        1.1896430    -1.2599310    -0.4737080
  C       -1.4806530    -0.0001100     0.1820590
  C       -2.4337550     0.0000760    -0.5817880
  H        1.7898900    -0.0000470     1.1539300
  H       -0.3990100    -0.8800950     1.7523450
  H       -0.3991040     0.8797040     1.7524870
  H        2.1752240     1.2782110    -0.9487550
  H        1.0912450     2.1632510     0.1376750
  H        0.4300030     1.2977920    -1.2600980
  H        2.1753400    -1.2779000    -0.9489720
  H        0.4301230    -1.2975720    -1.2603270
  H        1.0914300    -2.1632230     0.1372970
  H       -3.2625000     0.0001070    -1.2530880
units angstrom
no_reorient  #important for SAPT in psi4, default
symmetry c1  #important for SAPT in psi4, default
}

set PROPERTIES_ORIGIN ["COM"]
properties('MP2/aug-cc-pvtz', properties = ['dipole'])
--------------------------------------------------------------------------

    Molecular point group: c1
  Charge       = 0
  Multiplicity = 1
  Basis Set: AUG-CC-PVTZ
    Blend: AUG-CC-PVTZ
  Basis Set: (AUG-CC-PVTZ AUX)
    Blend: AUG-CC-PVTZ-JKFIT

    Orbital Energies [Eh]
    ---------------------

    Doubly Occupied:

       1A    -11.252450     2A    -11.244542     3A    -11.236954
       4A    -11.223917     5A    -11.213630     6A    -11.211932
       7A     -1.122367     8A     -1.024390     9A     -0.950737
      10A     -0.937283    11A     -0.771682    12A     -0.713156
      13A     -0.657775    14A     -0.624860    15A     -0.612486
      16A     -0.581744    17A     -0.536784    18A     -0.530109
      19A     -0.508901    20A     -0.484949    21A     -0.417630
      22A     -0.380420    23A     -0.378855

  @DF-RHF Final Energy:  -233.02282552476225

   => Energetics <=

    Nuclear Repulsion Energy =            224.1902749087522295
    One-Electron Energy =                -757.1910951201366515
    Two-Electron Energy =                 299.9779946866221394
    Total Energy =                       -233.0228255247622542
  Basis Set: (AUG-CC-PVTZ AUX)
    Blend: AUG-CC-PVTZ-RI
    Molecular point group: c1

    Geometry (in Angstrom), charge = 0, multiplicity = 1:

       Center              X                  Y                   Z               Mass
    ------------   -----------------  -----------------  -----------------  -----------------
         C            0.975332094217    -0.030931040963     0.281333392174    12.000000000000
         C           -0.257662105783     0.005160059037     1.104039292174    12.000000000000
         C            1.269560894217     1.265373059037    -0.468635707826    12.000000000000
         C            1.269673894217    -1.254632940963    -0.468853707826    12.000000000000
         C           -1.400622105783     0.005188059037     0.186913292174    12.000000000000
         C           -2.353724105783     0.005374059037    -0.576933707826    12.000000000000
         H            1.869920894217     0.005251059037     1.158784292174     1.007825032230
         H           -0.318979105783    -0.874796940963     1.757199292174     1.007825032230
         H           -0.319073105783     0.885002059037     1.757341292174     1.007825032230
         H            2.255254894217     1.283509059037    -0.943900707826     1.007825032230
         H            1.171275894217     2.168549059037     0.142529292174     1.007825032230
         H            0.510033894217     1.303090059037    -1.255243707826     1.007825032230
         H            2.255370894217    -1.272601940963    -0.944117707826     1.007825032230
         H            0.510153894217    -1.292273940963    -1.255472707826     1.007825032230
         H            1.171460894217    -2.157924940963     0.142151292174     1.007825032230
         H           -3.182469105783     0.005405059037    -1.248233707826     1.007825032230

  Basis Set: AUG-CC-PVTZ
    Blend: AUG-CC-PVTZ
  Basis Set: (AUG-CC-PVTZ AUX)
    Blend: AUG-CC-PVTZ-JKFIT
	 Reference Energy          =    -233.0228255247622542 [Eh]
	 Singles Energy            =      -0.0000000000000000 [Eh]
	 Same-Spin Energy          =      -0.2513709811004264 [Eh]
	 Opposite-Spin Energy      =      -0.8915953488767786 [Eh]
	 Correlation Energy        =      -1.1429663299772050 [Eh]
	 Total Energy              =    -234.1657918547394672 [Eh]

	 ================> DF-SCS-MP2 Energies <==================
	-----------------------------------------------------------
	 SCS Same-Spin Scale       =       0.3333333333333333 [-]
	 SCS Opposite-Spin Scale   =       1.2000000000000000 [-]
	 SCS Same-Spin Energy      =      -0.0837903270334755 [Eh]
	 SCS Opposite-Spin Energy  =      -1.0699144186521343 [Eh]
	 SCS Correlation Energy    =      -1.1537047456856098 [Eh]
	 SCS Total Energy          =    -234.1765302704478700 [Eh]
	-----------------------------------------------------------

  Dipole Moment: [D]
     X:     0.5313      Y:    -0.0260      Z:     0.2547     Total:     0.5898

*** Psi4 exiting successfully. Buy a developer a beer!
