                               Psi4 1.4a3.dev225

  ==> Input File <==

--------------------------------------------------------------------------
#psi4
#
memory 32 gb

molecule  {
0 1
  C        1.0191550    -0.0000090     0.3706600
  C       -0.3376930    -0.0001380     1.0991850
  C        1.1895300     1.2600750    -0.4734900
  C        1.1896430    -1.2599310    -0.4737080
  C       -1.4806530    -0.0001100     0.1820590
  C       -2.4337550     0.0000760    -0.5817880
  H        1.7898900    -0.0000470     1.1539300
  H       -0.3990100    -0.8800950     1.7523450
  H       -0.3991040     0.8797040     1.7524870
  H        2.1752240     1.2782110    -0.9487550
  H        1.0912450     2.1632510     0.1376750
  H        0.4300030     1.2977920    -1.2600980
  H        2.1753400    -1.2779000    -0.9489720
  H        0.2912839    -1.3044527    -1.4041198
  H        1.0914300    -2.1632230     0.1372970
  H       -3.2625000     0.0001070    -1.2530880
units angstrom
no_reorient  #important for SAPT in psi4, default
symmetry c1  #important for SAPT in psi4, default
}

set PROPERTIES_ORIGIN ["COM"]
properties('MP2/aug-cc-pvtz', properties = ['dipole'])
--------------------------------------------------------------------------

    Molecular point group: c1
  Charge       = 0
  Multiplicity = 1
  Basis Set: AUG-CC-PVTZ
    Blend: AUG-CC-PVTZ
  Basis Set: (AUG-CC-PVTZ AUX)
    Blend: AUG-CC-PVTZ-JKFIT

    Orbital Energies [Eh]
    ---------------------

    Doubly Occupied:

       1A    -11.250984     2A    -11.238571     3A    -11.237213
       4A    -11.233498     5A    -11.222580     6A    -11.211693
       7A     -1.107364     8A     -1.020736     9A     -0.941552
      10A     -0.922409    11A     -0.782536    12A     -0.710164
      13A     -0.650716    14A     -0.615871    15A     -0.607732
      16A     -0.577714    17A     -0.527374    18A     -0.516039
      19A     -0.485624    20A     -0.475857    21A     -0.458628
      22A     -0.377439    23A     -0.376390

  @DF-RHF Final Energy:  -233.02926508401106

   => Energetics <=

    Nuclear Repulsion Energy =            222.0831740338470865
    One-Electron Energy =                -753.1275121751831421
    Two-Electron Energy =                 298.0150730573250257
    Total Energy =                       -233.0292650840110582
  Basis Set: (AUG-CC-PVTZ AUX)
    Blend: AUG-CC-PVTZ-RI
    Molecular point group: c1

    Geometry (in Angstrom), charge = 0, multiplicity = 1:

       Center              X                  Y                   Z               Mass
    ------------   -----------------  -----------------  -----------------  -----------------
         C            1.082783009479     0.000078096857     0.363510468837    12.000000000000
         C           -0.274064990521    -0.000050903143     1.092035468837    12.000000000000
         C            1.253158009479     1.260162096857    -0.480639531163    12.000000000000
         C            1.253271009479    -1.259843903143    -0.480857531163    12.000000000000
         C           -1.417024990521    -0.000022903143     0.174909468837    12.000000000000
         C           -2.370126990521     0.000163096857    -0.588937531163    12.000000000000
         H            1.853518009479     0.000040096857     1.146780468837     1.007825032230
         H           -0.335381990521    -0.880007903143     1.745195468837     1.007825032230
         H           -0.335475990521     0.879791096857     1.745337468837     1.007825032230
         H            2.238852009479     1.278298096857    -0.955904531163     1.007825032230
         H            1.154873009479     2.163338096857     0.130525468837     1.007825032230
         H            0.493631009479     1.297879096857    -1.267247531163     1.007825032230
         H            2.238968009479    -1.277812903143    -0.956121531163     1.007825032230
         H            0.354911909479    -1.304365603143    -1.411269331163     1.007825032230
         H            1.155058009479    -2.163135903143     0.130147468837     1.007825032230
         H           -3.198871990521     0.000194096857    -1.260237531163     1.007825032230

  Basis Set: AUG-CC-PVTZ
    Blend: AUG-CC-PVTZ
  Basis Set: (AUG-CC-PVTZ AUX)
    Blend: AUG-CC-PVTZ-JKFIT
	 Reference Energy          =    -233.0292650840110582 [Eh]
	 Singles Energy            =      -0.0000000000000000 [Eh]
	 Same-Spin Energy          =      -0.2502037028796624 [Eh]
	 Opposite-Spin Energy      =      -0.8910196148158881 [Eh]
	 Correlation Energy        =      -1.1412233176955504 [Eh]
	 Total Energy              =    -234.1704884017066206 [Eh]

	 ================> DF-SCS-MP2 Energies <==================
	-----------------------------------------------------------
	 SCS Same-Spin Scale       =       0.3333333333333333 [-]
	 SCS Opposite-Spin Scale   =       1.2000000000000000 [-]
	 SCS Same-Spin Energy      =      -0.0834012342932208 [Eh]
	 SCS Opposite-Spin Energy  =      -1.0692235377790658 [Eh]
	 SCS Correlation Energy    =      -1.1526247720722866 [Eh]
	 SCS Total Energy          =    -234.1818898560833588 [Eh]
	-----------------------------------------------------------

  Dipole Moment: [D]
     X:     0.7090      Y:     0.0335      Z:     0.4185     Total:     0.8239

*** Psi4 exiting successfully. Buy a developer a beer!
