                               Psi4 1.4a3.dev225

  ==> Input File <==

--------------------------------------------------------------------------
#psi4
#
memory 32 gb

molecule  {
0 1
  C        1.0191550    -0.0000090     0.3706600
  C       -0.3376930    -0.0001380     1.0991850
  C        1.1895300     1.2600750    -0.4734900
  C        1.1896430    -1.2599310    -0.4737080
  C       -1.4806530    -0.0001100     0.1820590
  C       -2.4337550     0.0000760    -0.5817880
  H        1.7898900    -0.0000470     1.1539300
  H       -0.3990100    -0.8800950     1.7523450
  H       -0.3991040     0.8797040     1.7524870
  H        2.1752240     1.2782110    -0.9487550
  H        1.0912450     2.1632510     0.1376750
  H        0.4300030     1.2977920    -1.2600980
  H        2.1753400    -1.2779000    -0.9489720
  H        0.4995426    -1.2941316    -1.1884306
  H        1.0914300    -2.1632230     0.1372970
  H       -3.2625000     0.0001070    -1.2530880
units angstrom
no_reorient  #important for SAPT in psi4, default
symmetry c1  #important for SAPT in psi4, default
}

set PROPERTIES_ORIGIN ["COM"]
properties('MP2/aug-cc-pvtz', properties = ['dipole'])
--------------------------------------------------------------------------

    Molecular point group: c1
  Charge       = 0
  Multiplicity = 1
  Basis Set: AUG-CC-PVTZ
    Blend: AUG-CC-PVTZ
  Basis Set: (AUG-CC-PVTZ AUX)
    Blend: AUG-CC-PVTZ-JKFIT

    Orbital Energies [Eh]
    ---------------------

    Doubly Occupied:

       1A    -11.250127     2A    -11.237822     3A    -11.234850
       4A    -11.223656     5A    -11.211106     6A    -11.199040
       7A     -1.108609     8A     -1.022866     9A     -0.945014
      10A     -0.935251    11A     -0.791045    12A     -0.711186
      13A     -0.651704    14A     -0.616495    15A     -0.610663
      16A     -0.580873    17A     -0.550054    18A     -0.523082
      19A     -0.484159    20A     -0.475925    21A     -0.472598
      22A     -0.378280    23A     -0.378014

  @DF-RHF Final Energy:  -233.04348165774630

   => Energetics <=

    Nuclear Repulsion Energy =            223.1429833643784377
    One-Electron Energy =                -755.1880913446806289
    Two-Electron Energy =                 299.0016263225558646
    Total Energy =                       -233.0434816577463266
  Basis Set: (AUG-CC-PVTZ AUX)
    Blend: AUG-CC-PVTZ-RI
    Molecular point group: c1

    Geometry (in Angstrom), charge = 0, multiplicity = 1:

       Center              X                  Y                   Z               Mass
    ------------   -----------------  -----------------  -----------------  -----------------
         C            1.080225835925    -0.000048634195     0.360862057424    12.000000000000
         C           -0.276622164075    -0.000177634195     1.089387057424    12.000000000000
         C            1.250600835925     1.260035365805    -0.483287942576    12.000000000000
         C            1.250713835925    -1.259970634195    -0.483505942576    12.000000000000
         C           -1.419582164075    -0.000149634195     0.172261057424    12.000000000000
         C           -2.372684164075     0.000036365805    -0.591585942576    12.000000000000
         H            1.850960835925    -0.000086634195     1.144132057424     1.007825032230
         H           -0.337939164075    -0.880134634195     1.742547057424     1.007825032230
         H           -0.338033164075     0.879664365805     1.742689057424     1.007825032230
         H            2.236294835925     1.278171365805    -0.958552942576     1.007825032230
         H            1.152315835925     2.163211365805     0.127877057424     1.007825032230
         H            0.491073835925     1.297752365805    -1.269895942576     1.007825032230
         H            2.236410835925    -1.277939634195    -0.958769942576     1.007825032230
         H            0.560613435925    -1.294171234195    -1.198228542576     1.007825032230
         H            1.152500835925    -2.163262634195     0.127499057424     1.007825032230
         H           -3.201429164075     0.000067365805    -1.262885942576     1.007825032230

  Basis Set: AUG-CC-PVTZ
    Blend: AUG-CC-PVTZ
  Basis Set: (AUG-CC-PVTZ AUX)
    Blend: AUG-CC-PVTZ-JKFIT
	 Reference Energy          =    -233.0434816577462982 [Eh]
	 Singles Energy            =      -0.0000000000000000 [Eh]
	 Same-Spin Energy          =      -0.2499134454815603 [Eh]
	 Opposite-Spin Energy      =      -0.8886516870919798 [Eh]
	 Correlation Energy        =      -1.1385651325735402 [Eh]
	 Total Energy              =    -234.1820467903198448 [Eh]

	 ================> DF-SCS-MP2 Energies <==================
	-----------------------------------------------------------
	 SCS Same-Spin Scale       =       0.3333333333333333 [-]
	 SCS Opposite-Spin Scale   =       1.2000000000000000 [-]
	 SCS Same-Spin Energy      =      -0.0833044818271868 [Eh]
	 SCS Opposite-Spin Energy  =      -1.0663820245103757 [Eh]
	 SCS Correlation Energy    =      -1.1496865063375625 [Eh]
	 SCS Total Energy          =    -234.1931681640838576 [Eh]
	-----------------------------------------------------------

  Dipole Moment: [D]
     X:     0.6270      Y:    -0.0115      Z:     0.2837     Total:     0.6883

*** Psi4 exiting successfully. Buy a developer a beer!
