                               Psi4 1.4a3.dev225

  ==> Input File <==

--------------------------------------------------------------------------
#psi4
#
memory 32 gb

molecule  {
0 1
  C        1.0191550    -0.0000090     0.3706600
  C       -0.3376930    -0.0001380     1.0991850
  C        1.1895300     1.2600750    -0.4734900
  C        1.1784726    -1.1773806    -0.4183848
  C       -1.4806530    -0.0001100     0.1820590
  C       -2.4337550     0.0000760    -0.5817880
  H        1.7898900    -0.0000470     1.1539300
  H       -0.3990100    -0.8800950     1.7523450
  H       -0.3991040     0.8797040     1.7524870
  H        2.1752240     1.2782110    -0.9487550
  H        1.0912450     2.1632510     0.1376750
  H        0.4300030     1.2977920    -1.2600980
  H        2.1753400    -1.2779000    -0.9489720
  H        0.4301230    -1.2975720    -1.2603270
  H        1.0914300    -2.1632230     0.1372970
  H       -3.2625000     0.0001070    -1.2530880
units angstrom
no_reorient  #important for SAPT in psi4, default
symmetry c1  #important for SAPT in psi4, default
}

set PROPERTIES_ORIGIN ["COM"]
properties('MP2/aug-cc-pvtz', properties = ['dipole'])
--------------------------------------------------------------------------

    Molecular point group: c1
  Charge       = 0
  Multiplicity = 1
  Basis Set: AUG-CC-PVTZ
    Blend: AUG-CC-PVTZ
  Basis Set: (AUG-CC-PVTZ AUX)
    Blend: AUG-CC-PVTZ-JKFIT

    Orbital Energies [Eh]
    ---------------------

    Doubly Occupied:

       1A    -11.250868     2A    -11.237733     3A    -11.231242
       4A    -11.223441     5A    -11.216950     6A    -11.211826
       7A     -1.119435     8A     -1.026136     9A     -0.943404
      10A     -0.929743    11A     -0.786660    12A     -0.711614
      13A     -0.655924    14A     -0.619016    15A     -0.612015
      16A     -0.579452    17A     -0.535321    18A     -0.516421
      19A     -0.498479    20A     -0.469466    21A     -0.460446
      22A     -0.378029    23A     -0.377810

  @DF-RHF Final Energy:  -233.03760164450631

   => Energetics <=

    Nuclear Repulsion Energy =            224.1778706322018024
    One-Electron Energy =                -757.2480815241611936
    Two-Electron Energy =                 300.0326092474530810
    Total Energy =                       -233.0376016445063101
  Basis Set: (AUG-CC-PVTZ AUX)
    Blend: AUG-CC-PVTZ-RI
    Molecular point group: c1

    Geometry (in Angstrom), charge = 0, multiplicity = 1:

       Center              X                  Y                   Z               Mass
    ------------   -----------------  -----------------  -----------------  -----------------
         C            1.082711361747    -0.012075419304     0.353656501676    12.000000000000
         C           -0.274136638253    -0.012204419304     1.082181501676    12.000000000000
         C            1.253086361747     1.248008580696    -0.490493498324    12.000000000000
         C            1.242028961747    -1.189447019304    -0.435388298324    12.000000000000
         C           -1.417096638253    -0.012176419304     0.165055501676    12.000000000000
         C           -2.370198638253    -0.011990419304    -0.598791498324    12.000000000000
         H            1.853446361747    -0.012113419304     1.136926501676     1.007825032230
         H           -0.335453638253    -0.892161419304     1.735341501676     1.007825032230
         H           -0.335547638253     0.867637580696     1.735483501676     1.007825032230
         H            2.238780361747     1.266144580696    -0.965758498324     1.007825032230
         H            1.154801361747     2.151184580696     0.120671501676     1.007825032230
         H            0.493559361747     1.285725580696    -1.277101498324     1.007825032230
         H            2.238896361747    -1.289966419304    -0.965975498324     1.007825032230
         H            0.493679361747    -1.309638419304    -1.277330498324     1.007825032230
         H            1.154986361747    -2.175289419304     0.120293501676     1.007825032230
         H           -3.198943638253    -0.011959419304    -1.270091498324     1.007825032230

  Basis Set: AUG-CC-PVTZ
    Blend: AUG-CC-PVTZ
  Basis Set: (AUG-CC-PVTZ AUX)
    Blend: AUG-CC-PVTZ-JKFIT
	 Reference Energy          =    -233.0376016445063101 [Eh]
	 Singles Energy            =      -0.0000000000000000 [Eh]
	 Same-Spin Energy          =      -0.2511445919813370 [Eh]
	 Opposite-Spin Energy      =      -0.8906109697606018 [Eh]
	 Correlation Energy        =      -1.1417555617419388 [Eh]
	 Total Energy              =    -234.1793572062482554 [Eh]

	 ================> DF-SCS-MP2 Energies <==================
	-----------------------------------------------------------
	 SCS Same-Spin Scale       =       0.3333333333333333 [-]
	 SCS Opposite-Spin Scale   =       1.2000000000000000 [-]
	 SCS Same-Spin Energy      =      -0.0837148639937790 [Eh]
	 SCS Opposite-Spin Energy  =      -1.0687331637127222 [Eh]
	 SCS Correlation Energy    =      -1.1524480277065012 [Eh]
	 SCS Total Energy          =    -234.1900496722128082 [Eh]
	-----------------------------------------------------------

  Dipole Moment: [D]
     X:     0.6418      Y:     0.0063      Z:     0.3120     Total:     0.7136

*** Psi4 exiting successfully. Buy a developer a beer!
