                               Psi4 1.4a3.dev225

  ==> Input File <==

--------------------------------------------------------------------------
#psi4
#
memory 32 gb

molecule  {
0 1
  C        1.0191550    -0.0000090     0.3706600
  C       -0.3376930    -0.0001380     1.0991850
  C        1.1895300     1.2600750    -0.4734900
  C        1.1896430    -1.2599310    -0.4737080
  C       -1.4806530    -0.0001100     0.1820590
  C       -2.4337550     0.0000760    -0.5817880
  H        1.7548210    -0.0000453     1.1182906
  H       -0.3990100    -0.8800950     1.7523450
  H       -0.3991040     0.8797040     1.7524870
  H        2.1752240     1.2782110    -0.9487550
  H        1.0912450     2.1632510     0.1376750
  H        0.4300030     1.2977920    -1.2600980
  H        2.1753400    -1.2779000    -0.9489720
  H        0.4301230    -1.2975720    -1.2603270
  H        1.0914300    -2.1632230     0.1372970
  H       -3.2625000     0.0001070    -1.2530880
units angstrom
no_reorient  #important for SAPT in psi4, default
symmetry c1  #important for SAPT in psi4, default
}

set PROPERTIES_ORIGIN ["COM"]
properties('MP2/aug-cc-pvtz', properties = ['dipole'])
--------------------------------------------------------------------------

    Molecular point group: c1
  Charge       = 0
  Multiplicity = 1
  Basis Set: AUG-CC-PVTZ
    Blend: AUG-CC-PVTZ
  Basis Set: (AUG-CC-PVTZ AUX)
    Blend: AUG-CC-PVTZ-JKFIT

    Orbital Energies [Eh]
    ---------------------

    Doubly Occupied:

       1A    -11.249915     2A    -11.237363     3A    -11.229438
       4A    -11.222983     5A    -11.210752     6A    -11.210732
       7A     -1.108984     8A     -1.022124     9A     -0.942106
      10A     -0.929607    11A     -0.793715    12A     -0.710782
      13A     -0.652527    14A     -0.615106    15A     -0.609396
      16A     -0.579537    17A     -0.538876    18A     -0.522937
      19A     -0.483948    20A     -0.478324    21A     -0.472842
      22A     -0.377572    23A     -0.377496

  @DF-RHF Final Energy:  -233.04865665193230

   => Energetics <=

    Nuclear Repulsion Energy =            222.9958881606377474
    One-Electron Energy =                -754.9349644589312902
    Two-Electron Energy =                 298.8904196463612948
    Total Energy =                       -233.0486566519322764
  Basis Set: (AUG-CC-PVTZ AUX)
    Blend: AUG-CC-PVTZ-RI
    Molecular point group: c1

    Geometry (in Angstrom), charge = 0, multiplicity = 1:

       Center              X                  Y                   Z               Mass
    ------------   -----------------  -----------------  -----------------  -----------------
         C            1.081508833872    -0.000006410976     0.362182471427    12.000000000000
         C           -0.275339166128    -0.000135410976     1.090707471427    12.000000000000
         C            1.251883833872     1.260077589024    -0.481967528573    12.000000000000
         C            1.251996833872    -1.259928410976    -0.482185528573    12.000000000000
         C           -1.418299166128    -0.000107410976     0.173581471427    12.000000000000
         C           -2.371401166128     0.000078589024    -0.590265528573    12.000000000000
         H            1.817174833872    -0.000042710976     1.109813071427     1.007825032230
         H           -0.336656166128    -0.880092410976     1.743867471427     1.007825032230
         H           -0.336750166128     0.879706589024     1.744009471427     1.007825032230
         H            2.237577833872     1.278213589024    -0.957232528573     1.007825032230
         H            1.153598833872     2.163253589024     0.129197471427     1.007825032230
         H            0.492356833872     1.297794589024    -1.268575528573     1.007825032230
         H            2.237693833872    -1.277897410976    -0.957449528573     1.007825032230
         H            0.492476833872    -1.297569410976    -1.268804528573     1.007825032230
         H            1.153783833872    -2.163220410976     0.128819471427     1.007825032230
         H           -3.200146166128     0.000109589024    -1.261565528573     1.007825032230

  Basis Set: AUG-CC-PVTZ
    Blend: AUG-CC-PVTZ
  Basis Set: (AUG-CC-PVTZ AUX)
    Blend: AUG-CC-PVTZ-JKFIT
	 Reference Energy          =    -233.0486566519323048 [Eh]
	 Singles Energy            =      -0.0000000000000000 [Eh]
	 Same-Spin Energy          =      -0.2499719724607922 [Eh]
	 Opposite-Spin Energy      =      -0.8889145127524157 [Eh]
	 Correlation Energy        =      -1.1388864852132079 [Eh]
	 Total Energy              =    -234.1875431371455250 [Eh]

	 ================> DF-SCS-MP2 Energies <==================
	-----------------------------------------------------------
	 SCS Same-Spin Scale       =       0.3333333333333333 [-]
	 SCS Opposite-Spin Scale   =       1.2000000000000000 [-]
	 SCS Same-Spin Energy      =      -0.0833239908202641 [Eh]
	 SCS Opposite-Spin Energy  =      -1.0666974153028987 [Eh]
	 SCS Correlation Energy    =      -1.1500214061231628 [Eh]
	 SCS Total Energy          =    -234.1986780580554637 [Eh]
	-----------------------------------------------------------

  Dipole Moment: [D]
     X:     0.6758      Y:    -0.0000      Z:     0.3478     Total:     0.7600

*** Psi4 exiting successfully. Buy a developer a beer!
