                               Psi4 1.4a3.dev225

  ==> Input File <==

--------------------------------------------------------------------------
#psi4
#
memory 32 gb

molecule  {
0 1
  C        0.9775954    -0.0136391     0.3402450
  C       -0.3376930    -0.0001380     1.0991850
  C        1.1895300     1.2600750    -0.4734900
  C        1.1896430    -1.2599310    -0.4737080
  C       -1.4806530    -0.0001100     0.1820590
  C       -2.4337550     0.0000760    -0.5817880
  H        1.7898900    -0.0000470     1.1539300
  H       -0.3990100    -0.8800950     1.7523450
  H       -0.3991040     0.8797040     1.7524870
  H        2.1752240     1.2782110    -0.9487550
  H        1.0912450     2.1632510     0.1376750
  H        0.4300030     1.2977920    -1.2600980
  H        2.1753400    -1.2779000    -0.9489720
  H        0.4301230    -1.2975720    -1.2603270
  H        1.0914300    -2.1632230     0.1372970
  H       -3.2625000     0.0001070    -1.2530880
units angstrom
no_reorient  #important for SAPT in psi4, default
symmetry c1  #important for SAPT in psi4, default
}

set PROPERTIES_ORIGIN ["COM"]
properties('MP2/aug-cc-pvtz', properties = ['dipole'])
--------------------------------------------------------------------------

    Molecular point group: c1
  Charge       = 0
  Multiplicity = 1
  Basis Set: AUG-CC-PVTZ
    Blend: AUG-CC-PVTZ
  Basis Set: (AUG-CC-PVTZ AUX)
    Blend: AUG-CC-PVTZ-JKFIT

    Orbital Energies [Eh]
    ---------------------

    Doubly Occupied:

       1A    -11.250718     2A    -11.237931     3A    -11.237301
       4A    -11.223417     5A    -11.211586     6A    -11.211068
       7A     -1.112353     8A     -1.022330     9A     -0.944978
      10A     -0.932412    11A     -0.780870    12A     -0.711133
      13A     -0.653631    14A     -0.618427    15A     -0.609816
      16A     -0.579702    17A     -0.537911    18A     -0.524924
      19A     -0.492804    20A     -0.478692    21A     -0.454740
      22A     -0.378962    23A     -0.378086

  @DF-RHF Final Energy:  -233.04585968374457

   => Energetics <=

    Nuclear Repulsion Energy =            223.2456835512271596
    One-Electron Energy =                -755.4155014468423133
    Two-Electron Energy =                 299.1239582118705016
    Total Energy =                       -233.0458596837445953
  Basis Set: (AUG-CC-PVTZ AUX)
    Blend: AUG-CC-PVTZ-RI
    Molecular point group: c1

    Geometry (in Angstrom), charge = 0, multiplicity = 1:

       Center              X                  Y                   Z               Mass
    ------------   -----------------  -----------------  -----------------  -----------------
         C            1.045594721954    -0.011643742944     0.335776593445    12.000000000000
         C           -0.269693678046     0.001857357056     1.094716593445    12.000000000000
         C            1.257529321954     1.262070357056    -0.477958406555    12.000000000000
         C            1.257642321954    -1.257935642944    -0.478176406555    12.000000000000
         C           -1.412653678046     0.001885357056     0.177590593445    12.000000000000
         C           -2.365755678046     0.002071357056    -0.586256406555    12.000000000000
         H            1.857889321954     0.001948357056     1.149461593445     1.007825032230
         H           -0.331010678046    -0.878099642944     1.747876593445     1.007825032230
         H           -0.331104678046     0.881699357056     1.748018593445     1.007825032230
         H            2.243223321954     1.280206357056    -0.953223406555     1.007825032230
         H            1.159244321954     2.165246357056     0.133206593445     1.007825032230
         H            0.498002321954     1.299787357056    -1.264566406555     1.007825032230
         H            2.243339321954    -1.275904642944    -0.953440406555     1.007825032230
         H            0.498122321954    -1.295576642944    -1.264795406555     1.007825032230
         H            1.159429321954    -2.161227642944     0.132828593445     1.007825032230
         H           -3.194500678046     0.002102357056    -1.257556406555     1.007825032230

  Basis Set: AUG-CC-PVTZ
    Blend: AUG-CC-PVTZ
  Basis Set: (AUG-CC-PVTZ AUX)
    Blend: AUG-CC-PVTZ-JKFIT
	 Reference Energy          =    -233.0458596837445668 [Eh]
	 Singles Energy            =      -0.0000000000000000 [Eh]
	 Same-Spin Energy          =      -0.2503204375537904 [Eh]
	 Opposite-Spin Energy      =      -0.8896742223361079 [Eh]
	 Correlation Energy        =      -1.1399946598898982 [Eh]
	 Total Energy              =    -234.1858543436344746 [Eh]

	 ================> DF-SCS-MP2 Energies <==================
	-----------------------------------------------------------
	 SCS Same-Spin Scale       =       0.3333333333333333 [-]
	 SCS Opposite-Spin Scale   =       1.2000000000000000 [-]
	 SCS Same-Spin Energy      =      -0.0834401458512634 [Eh]
	 SCS Opposite-Spin Energy  =      -1.0676090668033296 [Eh]
	 SCS Correlation Energy    =      -1.1510492126545930 [Eh]
	 SCS Total Energy          =    -234.1969088963991510 [Eh]
	-----------------------------------------------------------

  Dipole Moment: [D]
     X:     0.6171      Y:    -0.0100      Z:     0.3051     Total:     0.6885

*** Psi4 exiting successfully. Buy a developer a beer!
