                               Psi4 1.4a3.dev225

  ==> Input File <==

--------------------------------------------------------------------------
#psi4
#
memory 32 gb

molecule  {
0 1
  C        1.0191550    -0.0000090     0.3706600
  C       -0.3376930    -0.0001380     1.0991850
  C        1.2006930     1.3426360    -0.5287989
  C        1.1896430    -1.2599310    -0.4737080
  C       -1.4806530    -0.0001100     0.1820590
  C       -2.4337550     0.0000760    -0.5817880
  H        1.7898900    -0.0000470     1.1539300
  H       -0.3990100    -0.8800950     1.7523450
  H       -0.3991040     0.8797040     1.7524870
  H        2.1752240     1.2782110    -0.9487550
  H        1.0912450     2.1632510     0.1376750
  H        0.4300030     1.2977920    -1.2600980
  H        2.1753400    -1.2779000    -0.9489720
  H        0.4301230    -1.2975720    -1.2603270
  H        1.0914300    -2.1632230     0.1372970
  H       -3.2625000     0.0001070    -1.2530880
units angstrom
no_reorient  #important for SAPT in psi4, default
symmetry c1  #important for SAPT in psi4, default
}

set PROPERTIES_ORIGIN ["COM"]
properties('MP2/aug-cc-pvtz', properties = ['dipole'])
--------------------------------------------------------------------------

    Molecular point group: c1
  Charge       = 0
  Multiplicity = 1
  Basis Set: AUG-CC-PVTZ
    Blend: AUG-CC-PVTZ
  Basis Set: (AUG-CC-PVTZ AUX)
    Blend: AUG-CC-PVTZ-JKFIT

    Orbital Energies [Eh]
    ---------------------

    Doubly Occupied:

       1A    -11.250249     2A    -11.239627     3A    -11.237689
       4A    -11.223386     5A    -11.211125     6A    -11.208314
       7A     -1.100079     8A     -1.018226     9A     -0.942045
      10A     -0.931364    11A     -0.787044    12A     -0.710212
      13A     -0.648052    14A     -0.613685    15A     -0.607777
      16A     -0.581777    17A     -0.547058    18A     -0.532530
      19A     -0.488202    20A     -0.479720    21A     -0.447702
      22A     -0.377942    23A     -0.377493

  @DF-RHF Final Energy:  -233.04243072055914

   => Energetics <=

    Nuclear Repulsion Energy =            221.4016763091640883
    One-Electron Energy =                -751.7656146082538271
    Two-Electron Energy =                 297.3215075785306567
    Total Energy =                       -233.0424307205591390
  Basis Set: (AUG-CC-PVTZ AUX)
    Blend: AUG-CC-PVTZ-RI
    Molecular point group: c1

    Geometry (in Angstrom), charge = 0, multiplicity = 1:

       Center              X                  Y                   Z               Mass
    ------------   -----------------  -----------------  -----------------  -----------------
         C            1.079446175185    -0.012076969044     0.369831130092    12.000000000000
         C           -0.277401824815    -0.012205969044     1.098356130092    12.000000000000
         C            1.260984175185     1.330568030956    -0.529627769908    12.000000000000
         C            1.249934175185    -1.271998969044    -0.474536869908    12.000000000000
         C           -1.420361824815    -0.012177969044     0.181230130092    12.000000000000
         C           -2.373463824815    -0.011991969044    -0.582616869908    12.000000000000
         H            1.850181175185    -0.012114969044     1.153101130092     1.007825032230
         H           -0.338718824815    -0.892162969044     1.751516130092     1.007825032230
         H           -0.338812824815     0.867636030956     1.751658130092     1.007825032230
         H            2.235515175185     1.266143030956    -0.949583869908     1.007825032230
         H            1.151536175185     2.151183030956     0.136846130092     1.007825032230
         H            0.490294175185     1.285724030956    -1.260926869908     1.007825032230
         H            2.235631175185    -1.289967969044    -0.949800869908     1.007825032230
         H            0.490414175185    -1.309639969044    -1.261155869908     1.007825032230
         H            1.151721175185    -2.175290969044     0.136468130092     1.007825032230
         H           -3.202208824815    -0.011960969044    -1.253916869908     1.007825032230

  Basis Set: AUG-CC-PVTZ
    Blend: AUG-CC-PVTZ
  Basis Set: (AUG-CC-PVTZ AUX)
    Blend: AUG-CC-PVTZ-JKFIT
	 Reference Energy          =    -233.0424307205591390 [Eh]
	 Singles Energy            =      -0.0000000000000000 [Eh]
	 Same-Spin Energy          =      -0.2495906851721224 [Eh]
	 Opposite-Spin Energy      =      -0.8891779589418920 [Eh]
	 Correlation Energy        =      -1.1387686441140144 [Eh]
	 Total Energy              =    -234.1811993646731480 [Eh]

	 ================> DF-SCS-MP2 Energies <==================
	-----------------------------------------------------------
	 SCS Same-Spin Scale       =       0.3333333333333333 [-]
	 SCS Opposite-Spin Scale   =       1.2000000000000000 [-]
	 SCS Same-Spin Energy      =      -0.0831968950573741 [Eh]
	 SCS Opposite-Spin Energy  =      -1.0670135507302703 [Eh]
	 SCS Correlation Energy    =      -1.1502104457876443 [Eh]
	 SCS Total Energy          =    -234.1926411663467889 [Eh]
	-----------------------------------------------------------

  Dipole Moment: [D]
     X:     0.6442      Y:    -0.0253      Z:     0.3403     Total:     0.7290

*** Psi4 exiting successfully. Buy a developer a beer!
