                               Psi4 1.4a3.dev225

  ==> Input File <==

--------------------------------------------------------------------------
#psi4
#
memory 32 gb

molecule  {
0 1
  C        1.0191550    -0.0000090     0.3706600
  C       -0.3376930    -0.0001380     1.0991850
  C        1.2118560     1.4251969    -0.5841078
  C        1.1896430    -1.2599310    -0.4737080
  C       -1.4806530    -0.0001100     0.1820590
  C       -2.4337550     0.0000760    -0.5817880
  H        1.7898900    -0.0000470     1.1539300
  H       -0.3990100    -0.8800950     1.7523450
  H       -0.3991040     0.8797040     1.7524870
  H        2.1752240     1.2782110    -0.9487550
  H        1.0912450     2.1632510     0.1376750
  H        0.4300030     1.2977920    -1.2600980
  H        2.1753400    -1.2779000    -0.9489720
  H        0.4301230    -1.2975720    -1.2603270
  H        1.0914300    -2.1632230     0.1372970
  H       -3.2625000     0.0001070    -1.2530880
units angstrom
no_reorient  #important for SAPT in psi4, default
symmetry c1  #important for SAPT in psi4, default
}

set PROPERTIES_ORIGIN ["COM"]
properties('MP2/aug-cc-pvtz', properties = ['dipole'])
--------------------------------------------------------------------------

    Molecular point group: c1
  Charge       = 0
  Multiplicity = 1
  Basis Set: AUG-CC-PVTZ
    Blend: AUG-CC-PVTZ
  Basis Set: (AUG-CC-PVTZ AUX)
    Blend: AUG-CC-PVTZ-JKFIT

    Orbital Energies [Eh]
    ---------------------

    Doubly Occupied:

       1A    -11.250606     2A    -11.242919     3A    -11.237860
       4A    -11.223589     5A    -11.211469     6A    -11.208512
       7A     -1.095219     8A     -1.015579     9A     -0.942242
      10A     -0.933023    11A     -0.786779    12A     -0.709973
      13A     -0.646337    14A     -0.614193    15A     -0.607179
      16A     -0.587093    17A     -0.555523    18A     -0.539780
      19A     -0.490413    20A     -0.483268    21A     -0.419869
      22A     -0.378152    23A     -0.376578

  @DF-RHF Final Energy:  -233.02306713697823

   => Energetics <=

    Nuclear Repulsion Energy =            220.1154805058382919
    One-Electron Energy =                -749.1647841093921443
    Two-Electron Energy =                 296.0262364665756536
    Total Energy =                       -233.0230671369782272
  Basis Set: (AUG-CC-PVTZ AUX)
    Blend: AUG-CC-PVTZ-RI
    Molecular point group: c1

    Geometry (in Angstrom), charge = 0, multiplicity = 1:

       Center              X                  Y                   Z               Mass
    ------------   -----------------  -----------------  -----------------  -----------------
         C            1.077814122851    -0.024147533367     0.377917398956    12.000000000000
         C           -0.279033877149    -0.024276533367     1.106442398956    12.000000000000
         C            1.270515122851     1.401058366633    -0.576850401044    12.000000000000
         C            1.248302122851    -1.284069533367    -0.466450601044    12.000000000000
         C           -1.421993877149    -0.024248533367     0.189316398956    12.000000000000
         C           -2.375095877149    -0.024062533367    -0.574530601044    12.000000000000
         H            1.848549122851    -0.024185533367     1.161187398956     1.007825032230
         H           -0.340350877149    -0.904233533367     1.759602398956     1.007825032230
         H           -0.340444877149     0.855565466633     1.759744398956     1.007825032230
         H            2.233883122851     1.254072466633    -0.941497601044     1.007825032230
         H            1.149904122851     2.139112466633     0.144932398956     1.007825032230
         H            0.488662122851     1.273653466633    -1.252840601044     1.007825032230
         H            2.233999122851    -1.302038533367    -0.941714601044     1.007825032230
         H            0.488782122851    -1.321710533367    -1.253069601044     1.007825032230
         H            1.150089122851    -2.187361533367     0.144554398956     1.007825032230
         H           -3.203840877149    -0.024031533367    -1.245830601044     1.007825032230

  Basis Set: AUG-CC-PVTZ
    Blend: AUG-CC-PVTZ
  Basis Set: (AUG-CC-PVTZ AUX)
    Blend: AUG-CC-PVTZ-JKFIT
	 Reference Energy          =    -233.0230671369782272 [Eh]
	 Singles Energy            =      -0.0000000000000000 [Eh]
	 Same-Spin Energy          =      -0.2498466866904425 [Eh]
	 Opposite-Spin Energy      =      -0.8903672764540473 [Eh]
	 Correlation Energy        =      -1.1402139631444899 [Eh]
	 Total Energy              =    -234.1632811001227310 [Eh]

	 ================> DF-SCS-MP2 Energies <==================
	-----------------------------------------------------------
	 SCS Same-Spin Scale       =       0.3333333333333333 [-]
	 SCS Opposite-Spin Scale   =       1.2000000000000000 [-]
	 SCS Same-Spin Energy      =      -0.0832822288968142 [Eh]
	 SCS Opposite-Spin Energy  =      -1.0684407317448568 [Eh]
	 SCS Correlation Energy    =      -1.1517229606416710 [Eh]
	 SCS Total Energy          =    -234.1747900976199048 [Eh]
	-----------------------------------------------------------

  Dipole Moment: [D]
     X:     0.6278      Y:    -0.0876      Z:     0.3804     Total:     0.7393

*** Psi4 exiting successfully. Buy a developer a beer!
