                               Psi4 1.4a3.dev225

  ==> Input File <==

--------------------------------------------------------------------------
#psi4
#
memory 32 gb

molecule  {
0 1
  C        1.0191550    -0.0000090     0.3706600
  C       -0.3553137    -0.0001397     1.1086460
  C        1.1895300     1.2600750    -0.4734900
  C        1.1896430    -1.2599310    -0.4737080
  C       -1.4806530    -0.0001100     0.1820590
  C       -2.4337550     0.0000760    -0.5817880
  H        1.7898900    -0.0000470     1.1539300
  H       -0.3990100    -0.8800950     1.7523450
  H       -0.3991040     0.8797040     1.7524870
  H        2.1752240     1.2782110    -0.9487550
  H        1.0912450     2.1632510     0.1376750
  H        0.4300030     1.2977920    -1.2600980
  H        2.1753400    -1.2779000    -0.9489720
  H        0.4301230    -1.2975720    -1.2603270
  H        1.0914300    -2.1632230     0.1372970
  H       -3.2625000     0.0001070    -1.2530880
units angstrom
no_reorient  #important for SAPT in psi4, default
symmetry c1  #important for SAPT in psi4, default
}

set PROPERTIES_ORIGIN ["COM"]
properties('MP2/aug-cc-pvtz', properties = ['dipole'])
--------------------------------------------------------------------------

    Molecular point group: c1
  Charge       = 0
  Multiplicity = 1
  Basis Set: AUG-CC-PVTZ
    Blend: AUG-CC-PVTZ
  Basis Set: (AUG-CC-PVTZ AUX)
    Blend: AUG-CC-PVTZ-JKFIT

    Orbital Energies [Eh]
    ---------------------

    Doubly Occupied:

       1A    -11.249187     2A    -11.237462     3A    -11.236891
       4A    -11.223455     5A    -11.211147     6A    -11.211129
       7A     -1.105743     8A     -1.022409     9A     -0.942779
      10A     -0.929695    11A     -0.786235    12A     -0.711294
      13A     -0.650668    14A     -0.616514    15A     -0.608407
      16A     -0.580803    17A     -0.539375    18A     -0.524258
      19A     -0.481756    20A     -0.473831    21A     -0.472518
      22A     -0.378258    23A     -0.376571

  @DF-RHF Final Energy:  -233.04918036900537

   => Energetics <=

    Nuclear Repulsion Energy =            222.5703959784032406
    One-Electron Energy =                -754.0983873246992744
    Two-Electron Energy =                 298.4788109772907205
    Total Energy =                       -233.0491803690053416
  Basis Set: (AUG-CC-PVTZ AUX)
    Blend: AUG-CC-PVTZ-RI
    Molecular point group: c1

    Geometry (in Angstrom), charge = 0, multiplicity = 1:

       Center              X                  Y                   Z               Mass
    ------------   -----------------  -----------------  -----------------  -----------------
         C            1.083654408166    -0.000006141558     0.360361644608    12.000000000000
         C           -0.290814291834    -0.000136841558     1.098347644608    12.000000000000
         C            1.254029408166     1.260077858442    -0.483788355392    12.000000000000
         C            1.254142408166    -1.259928141558    -0.484006355392    12.000000000000
         C           -1.416153591834    -0.000107141558     0.171760644608    12.000000000000
         C           -2.369255591834     0.000078858442    -0.592086355392    12.000000000000
         H            1.854389408166    -0.000044141558     1.143631644608     1.007825032230
         H           -0.334510591834    -0.880092141558     1.742046644608     1.007825032230
         H           -0.334604591834     0.879706858442     1.742188644608     1.007825032230
         H            2.239723408166     1.278213858442    -0.959053355392     1.007825032230
         H            1.155744408166     2.163253858442     0.127376644608     1.007825032230
         H            0.494502408166     1.297794858442    -1.270396355392     1.007825032230
         H            2.239839408166    -1.277897141558    -0.959270355392     1.007825032230
         H            0.494622408166    -1.297569141558    -1.270625355392     1.007825032230
         H            1.155929408166    -2.163220141558     0.126998644608     1.007825032230
         H           -3.198000591834     0.000109858442    -1.263386355392     1.007825032230

  Basis Set: AUG-CC-PVTZ
    Blend: AUG-CC-PVTZ
  Basis Set: (AUG-CC-PVTZ AUX)
    Blend: AUG-CC-PVTZ-JKFIT
	 Reference Energy          =    -233.0491803690053700 [Eh]
	 Singles Energy            =      -0.0000000000000000 [Eh]
	 Same-Spin Energy          =      -0.2499886567659743 [Eh]
	 Opposite-Spin Energy      =      -0.8892201497689629 [Eh]
	 Correlation Energy        =      -1.1392088065349373 [Eh]
	 Total Energy              =    -234.1883891755402942 [Eh]

	 ================> DF-SCS-MP2 Energies <==================
	-----------------------------------------------------------
	 SCS Same-Spin Scale       =       0.3333333333333333 [-]
	 SCS Opposite-Spin Scale   =       1.2000000000000000 [-]
	 SCS Same-Spin Energy      =      -0.0833295522553248 [Eh]
	 SCS Opposite-Spin Energy  =      -1.0670641797227554 [Eh]
	 SCS Correlation Energy    =      -1.1503937319780801 [Eh]
	 SCS Total Energy          =    -234.1995741009834546 [Eh]
	-----------------------------------------------------------

  Dipole Moment: [D]
     X:     0.6413      Y:    -0.0000      Z:     0.3227     Total:     0.7179

*** Psi4 exiting successfully. Buy a developer a beer!
