                               Psi4 1.4a3.dev225

  ==> Input File <==

--------------------------------------------------------------------------
#psi4
#
memory 32 gb

molecule  {
0 1
  C        1.0191550    -0.0000090     0.3706600
  C       -0.3376930    -0.0001380     1.0991850
  C        1.1895300     1.2600750    -0.4734900
  C        1.1896430    -1.2599310    -0.4737080
  C       -1.4806530    -0.0001100     0.1820590
  C       -2.4337550     0.0000760    -0.5817880
  H        1.8249590    -0.0000487     1.1895694
  H       -0.3990100    -0.8800950     1.7523450
  H       -0.3991040     0.8797040     1.7524870
  H        2.1752240     1.2782110    -0.9487550
  H        1.0912450     2.1632510     0.1376750
  H        0.4300030     1.2977920    -1.2600980
  H        2.1753400    -1.2779000    -0.9489720
  H        0.4301230    -1.2975720    -1.2603270
  H        1.0914300    -2.1632230     0.1372970
  H       -3.2625000     0.0001070    -1.2530880
units angstrom
no_reorient  #important for SAPT in psi4, default
symmetry c1  #important for SAPT in psi4, default
}

set PROPERTIES_ORIGIN ["COM"]
properties('MP2/aug-cc-pvtz', properties = ['dipole'])
--------------------------------------------------------------------------

    Molecular point group: c1
  Charge       = 0
  Multiplicity = 1
  Basis Set: AUG-CC-PVTZ
    Blend: AUG-CC-PVTZ
  Basis Set: (AUG-CC-PVTZ AUX)
    Blend: AUG-CC-PVTZ-JKFIT

    Orbital Energies [Eh]
    ---------------------

    Doubly Occupied:

       1A    -11.250789     2A    -11.242089     3A    -11.237988
       4A    -11.223743     5A    -11.211782     6A    -11.211765
       7A     -1.106788     8A     -1.021526     9A     -0.942780
      10A     -0.930444    11A     -0.781761    12A     -0.710809
      13A     -0.649677    14A     -0.615690    15A     -0.608917
      16A     -0.578568    17A     -0.539469    18A     -0.523518
      19A     -0.484893    20A     -0.474132    21A     -0.466621
      22A     -0.378253    23A     -0.378186

  @DF-RHF Final Energy:  -233.04735969252545

   => Energetics <=

    Nuclear Repulsion Energy =            222.5058924029650882
    One-Electron Energy =                -753.9661281105210264
    Two-Electron Energy =                 298.4128760150305197
    Total Energy =                       -233.0473596925254469
  Basis Set: (AUG-CC-PVTZ AUX)
    Blend: AUG-CC-PVTZ-RI
    Molecular point group: c1

    Geometry (in Angstrom), charge = 0, multiplicity = 1:

       Center              X                  Y                   Z               Mass
    ------------   -----------------  -----------------  -----------------  -----------------
         C            1.080647621166    -0.000006369228     0.361307251029    12.000000000000
         C           -0.276200378834    -0.000135369228     1.089832251029    12.000000000000
         C            1.251022621166     1.260077630772    -0.482842748971    12.000000000000
         C            1.251135621166    -1.259928369228    -0.483060748971    12.000000000000
         C           -1.419160378834    -0.000107369228     0.172706251029    12.000000000000
         C           -2.372262378834     0.000078630772    -0.591140748971    12.000000000000
         H            1.886451621166    -0.000046069228     1.180216651029     1.007825032230
         H           -0.337517378834    -0.880092369228     1.742992251029     1.007825032230
         H           -0.337611378834     0.879706630772     1.743134251029     1.007825032230
         H            2.236716621166     1.278213630772    -0.958107748971     1.007825032230
         H            1.152737621166     2.163253630772     0.128322251029     1.007825032230
         H            0.491495621166     1.297794630772    -1.269450748971     1.007825032230
         H            2.236832621166    -1.277897369228    -0.958324748971     1.007825032230
         H            0.491615621166    -1.297569369228    -1.269679748971     1.007825032230
         H            1.152922621166    -2.163220369228     0.127944251029     1.007825032230
         H           -3.201007378834     0.000109630772    -1.262440748971     1.007825032230

  Basis Set: AUG-CC-PVTZ
    Blend: AUG-CC-PVTZ
  Basis Set: (AUG-CC-PVTZ AUX)
    Blend: AUG-CC-PVTZ-JKFIT
	 Reference Energy          =    -233.0473596925254469 [Eh]
	 Singles Energy            =      -0.0000000000000000 [Eh]
	 Same-Spin Energy          =      -0.2499986502414604 [Eh]
	 Opposite-Spin Energy      =      -0.8895685307895317 [Eh]
	 Correlation Energy        =      -1.1395671810309920 [Eh]
	 Total Energy              =    -234.1869268735564447 [Eh]

	 ================> DF-SCS-MP2 Energies <==================
	-----------------------------------------------------------
	 SCS Same-Spin Scale       =       0.3333333333333333 [-]
	 SCS Opposite-Spin Scale   =       1.2000000000000000 [-]
	 SCS Same-Spin Energy      =      -0.0833328834138201 [Eh]
	 SCS Opposite-Spin Energy  =      -1.0674822369474379 [Eh]
	 SCS Correlation Energy    =      -1.1508151203612580 [Eh]
	 SCS Total Energy          =    -234.1981748128866911 [Eh]
	-----------------------------------------------------------

  Dipole Moment: [D]
     X:     0.6165      Y:    -0.0000      Z:     0.2852     Total:     0.6793

*** Psi4 exiting successfully. Buy a developer a beer!
