                               Psi4 1.4a3.dev225

  ==> Input File <==

--------------------------------------------------------------------------
#psi4
#
memory 32 gb

molecule  {
0 1
  C        1.0191550    -0.0000090     0.3706600
  C       -0.3580533    -0.0951997     1.0533175
  C        1.1895300     1.2600750    -0.4734900
  C        1.1896430    -1.2599310    -0.4737080
  C       -1.4806530    -0.0001100     0.1820590
  C       -2.4337550     0.0000760    -0.5817880
  H        1.7898900    -0.0000470     1.1539300
  H       -0.3990100    -0.8800950     1.7523450
  H       -0.3991040     0.8797040     1.7524870
  H        2.1752240     1.2782110    -0.9487550
  H        1.0912450     2.1632510     0.1376750
  H        0.4300030     1.2977920    -1.2600980
  H        2.1753400    -1.2779000    -0.9489720
  H        0.4301230    -1.2975720    -1.2603270
  H        1.0914300    -2.1632230     0.1372970
  H       -3.2625000     0.0001070    -1.2530880
units angstrom
no_reorient  #important for SAPT in psi4, default
symmetry c1  #important for SAPT in psi4, default
}

set PROPERTIES_ORIGIN ["COM"]
properties('MP2/aug-cc-pvtz', properties = ['dipole'])
--------------------------------------------------------------------------

    Molecular point group: c1
  Charge       = 0
  Multiplicity = 1
  Basis Set: AUG-CC-PVTZ
    Blend: AUG-CC-PVTZ
  Basis Set: (AUG-CC-PVTZ AUX)
    Blend: AUG-CC-PVTZ-JKFIT

    Orbital Energies [Eh]
    ---------------------

    Doubly Occupied:

       1A    -11.251661     2A    -11.237579     3A    -11.236814
       4A    -11.224740     5A    -11.212395     6A    -11.209887
       7A     -1.110975     8A     -1.025623     9A     -0.942754
      10A     -0.929687    11A     -0.790533    12A     -0.712263
      13A     -0.658673    14A     -0.617476    15A     -0.605892
      16A     -0.578677    17A     -0.539132    18A     -0.519850
      19A     -0.486554    20A     -0.474868    21A     -0.468661
      22A     -0.379775    23A     -0.370761

  @DF-RHF Final Energy:  -233.03730861826003

   => Energetics <=

    Nuclear Repulsion Energy =            223.2355931239930555
    One-Electron Energy =                -755.3753390141505406
    Two-Electron Energy =                 299.1024372718973723
    Total Energy =                       -233.0373086182600559
  Basis Set: (AUG-CC-PVTZ AUX)
    Blend: AUG-CC-PVTZ-RI
    Molecular point group: c1

    Geometry (in Angstrom), charge = 0, multiplicity = 1:

       Center              X                  Y                   Z               Mass
    ------------   -----------------  -----------------  -----------------  -----------------
         C            1.084054943020     0.013891815519     0.368450779030    12.000000000000
         C           -0.293153356980    -0.081298884481     1.051108279030    12.000000000000
         C            1.254429943020     1.273975815519    -0.475699220970    12.000000000000
         C            1.254542943020    -1.246030184481    -0.475917220970    12.000000000000
         C           -1.415753056980     0.013790815519     0.179849779030    12.000000000000
         C           -2.368855056980     0.013976815519    -0.583997220970    12.000000000000
         H            1.854789943020     0.013853815519     1.151720779030     1.007825032230
         H           -0.334110056980    -0.866194184481     1.750135779030     1.007825032230
         H           -0.334204056980     0.893604815519     1.750277779030     1.007825032230
         H            2.240123943020     1.292111815519    -0.950964220970     1.007825032230
         H            1.156144943020     2.177151815519     0.135465779030     1.007825032230
         H            0.494902943020     1.311692815519    -1.262307220970     1.007825032230
         H            2.240239943020    -1.263999184481    -0.951181220970     1.007825032230
         H            0.495022943020    -1.283671184481    -1.262536220970     1.007825032230
         H            1.156329943020    -2.149322184481     0.135087779030     1.007825032230
         H           -3.197600056980     0.014007815519    -1.255297220970     1.007825032230

  Basis Set: AUG-CC-PVTZ
    Blend: AUG-CC-PVTZ
  Basis Set: (AUG-CC-PVTZ AUX)
    Blend: AUG-CC-PVTZ-JKFIT
	 Reference Energy          =    -233.0373086182600275 [Eh]
	 Singles Energy            =      -0.0000000000000000 [Eh]
	 Same-Spin Energy          =      -0.2508701537536178 [Eh]
	 Opposite-Spin Energy      =      -0.8906588450484291 [Eh]
	 Correlation Energy        =      -1.1415289988020469 [Eh]
	 Total Energy              =    -234.1788376170620722 [Eh]

	 ================> DF-SCS-MP2 Energies <==================
	-----------------------------------------------------------
	 SCS Same-Spin Scale       =       0.3333333333333333 [-]
	 SCS Opposite-Spin Scale   =       1.2000000000000000 [-]
	 SCS Same-Spin Energy      =      -0.0836233845845392 [Eh]
	 SCS Opposite-Spin Energy  =      -1.0687906140581149 [Eh]
	 SCS Correlation Energy    =      -1.1524139986426543 [Eh]
	 SCS Total Energy          =    -234.1897226169026851 [Eh]
	-----------------------------------------------------------

  Dipole Moment: [D]
     X:     0.6354      Y:    -0.0603      Z:     0.2766     Total:     0.6956

*** Psi4 exiting successfully. Buy a developer a beer!
