                               Psi4 1.4a3.dev225

  ==> Input File <==

--------------------------------------------------------------------------
#psi4
#
memory 32 gb

molecule  {
0 1
  C        1.0191550    -0.0000090     0.3706600
  C       -0.3376930    -0.0001380     1.0991850
  C        1.1895300     1.2600750    -0.4734900
  C        1.2119838    -1.4250318    -0.5843544
  C       -1.4806530    -0.0001100     0.1820590
  C       -2.4337550     0.0000760    -0.5817880
  H        1.7898900    -0.0000470     1.1539300
  H       -0.3990100    -0.8800950     1.7523450
  H       -0.3991040     0.8797040     1.7524870
  H        2.1752240     1.2782110    -0.9487550
  H        1.0912450     2.1632510     0.1376750
  H        0.4300030     1.2977920    -1.2600980
  H        2.1753400    -1.2779000    -0.9489720
  H        0.4301230    -1.2975720    -1.2603270
  H        1.0914300    -2.1632230     0.1372970
  H       -3.2625000     0.0001070    -1.2530880
units angstrom
no_reorient  #important for SAPT in psi4, default
symmetry c1  #important for SAPT in psi4, default
}

set PROPERTIES_ORIGIN ["COM"]
properties('MP2/aug-cc-pvtz', properties = ['dipole'])
--------------------------------------------------------------------------

    Molecular point group: c1
  Charge       = 0
  Multiplicity = 1
  Basis Set: AUG-CC-PVTZ
    Blend: AUG-CC-PVTZ
  Basis Set: (AUG-CC-PVTZ AUX)
    Blend: AUG-CC-PVTZ-JKFIT

    Orbital Energies [Eh]
    ---------------------

    Doubly Occupied:

       1A    -11.250606     2A    -11.242919     3A    -11.237860
       4A    -11.223589     5A    -11.211468     6A    -11.208513
       7A     -1.095219     8A     -1.015579     9A     -0.942242
      10A     -0.933024    11A     -0.786779    12A     -0.709973
      13A     -0.646337    14A     -0.614193    15A     -0.607180
      16A     -0.587092    17A     -0.555523    18A     -0.539780
      19A     -0.490412    20A     -0.483268    21A     -0.419869
      22A     -0.378152    23A     -0.376577

  @DF-RHF Final Energy:  -233.02306721640076

   => Energetics <=

    Nuclear Repulsion Energy =            220.1154672071469065
    One-Electron Energy =                -749.1647580909323096
    Two-Electron Energy =                 296.0262236673846132
    Total Energy =                       -233.0230672164007615
  Basis Set: (AUG-CC-PVTZ AUX)
    Blend: AUG-CC-PVTZ-RI
    Molecular point group: c1

    Geometry (in Angstrom), charge = 0, multiplicity = 1:

       Center              X                  Y                   Z               Mass
    ------------   -----------------  -----------------  -----------------  -----------------
         C            1.077811959062     0.024131668303     0.377921580332    12.000000000000
         C           -0.279036040938     0.024002668303     1.106446580332    12.000000000000
         C            1.248186959062     1.284215668303    -0.466228419668    12.000000000000
         C            1.270640759062    -1.400891131697    -0.577092819668    12.000000000000
         C           -1.421996040938     0.024030668303     0.189320580332    12.000000000000
         C           -2.375098040938     0.024216668303    -0.574526419668    12.000000000000
         H            1.848546959062     0.024093668303     1.161191580332     1.007825032230
         H           -0.340353040938    -0.855954331697     1.759606580332     1.007825032230
         H           -0.340447040938     0.903844668303     1.759748580332     1.007825032230
         H            2.233880959062     1.302351668303    -0.941493419668     1.007825032230
         H            1.149901959062     2.187391668303     0.144936580332     1.007825032230
         H            0.488659959062     1.321932668303    -1.252836419668     1.007825032230
         H            2.233996959062    -1.253759331697    -0.941710419668     1.007825032230
         H            0.488779959062    -1.273431331697    -1.253065419668     1.007825032230
         H            1.150086959062    -2.139082331697     0.144558580332     1.007825032230
         H           -3.203843040938     0.024247668303    -1.245826419668     1.007825032230

  Basis Set: AUG-CC-PVTZ
    Blend: AUG-CC-PVTZ
  Basis Set: (AUG-CC-PVTZ AUX)
    Blend: AUG-CC-PVTZ-JKFIT
	 Reference Energy          =    -233.0230672164007615 [Eh]
	 Singles Energy            =      -0.0000000000000000 [Eh]
	 Same-Spin Energy          =      -0.2498466988931724 [Eh]
	 Opposite-Spin Energy      =      -0.8903673030277764 [Eh]
	 Correlation Energy        =      -1.1402140019209488 [Eh]
	 Total Energy              =    -234.1632812183217141 [Eh]

	 ================> DF-SCS-MP2 Energies <==================
	-----------------------------------------------------------
	 SCS Same-Spin Scale       =       0.3333333333333333 [-]
	 SCS Opposite-Spin Scale   =       1.2000000000000000 [-]
	 SCS Same-Spin Energy      =      -0.0832822329643908 [Eh]
	 SCS Opposite-Spin Energy  =      -1.0684407636333317 [Eh]
	 SCS Correlation Energy    =      -1.1517229965977225 [Eh]
	 SCS Total Energy          =    -234.1747902129984880 [Eh]
	-----------------------------------------------------------

  Dipole Moment: [D]
     X:     0.6278      Y:     0.0875      Z:     0.3804     Total:     0.7393

*** Psi4 exiting successfully. Buy a developer a beer!
