                               Psi4 1.4a3.dev225

  ==> Input File <==

--------------------------------------------------------------------------
#psi4
#
memory 32 gb

molecule  {
0 1
  C        1.0191550    -0.0000090     0.3706600
  C       -0.2495894    -0.0001296     1.0518800
  C        1.1895300     1.2600750    -0.4734900
  C        1.1896430    -1.2599310    -0.4737080
  C       -1.4806530    -0.0001100     0.1820590
  C       -2.4337550     0.0000760    -0.5817880
  H        1.7898900    -0.0000470     1.1539300
  H       -0.3990100    -0.8800950     1.7523450
  H       -0.3991040     0.8797040     1.7524870
  H        2.1752240     1.2782110    -0.9487550
  H        1.0912450     2.1632510     0.1376750
  H        0.4300030     1.2977920    -1.2600980
  H        2.1753400    -1.2779000    -0.9489720
  H        0.4301230    -1.2975720    -1.2603270
  H        1.0914300    -2.1632230     0.1372970
  H       -3.2625000     0.0001070    -1.2530880
units angstrom
no_reorient  #important for SAPT in psi4, default
symmetry c1  #important for SAPT in psi4, default
}

set PROPERTIES_ORIGIN ["COM"]
properties('MP2/aug-cc-pvtz', properties = ['dipole'])
--------------------------------------------------------------------------

    Molecular point group: c1
  Charge       = 0
  Multiplicity = 1
  Basis Set: AUG-CC-PVTZ
    Blend: AUG-CC-PVTZ
  Basis Set: (AUG-CC-PVTZ AUX)
    Blend: AUG-CC-PVTZ-JKFIT

    Orbital Energies [Eh]
    ---------------------

    Doubly Occupied:

       1A    -11.257136     2A    -11.238464     3A    -11.230423
       4A    -11.222376     5A    -11.212161     6A    -11.212141
       7A     -1.120643     8A     -1.018214     9A     -0.940671
      10A     -0.932057    11A     -0.792839    12A     -0.708054
      13A     -0.656091    14A     -0.613896    15A     -0.611551
      16A     -0.567936    17A     -0.538867    18A     -0.516833
      19A     -0.497997    20A     -0.472098    21A     -0.470190
      22A     -0.381699    23A     -0.375212

  @DF-RHF Final Energy:  -233.03919310337906

   => Energetics <=

    Nuclear Repulsion Energy =            223.6586620473438529
    One-Electron Energy =                -756.2206096371430704
    Two-Electron Energy =                 299.5227544864201832
    Total Energy =                       -233.0391931033790911
  Basis Set: (AUG-CC-PVTZ AUX)
    Blend: AUG-CC-PVTZ-RI
    Molecular point group: c1

    Geometry (in Angstrom), charge = 0, multiplicity = 1:

       Center              X                  Y                   Z               Mass
    ------------   -----------------  -----------------  -----------------  -----------------
         C            1.068197309665    -0.000007618198     0.368660944329    12.000000000000
         C           -0.200547090335    -0.000128218198     1.049880944329    12.000000000000
         C            1.238572309665     1.260076381802    -0.475489055671    12.000000000000
         C            1.238685309665    -1.259929618198    -0.475707055671    12.000000000000
         C           -1.431610690335    -0.000108618198     0.180059944329    12.000000000000
         C           -2.384712690335     0.000077381802    -0.583787055671    12.000000000000
         H            1.838932309665    -0.000045618198     1.151930944329     1.007825032230
         H           -0.349967690335    -0.880093618198     1.750345944329     1.007825032230
         H           -0.350061690335     0.879705381802     1.750487944329     1.007825032230
         H            2.224266309665     1.278212381802    -0.950754055671     1.007825032230
         H            1.140287309665     2.163252381802     0.135675944329     1.007825032230
         H            0.479045309665     1.297793381802    -1.262097055671     1.007825032230
         H            2.224382309665    -1.277898618198    -0.950971055671     1.007825032230
         H            0.479165309665    -1.297570618198    -1.262326055671     1.007825032230
         H            1.140472309665    -2.163221618198     0.135297944329     1.007825032230
         H           -3.213457690335     0.000108381802    -1.255087055671     1.007825032230

  Basis Set: AUG-CC-PVTZ
    Blend: AUG-CC-PVTZ
  Basis Set: (AUG-CC-PVTZ AUX)
    Blend: AUG-CC-PVTZ-JKFIT
	 Reference Energy          =    -233.0391931033790627 [Eh]
	 Singles Energy            =      -0.0000000000000000 [Eh]
	 Same-Spin Energy          =      -0.2504842024973266 [Eh]
	 Opposite-Spin Energy      =      -0.8901207722887321 [Eh]
	 Correlation Energy        =      -1.1406049747860587 [Eh]
	 Total Energy              =    -234.1797980781651347 [Eh]

	 ================> DF-SCS-MP2 Energies <==================
	-----------------------------------------------------------
	 SCS Same-Spin Scale       =       0.3333333333333333 [-]
	 SCS Opposite-Spin Scale   =       1.2000000000000000 [-]
	 SCS Same-Spin Energy      =      -0.0834947341657755 [Eh]
	 SCS Opposite-Spin Energy  =      -1.0681449267464784 [Eh]
	 SCS Correlation Energy    =      -1.1516396609122539 [Eh]
	 SCS Total Energy          =    -234.1908327642913150 [Eh]
	-----------------------------------------------------------

  Dipole Moment: [D]
     X:     0.7198      Y:     0.0000      Z:     0.2834     Total:     0.7736

*** Psi4 exiting successfully. Buy a developer a beer!
