                               Psi4 1.4a3.dev225

  ==> Input File <==

--------------------------------------------------------------------------
#psi4
#
memory 32 gb

molecule  {
0 1
  C        1.0191550    -0.0000090     0.3706600
  C       -0.3376930    -0.0001380     1.0991850
  C        1.1895300     1.2600750    -0.4734900
  C        1.1896430    -1.2599310    -0.4737080
  C       -1.4806530    -0.0001100     0.1820590
  C       -2.4337550     0.0000760    -0.5817880
  H        1.7898900    -0.0000470     1.1539300
  H       -0.3990100    -0.8800950     1.7523450
  H       -0.3991040     0.8797040     1.7524870
  H        2.1752240     1.2782110    -0.9487550
  H        1.0912450     2.1632510     0.1376750
  H        0.4300030     1.2977920    -1.2600980
  H        2.1933528    -1.2782284    -0.9576571
  H        0.4301230    -1.2975720    -1.2603270
  H        1.0914300    -2.1632230     0.1372970
  H       -3.2625000     0.0001070    -1.2530880
units angstrom
no_reorient  #important for SAPT in psi4, default
symmetry c1  #important for SAPT in psi4, default
}

set PROPERTIES_ORIGIN ["COM"]
properties('MP2/aug-cc-pvtz', properties = ['dipole'])
--------------------------------------------------------------------------

    Molecular point group: c1
  Charge       = 0
  Multiplicity = 1
  Basis Set: AUG-CC-PVTZ
    Blend: AUG-CC-PVTZ
  Basis Set: (AUG-CC-PVTZ AUX)
    Blend: AUG-CC-PVTZ-JKFIT

    Orbital Energies [Eh]
    ---------------------

    Doubly Occupied:

       1A    -11.250524     2A    -11.237769     3A    -11.236046
       4A    -11.223473     5A    -11.213705     6A    -11.211230
       7A     -1.107721     8A     -1.021654     9A     -0.942229
      10A     -0.928986    11A     -0.786884    12A     -0.710837
      13A     -0.650885    14A     -0.615000    15A     -0.608580
      16A     -0.579175    17A     -0.539242    18A     -0.521348
      19A     -0.483446    20A     -0.473661    21A     -0.472788
      22A     -0.377989    23A     -0.377963

  @DF-RHF Final Energy:  -233.04896935128110

   => Energetics <=

    Nuclear Repulsion Energy =            222.6588953189730944
    One-Electron Energy =                -754.2734608223471469
    Two-Electron Energy =                 298.5655961520928940
    Total Energy =                       -233.0489693512811300
  Basis Set: (AUG-CC-PVTZ AUX)
    Blend: AUG-CC-PVTZ-RI
    Molecular point group: c1

    Geometry (in Angstrom), charge = 0, multiplicity = 1:

       Center              X                  Y                   Z               Mass
    ------------   -----------------  -----------------  -----------------  -----------------
         C            1.080857051377    -0.000002357733     0.361851504110    12.000000000000
         C           -0.275990948623    -0.000131357733     1.090376504110    12.000000000000
         C            1.251232051377     1.260081642267    -0.482298495890    12.000000000000
         C            1.251345051377    -1.259924357733    -0.482516495890    12.000000000000
         C           -1.418950948623    -0.000103357733     0.173250504110    12.000000000000
         C           -2.372052948623     0.000082642267    -0.590596495890    12.000000000000
         H            1.851592051377    -0.000040357733     1.145121504110     1.007825032230
         H           -0.337307948623    -0.880088357733     1.743536504110     1.007825032230
         H           -0.337401948623     0.879710642267     1.743678504110     1.007825032230
         H            2.236926051377     1.278217642267    -0.957563495890     1.007825032230
         H            1.152947051377     2.163257642267     0.128866504110     1.007825032230
         H            0.491705051377     1.297798642267    -1.268906495890     1.007825032230
         H            2.255054851377    -1.278221757733    -0.966465595890     1.007825032230
         H            0.491825051377    -1.297565357733    -1.269135495890     1.007825032230
         H            1.153132051377    -2.163216357733     0.128488504110     1.007825032230
         H           -3.200797948623     0.000113642267    -1.261896495890     1.007825032230

  Basis Set: AUG-CC-PVTZ
    Blend: AUG-CC-PVTZ
  Basis Set: (AUG-CC-PVTZ AUX)
    Blend: AUG-CC-PVTZ-JKFIT
	 Reference Energy          =    -233.0489693512811016 [Eh]
	 Singles Energy            =      -0.0000000000000000 [Eh]
	 Same-Spin Energy          =      -0.2499789511753720 [Eh]
	 Opposite-Spin Energy      =      -0.8893375624418065 [Eh]
	 Correlation Energy        =      -1.1393165136171786 [Eh]
	 Total Energy              =    -234.1882858648982904 [Eh]

	 ================> DF-SCS-MP2 Energies <==================
	-----------------------------------------------------------
	 SCS Same-Spin Scale       =       0.3333333333333333 [-]
	 SCS Opposite-Spin Scale   =       1.2000000000000000 [-]
	 SCS Same-Spin Energy      =      -0.0833263170584573 [Eh]
	 SCS Opposite-Spin Energy  =      -1.0672050749301678 [Eh]
	 SCS Correlation Energy    =      -1.1505313919886251 [Eh]
	 SCS Total Energy          =    -234.1995007432697378 [Eh]
	-----------------------------------------------------------

  Dipole Moment: [D]
     X:     0.6347      Y:     0.0037      Z:     0.3260     Total:     0.7135

*** Psi4 exiting successfully. Buy a developer a beer!
