                               Psi4 1.4a3.dev225

  ==> Input File <==

--------------------------------------------------------------------------
#psi4
#
memory 32 gb

molecule  {
0 1
  C        1.0191550    -0.0000090     0.3706600
  C       -0.3376930    -0.0001380     1.0991850
  C        1.1895300     1.2600750    -0.4734900
  C        1.1896430    -1.2599310    -0.4737080
  C       -1.4806530    -0.0001100     0.1820590
  C       -2.4337550     0.0000760    -0.5817880
  H        1.7758624    -0.0000463     1.1396743
  H       -0.3990100    -0.8800950     1.7523450
  H       -0.3991040     0.8797040     1.7524870
  H        2.1752240     1.2782110    -0.9487550
  H        1.0912450     2.1632510     0.1376750
  H        0.4300030     1.2977920    -1.2600980
  H        2.1753400    -1.2779000    -0.9489720
  H        0.4301230    -1.2975720    -1.2603270
  H        1.0914300    -2.1632230     0.1372970
  H       -3.2625000     0.0001070    -1.2530880
units angstrom
no_reorient  #important for SAPT in psi4, default
symmetry c1  #important for SAPT in psi4, default
}

set PROPERTIES_ORIGIN ["COM"]
properties('MP2/aug-cc-pvtz', properties = ['dipole'])
--------------------------------------------------------------------------

    Molecular point group: c1
  Charge       = 0
  Multiplicity = 1
  Basis Set: AUG-CC-PVTZ
    Blend: AUG-CC-PVTZ
  Basis Set: (AUG-CC-PVTZ AUX)
    Blend: AUG-CC-PVTZ-JKFIT

    Orbital Energies [Eh]
    ---------------------

    Doubly Occupied:

       1A    -11.250149     2A    -11.237527     3A    -11.233296
       4A    -11.223189     5A    -11.211032     6A    -11.211013
       7A     -1.108172     8A     -1.021878     9A     -0.942285
      10A     -0.929831    11A     -0.789725    12A     -0.710763
      13A     -0.651658    14A     -0.615257    15A     -0.609217
      16A     -0.579235    17A     -0.539030    18A     -0.523091
      19A     -0.484162    20A     -0.474997    21A     -0.473190
      22A     -0.377737    23A     -0.377701

  @DF-RHF Final Energy:  -233.04955047788076

   => Energetics <=

    Nuclear Repulsion Energy =            222.8429967933935529
    One-Electron Energy =                -754.6368215703078022
    Two-Electron Energy =                 298.7442742990334636
    Total Energy =                       -233.0495504778807572
  Basis Set: (AUG-CC-PVTZ AUX)
    Blend: AUG-CC-PVTZ-RI
    Molecular point group: c1

    Geometry (in Angstrom), charge = 0, multiplicity = 1:

       Center              X                  Y                   Z               Mass
    ------------   -----------------  -----------------  -----------------  -----------------
         C            1.081250470060    -0.000006398697     0.361919904571    12.000000000000
         C           -0.275597529940    -0.000135398697     1.090444904571    12.000000000000
         C            1.251625470060     1.260077601303    -0.482230095429    12.000000000000
         C            1.251738470060    -1.259928398697    -0.482448095429    12.000000000000
         C           -1.418557529940    -0.000107398697     0.173318904571    12.000000000000
         C           -2.371659529940     0.000078601303    -0.590528095429    12.000000000000
         H            1.837957870060    -0.000043698697     1.130934204571     1.007825032230
         H           -0.336914529940    -0.880092398697     1.743604904571     1.007825032230
         H           -0.337008529940     0.879706601303     1.743746904571     1.007825032230
         H            2.237319470060     1.278213601303    -0.957495095429     1.007825032230
         H            1.153340470060     2.163253601303     0.128934904571     1.007825032230
         H            0.492098470060     1.297794601303    -1.268838095429     1.007825032230
         H            2.237435470060    -1.277897398697    -0.957712095429     1.007825032230
         H            0.492218470060    -1.297569398697    -1.269067095429     1.007825032230
         H            1.153525470060    -2.163220398697     0.128556904571     1.007825032230
         H           -3.200404529940     0.000109601303    -1.261828095429     1.007825032230

  Basis Set: AUG-CC-PVTZ
    Blend: AUG-CC-PVTZ
  Basis Set: (AUG-CC-PVTZ AUX)
    Blend: AUG-CC-PVTZ-JKFIT
	 Reference Energy          =    -233.0495504778807572 [Eh]
	 Singles Energy            =      -0.0000000000000000 [Eh]
	 Same-Spin Energy          =      -0.2499780552288497 [Eh]
	 Opposite-Spin Energy      =      -0.8890840306476977 [Eh]
	 Correlation Energy        =      -1.1390620858765474 [Eh]
	 Total Energy              =    -234.1886125637573173 [Eh]

	 ================> DF-SCS-MP2 Energies <==================
	-----------------------------------------------------------
	 SCS Same-Spin Scale       =       0.3333333333333333 [-]
	 SCS Opposite-Spin Scale   =       1.2000000000000000 [-]
	 SCS Same-Spin Energy      =      -0.0833260184096166 [Eh]
	 SCS Opposite-Spin Energy  =      -1.0669008367772372 [Eh]
	 SCS Correlation Energy    =      -1.1502268551868537 [Eh]
	 SCS Total Energy          =    -234.1997773330676011 [Eh]
	-----------------------------------------------------------

  Dipole Moment: [D]
     X:     0.6599      Y:    -0.0000      Z:     0.3309     Total:     0.7382

*** Psi4 exiting successfully. Buy a developer a beer!
