                               Psi4 1.4a3.dev225

  ==> Input File <==

--------------------------------------------------------------------------
#psi4
#
memory 32 gb

molecule  {
0 1
  C        1.0191550    -0.0000090     0.3706600
  C       -0.3376930    -0.0001380     1.0991850
  C        1.1895300     1.2600750    -0.4734900
  C        1.2008134    -1.3424814    -0.5290312
  C       -1.4806530    -0.0001100     0.1820590
  C       -2.4337550     0.0000760    -0.5817880
  H        1.7898900    -0.0000470     1.1539300
  H       -0.3990100    -0.8800950     1.7523450
  H       -0.3991040     0.8797040     1.7524870
  H        2.1752240     1.2782110    -0.9487550
  H        1.0912450     2.1632510     0.1376750
  H        0.4300030     1.2977920    -1.2600980
  H        2.1753400    -1.2779000    -0.9489720
  H        0.4301230    -1.2975720    -1.2603270
  H        1.0914300    -2.1632230     0.1372970
  H       -3.2625000     0.0001070    -1.2530880
units angstrom
no_reorient  #important for SAPT in psi4, default
symmetry c1  #important for SAPT in psi4, default
}

set PROPERTIES_ORIGIN ["COM"]
properties('MP2/aug-cc-pvtz', properties = ['dipole'])
--------------------------------------------------------------------------

    Molecular point group: c1
  Charge       = 0
  Multiplicity = 1
  Basis Set: AUG-CC-PVTZ
    Blend: AUG-CC-PVTZ
  Basis Set: (AUG-CC-PVTZ AUX)
    Blend: AUG-CC-PVTZ-JKFIT

    Orbital Energies [Eh]
    ---------------------

    Doubly Occupied:

       1A    -11.250249     2A    -11.239627     3A    -11.237689
       4A    -11.223386     5A    -11.211124     6A    -11.208314
       7A     -1.100079     8A     -1.018226     9A     -0.942045
      10A     -0.931365    11A     -0.787044    12A     -0.710212
      13A     -0.648052    14A     -0.613685    15A     -0.607778
      16A     -0.581777    17A     -0.547058    18A     -0.532530
      19A     -0.488202    20A     -0.479720    21A     -0.447702
      22A     -0.377942    23A     -0.377493

  @DF-RHF Final Energy:  -233.04243077962394

   => Energetics <=

    Nuclear Repulsion Energy =            221.4016698955751679
    One-Electron Energy =                -751.7656023063058228
    Two-Electron Energy =                 297.3215016311066847
    Total Energy =                       -233.0424307796239418
  Basis Set: (AUG-CC-PVTZ AUX)
    Blend: AUG-CC-PVTZ-RI
    Molecular point group: c1

    Geometry (in Angstrom), charge = 0, multiplicity = 1:

       Center              X                  Y                   Z               Mass
    ------------   -----------------  -----------------  -----------------  -----------------
         C            1.079445093291     0.012062639101     0.369833220780    12.000000000000
         C           -0.277402906709     0.011933639101     1.098358220780    12.000000000000
         C            1.249820093291     1.272146639101    -0.474316779220    12.000000000000
         C            1.261103493291    -1.330409760899    -0.529857979220    12.000000000000
         C           -1.420362906709     0.011961639101     0.181232220780    12.000000000000
         C           -2.373464906709     0.012147639101    -0.582614779220    12.000000000000
         H            1.850180093291     0.012024639101     1.153103220780     1.007825032230
         H           -0.338719906709    -0.868023360899     1.751518220780     1.007825032230
         H           -0.338813906709     0.891775639101     1.751660220780     1.007825032230
         H            2.235514093291     1.290282639101    -0.949581779220     1.007825032230
         H            1.151535093291     2.175322639101     0.136848220780     1.007825032230
         H            0.490293093291     1.309863639101    -1.260924779220     1.007825032230
         H            2.235630093291    -1.265828360899    -0.949798779220     1.007825032230
         H            0.490413093291    -1.285500360899    -1.261153779220     1.007825032230
         H            1.151720093291    -2.151151360899     0.136470220780     1.007825032230
         H           -3.202209906709     0.012178639101    -1.253914779220     1.007825032230

  Basis Set: AUG-CC-PVTZ
    Blend: AUG-CC-PVTZ
  Basis Set: (AUG-CC-PVTZ AUX)
    Blend: AUG-CC-PVTZ-JKFIT
	 Reference Energy          =    -233.0424307796239418 [Eh]
	 Singles Energy            =      -0.0000000000000000 [Eh]
	 Same-Spin Energy          =      -0.2495906920316711 [Eh]
	 Opposite-Spin Energy      =      -0.8891779723235824 [Eh]
	 Correlation Energy        =      -1.1387686643552535 [Eh]
	 Total Energy              =    -234.1811994439791818 [Eh]

	 ================> DF-SCS-MP2 Energies <==================
	-----------------------------------------------------------
	 SCS Same-Spin Scale       =       0.3333333333333333 [-]
	 SCS Opposite-Spin Scale   =       1.2000000000000000 [-]
	 SCS Same-Spin Energy      =      -0.0831968973438904 [Eh]
	 SCS Opposite-Spin Energy  =      -1.0670135667882990 [Eh]
	 SCS Correlation Energy    =      -1.1502104641321893 [Eh]
	 SCS Total Energy          =    -234.1926412437561282 [Eh]
	-----------------------------------------------------------

  Dipole Moment: [D]
     X:     0.6442      Y:     0.0253      Z:     0.3403     Total:     0.7290

*** Psi4 exiting successfully. Buy a developer a beer!
