                               Psi4 1.4a3.dev225

  ==> Input File <==

--------------------------------------------------------------------------
#psi4
#
memory 32 gb

molecule  {
0 1
  C        0.8731802     0.0539866     0.4066816
  C       -0.3376930    -0.0001380     1.0991850
  C        1.1895300     1.2600750    -0.4734900
  C        1.1896430    -1.2599310    -0.4737080
  C       -1.4806530    -0.0001100     0.1820590
  C       -2.4337550     0.0000760    -0.5817880
  H        1.7898900    -0.0000470     1.1539300
  H       -0.3990100    -0.8800950     1.7523450
  H       -0.3991040     0.8797040     1.7524870
  H        2.1752240     1.2782110    -0.9487550
  H        1.0912450     2.1632510     0.1376750
  H        0.4300030     1.2977920    -1.2600980
  H        2.1753400    -1.2779000    -0.9489720
  H        0.4301230    -1.2975720    -1.2603270
  H        1.0914300    -2.1632230     0.1372970
  H       -3.2625000     0.0001070    -1.2530880
units angstrom
no_reorient  #important for SAPT in psi4, default
symmetry c1  #important for SAPT in psi4, default
}

set PROPERTIES_ORIGIN ["COM"]
properties('MP2/aug-cc-pvtz', properties = ['dipole'])
--------------------------------------------------------------------------

    Molecular point group: c1
  Charge       = 0
  Multiplicity = 1
  Basis Set: AUG-CC-PVTZ
    Blend: AUG-CC-PVTZ
  Basis Set: (AUG-CC-PVTZ AUX)
    Blend: AUG-CC-PVTZ-JKFIT

    Orbital Energies [Eh]
    ---------------------

    Doubly Occupied:

       1A    -11.248260     2A    -11.239625     3A    -11.238935
       4A    -11.225953     5A    -11.213435     6A    -11.212926
       7A     -1.127236     8A     -1.017846     9A     -0.952674
      10A     -0.923494    11A     -0.783995    12A     -0.712768
      13A     -0.660302    14A     -0.629836    15A     -0.611031
      16A     -0.572626    17A     -0.533527    18A     -0.527802
      19A     -0.518943    20A     -0.454943    21A     -0.432434
      22A     -0.384630    23A     -0.379154

  @DF-RHF Final Energy:  -233.02098380770894

   => Energetics <=

    Nuclear Repulsion Energy =            223.8445512504368935
    One-Electron Energy =                -756.5263154625828292
    Two-Electron Energy =                 299.6607804044369914
    Total Energy =                       -233.0209838077089444
  Basis Set: (AUG-CC-PVTZ AUX)
    Blend: AUG-CC-PVTZ-RI
    Molecular point group: c1

    Geometry (in Angstrom), charge = 0, multiplicity = 1:

       Center              X                  Y                   Z               Mass
    ------------   -----------------  -----------------  -----------------  -----------------
         C            0.956445227486     0.046094948051     0.392500033176    12.000000000000
         C           -0.254427972514    -0.008029651949     1.085003433176    12.000000000000
         C            1.272795027486     1.252183348051    -0.487671566824    12.000000000000
         C            1.272908027486    -1.267822651949    -0.487889566824    12.000000000000
         C           -1.397387972514    -0.008001651949     0.167877433176    12.000000000000
         C           -2.350489972514    -0.007815651949    -0.595969566824    12.000000000000
         H            1.873155027486    -0.007938651949     1.139748433176     1.007825032230
         H           -0.315744972514    -0.887986651949     1.738163433176     1.007825032230
         H           -0.315838972514     0.871812348051     1.738305433176     1.007825032230
         H            2.258489027486     1.270319348051    -0.962936566824     1.007825032230
         H            1.174510027486     2.155359348051     0.123493433176     1.007825032230
         H            0.513268027486     1.289900348051    -1.274279566824     1.007825032230
         H            2.258605027486    -1.285791651949    -0.963153566824     1.007825032230
         H            0.513388027486    -1.305463651949    -1.274508566824     1.007825032230
         H            1.174695027486    -2.171114651949     0.123115433176     1.007825032230
         H           -3.179234972514    -0.007784651949    -1.267269566824     1.007825032230

  Basis Set: AUG-CC-PVTZ
    Blend: AUG-CC-PVTZ
  Basis Set: (AUG-CC-PVTZ AUX)
    Blend: AUG-CC-PVTZ-JKFIT
	 Reference Energy          =    -233.0209838077089444 [Eh]
	 Singles Energy            =      -0.0000000000000000 [Eh]
	 Same-Spin Energy          =      -0.2512812488281497 [Eh]
	 Opposite-Spin Energy      =      -0.8918348285895763 [Eh]
	 Correlation Energy        =      -1.1431160774177260 [Eh]
	 Total Energy              =    -234.1640998851266602 [Eh]

	 ================> DF-SCS-MP2 Energies <==================
	-----------------------------------------------------------
	 SCS Same-Spin Scale       =       0.3333333333333333 [-]
	 SCS Opposite-Spin Scale   =       1.2000000000000000 [-]
	 SCS Same-Spin Energy      =      -0.0837604162760499 [Eh]
	 SCS Opposite-Spin Energy  =      -1.0702017943074915 [Eh]
	 SCS Correlation Energy    =      -1.1539622105835414 [Eh]
	 SCS Total Energy          =    -234.1749460182924736 [Eh]
	-----------------------------------------------------------

  Dipole Moment: [D]
     X:     0.4946      Y:     0.0412      Z:     0.3140     Total:     0.5873

*** Psi4 exiting successfully. Buy a developer a beer!
