                               Psi4 1.4a3.dev225

  ==> Input File <==

--------------------------------------------------------------------------
#psi4
#
memory 32 gb

molecule  {
0 1
  C        1.0437092    -0.0076798     0.3637451
  C       -0.3376930    -0.0001380     1.0991850
  C        1.1895300     1.2600750    -0.4734900
  C        1.1896430    -1.2599310    -0.4737080
  C       -1.4806530    -0.0001100     0.1820590
  C       -2.4337550     0.0000760    -0.5817880
  H        1.7898900    -0.0000470     1.1539300
  H       -0.3990100    -0.8800950     1.7523450
  H       -0.3991040     0.8797040     1.7524870
  H        2.1752240     1.2782110    -0.9487550
  H        1.0912450     2.1632510     0.1376750
  H        0.4300030     1.2977920    -1.2600980
  H        2.1753400    -1.2779000    -0.9489720
  H        0.4301230    -1.2975720    -1.2603270
  H        1.0914300    -2.1632230     0.1372970
  H       -3.2625000     0.0001070    -1.2530880
units angstrom
no_reorient  #important for SAPT in psi4, default
symmetry c1  #important for SAPT in psi4, default
}

set PROPERTIES_ORIGIN ["COM"]
properties('MP2/aug-cc-pvtz', properties = ['dipole'])
--------------------------------------------------------------------------

    Molecular point group: c1
  Charge       = 0
  Multiplicity = 1
  Basis Set: AUG-CC-PVTZ
    Blend: AUG-CC-PVTZ
  Basis Set: (AUG-CC-PVTZ AUX)
    Blend: AUG-CC-PVTZ-JKFIT

    Orbital Energies [Eh]
    ---------------------

    Doubly Occupied:

       1A    -11.250336     2A    -11.237412     3A    -11.235849
       4A    -11.222875     5A    -11.211318     6A    -11.211043
       7A     -1.105669     8A     -1.022446     9A     -0.940893
      10A     -0.931086    11A     -0.788217    12A     -0.710459
      13A     -0.649874    14A     -0.613291    15A     -0.608819
      16A     -0.580331    17A     -0.540644    18A     -0.523031
      19A     -0.480826    20A     -0.475868    21A     -0.475459
      22A     -0.377514    23A     -0.376223

  @DF-RHF Final Energy:  -233.04894783047820

   => Energetics <=

    Nuclear Repulsion Energy =            222.5720033703491367
    One-Electron Energy =                -754.1029370327275956
    Two-Electron Energy =                 298.4819858319002037
    Total Energy =                       -233.0489478304781983
  Basis Set: (AUG-CC-PVTZ AUX)
    Blend: AUG-CC-PVTZ-RI
    Molecular point group: c1

    Geometry (in Angstrom), charge = 0, multiplicity = 1:

       Center              X                  Y                   Z               Mass
    ------------   -----------------  -----------------  -----------------  -----------------
         C            1.102042555673    -0.006555704207     0.355840933071    12.000000000000
         C           -0.279359644327     0.000986095793     1.091280833071    12.000000000000
         C            1.247863355673     1.261199095793    -0.481394166929    12.000000000000
         C            1.247976355673    -1.258806904207    -0.481612166929    12.000000000000
         C           -1.422319644327     0.001014095793     0.174154833071    12.000000000000
         C           -2.375421644327     0.001200095793    -0.589692166929    12.000000000000
         H            1.848223355673     0.001077095793     1.146025833071     1.007825032230
         H           -0.340676644327    -0.878970904207     1.744440833071     1.007825032230
         H           -0.340770644327     0.880828095793     1.744582833071     1.007825032230
         H            2.233557355673     1.279335095793    -0.956659166929     1.007825032230
         H            1.149578355673     2.164375095793     0.129770833071     1.007825032230
         H            0.488336355673     1.298916095793    -1.268002166929     1.007825032230
         H            2.233673355673    -1.276775904207    -0.956876166929     1.007825032230
         H            0.488456355673    -1.296447904207    -1.268231166929     1.007825032230
         H            1.149763355673    -2.162098904207     0.129392833071     1.007825032230
         H           -3.204166644327     0.001231095793    -1.260992166929     1.007825032230

  Basis Set: AUG-CC-PVTZ
    Blend: AUG-CC-PVTZ
  Basis Set: (AUG-CC-PVTZ AUX)
    Blend: AUG-CC-PVTZ-JKFIT
	 Reference Energy          =    -233.0489478304781983 [Eh]
	 Singles Energy            =      -0.0000000000000000 [Eh]
	 Same-Spin Energy          =      -0.2499748556696231 [Eh]
	 Opposite-Spin Energy      =      -0.8891540705744454 [Eh]
	 Correlation Energy        =      -1.1391289262440685 [Eh]
	 Total Energy              =    -234.1880767567222676 [Eh]

	 ================> DF-SCS-MP2 Energies <==================
	-----------------------------------------------------------
	 SCS Same-Spin Scale       =       0.3333333333333333 [-]
	 SCS Opposite-Spin Scale   =       1.2000000000000000 [-]
	 SCS Same-Spin Energy      =      -0.0833249518898744 [Eh]
	 SCS Opposite-Spin Energy  =      -1.0669848846893344 [Eh]
	 SCS Correlation Energy    =      -1.1503098365792088 [Eh]
	 SCS Total Energy          =    -234.1992576670573953 [Eh]
	-----------------------------------------------------------

  Dipole Moment: [D]
     X:     0.6749      Y:    -0.0058      Z:     0.3158     Total:     0.7452

*** Psi4 exiting successfully. Buy a developer a beer!
