                               Psi4 1.4a3.dev225

  ==> Input File <==

--------------------------------------------------------------------------
#psi4
#
memory 32 gb

molecule  {
0 1
  C        1.0191550    -0.0000090     0.3706600
  C       -0.3376930    -0.0001380     1.0991850
  C        1.1895300     1.2600750    -0.4734900
  C        1.1896430    -1.2599310    -0.4737080
  C       -1.4806530    -0.0001100     0.1820590
  C       -2.4337550     0.0000760    -0.5817880
  H        1.7898900    -0.0000470     1.1539300
  H       -0.3990100    -0.8800950     1.7523450
  H       -0.3991040     0.8797040     1.7524870
  H        2.1752240     1.2782110    -0.9487550
  H        1.0912450     2.1632510     0.1376750
  H        0.4300030     1.2977920    -1.2600980
  H        2.1753400    -1.2779000    -0.9489720
  H        0.3607034    -1.3010124    -1.3322234
  H        1.0914300    -2.1632230     0.1372970
  H       -3.2625000     0.0001070    -1.2530880
units angstrom
no_reorient  #important for SAPT in psi4, default
symmetry c1  #important for SAPT in psi4, default
}

set PROPERTIES_ORIGIN ["COM"]
properties('MP2/aug-cc-pvtz', properties = ['dipole'])
--------------------------------------------------------------------------

    Molecular point group: c1
  Charge       = 0
  Multiplicity = 1
  Basis Set: AUG-CC-PVTZ
    Blend: AUG-CC-PVTZ
  Basis Set: (AUG-CC-PVTZ AUX)
    Blend: AUG-CC-PVTZ-JKFIT

    Orbital Energies [Eh]
    ---------------------

    Doubly Occupied:

       1A    -11.250601     2A    -11.237443     3A    -11.237082
       4A    -11.222973     5A    -11.222778     6A    -11.211414
       7A     -1.107332     8A     -1.021089     9A     -0.941726
      10A     -0.925415    11A     -0.784433    12A     -0.710423
      13A     -0.650776    14A     -0.615385    15A     -0.608073
      16A     -0.578079    17A     -0.529703    18A     -0.521947
      19A     -0.484844    20A     -0.474523    21A     -0.467181
      22A     -0.377656    23A     -0.377244

  @DF-RHF Final Energy:  -233.04289854624503

   => Energetics <=

    Nuclear Repulsion Energy =            222.3944474926206851
    One-Electron Energy =                -753.7584508397256968
    Two-Electron Energy =                 298.3211048008599846
    Total Energy =                       -233.0428985462450555
  Basis Set: (AUG-CC-PVTZ AUX)
    Blend: AUG-CC-PVTZ-RI
    Molecular point group: c1

    Geometry (in Angstrom), charge = 0, multiplicity = 1:

       Center              X                  Y                   Z               Mass
    ------------   -----------------  -----------------  -----------------  -----------------
         C            1.081930619113     0.000035853991     0.362627665033    12.000000000000
         C           -0.274917380887    -0.000093146009     1.091152665033    12.000000000000
         C            1.252305619113     1.260119853991    -0.481522334967    12.000000000000
         C            1.252418619113    -1.259886146009    -0.481740334967    12.000000000000
         C           -1.417877380887    -0.000065146009     0.174026665033    12.000000000000
         C           -2.370979380887     0.000120853991    -0.589820334967    12.000000000000
         H            1.852665619113    -0.000002146009     1.145897665033     1.007825032230
         H           -0.336234380887    -0.880050146009     1.744312665033     1.007825032230
         H           -0.336328380887     0.879748853991     1.744454665033     1.007825032230
         H            2.237999619113     1.278255853991    -0.956787334967     1.007825032230
         H            1.154020619113     2.163295853991     0.129642665033     1.007825032230
         H            0.492778619113     1.297836853991    -1.268130334967     1.007825032230
         H            2.238115619113    -1.277855146009    -0.957004334967     1.007825032230
         H            0.423479019113    -1.300967546009    -1.340255734967     1.007825032230
         H            1.154205619113    -2.163178146009     0.129264665033     1.007825032230
         H           -3.199724380887     0.000151853991    -1.261120334967     1.007825032230

  Basis Set: AUG-CC-PVTZ
    Blend: AUG-CC-PVTZ
  Basis Set: (AUG-CC-PVTZ AUX)
    Blend: AUG-CC-PVTZ-JKFIT
	 Reference Energy          =    -233.0428985462450271 [Eh]
	 Singles Energy            =      -0.0000000000000000 [Eh]
	 Same-Spin Energy          =      -0.2500889163059444 [Eh]
	 Opposite-Spin Energy      =      -0.8900296480228604 [Eh]
	 Correlation Energy        =      -1.1401185643288048 [Eh]
	 Total Energy              =    -234.1830171105738430 [Eh]

	 ================> DF-SCS-MP2 Energies <==================
	-----------------------------------------------------------
	 SCS Same-Spin Scale       =       0.3333333333333333 [-]
	 SCS Opposite-Spin Scale   =       1.2000000000000000 [-]
	 SCS Same-Spin Energy      =      -0.0833629721019815 [Eh]
	 SCS Opposite-Spin Energy  =      -1.0680355776274324 [Eh]
	 SCS Correlation Energy    =      -1.1513985497294139 [Eh]
	 SCS Total Energy          =    -234.1942970959744343 [Eh]
	-----------------------------------------------------------

  Dipole Moment: [D]
     X:     0.6762      Y:     0.0149      Z:     0.3639     Total:     0.7680

*** Psi4 exiting successfully. Buy a developer a beer!
