                               Psi4 1.4a3.dev225

  ==> Input File <==

--------------------------------------------------------------------------
#psi4
#
memory 32 gb

molecule  {
0 1
  C        1.0191550    -0.0000090     0.3706600
  C       -0.2947979     0.1423110     1.1612662
  C        1.1895300     1.2600750    -0.4734900
  C        1.1896430    -1.2599310    -0.4737080
  C       -1.4806530    -0.0001100     0.1820590
  C       -2.4337550     0.0000760    -0.5817880
  H        1.7898900    -0.0000470     1.1539300
  H       -0.3990100    -0.8800950     1.7523450
  H       -0.3991040     0.8797040     1.7524870
  H        2.1752240     1.2782110    -0.9487550
  H        1.0912450     2.1632510     0.1376750
  H        0.4300030     1.2977920    -1.2600980
  H        2.1753400    -1.2779000    -0.9489720
  H        0.4301230    -1.2975720    -1.2603270
  H        1.0914300    -2.1632230     0.1372970
  H       -3.2625000     0.0001070    -1.2530880
units angstrom
no_reorient  #important for SAPT in psi4, default
symmetry c1  #important for SAPT in psi4, default
}

set PROPERTIES_ORIGIN ["COM"]
properties('MP2/aug-cc-pvtz', properties = ['dipole'])
--------------------------------------------------------------------------

    Molecular point group: c1
  Charge       = 0
  Multiplicity = 1
  Basis Set: AUG-CC-PVTZ
    Blend: AUG-CC-PVTZ
  Basis Set: (AUG-CC-PVTZ AUX)
    Blend: AUG-CC-PVTZ-JKFIT

    Orbital Energies [Eh]
    ---------------------

    Doubly Occupied:

       1A    -11.254699     2A    -11.238623     3A    -11.237474
       4A    -11.220858     5A    -11.214842     6A    -11.210332
       7A     -1.105599     8A     -1.016395     9A     -0.948322
      10A     -0.929776    11A     -0.785629    12A     -0.715692
      13A     -0.662124    14A     -0.618009    15A     -0.603182
      16A     -0.568186    17A     -0.539714    18A     -0.526315
      19A     -0.489582    20A     -0.469203    21A     -0.466350
      22A     -0.381910    23A     -0.373829

  @DF-RHF Final Energy:  -233.01890600723095

   => Energetics <=

    Nuclear Repulsion Energy =            222.0023229867896077
    One-Electron Energy =                -752.8891647647293439
    Two-Electron Energy =                 297.8679357707087547
    Total Energy =                       -233.0189060072309530
  Basis Set: (AUG-CC-PVTZ AUX)
    Blend: AUG-CC-PVTZ-RI
    Molecular point group: c1

    Geometry (in Angstrom), charge = 0, multiplicity = 1:

       Center              X                  Y                   Z               Mass
    ------------   -----------------  -----------------  -----------------  -----------------
         C            1.074806880384    -0.020832711244     0.352668468919    12.000000000000
         C           -0.239146019616     0.121487288756     1.143274668919    12.000000000000
         C            1.245181880384     1.239251288756    -0.491481531081    12.000000000000
         C            1.245294880384    -1.280754711244    -0.491699531081    12.000000000000
         C           -1.425001119616    -0.020933711244     0.164067468919    12.000000000000
         C           -2.378103119616    -0.020747711244    -0.599779531081    12.000000000000
         H            1.845541880384    -0.020870711244     1.135938468919     1.007825032230
         H           -0.343358119616    -0.900918711244     1.734353468919     1.007825032230
         H           -0.343452119616     0.858880288756     1.734495468919     1.007825032230
         H            2.230875880384     1.257387288756    -0.966746531081     1.007825032230
         H            1.146896880384     2.142427288756     0.119683468919     1.007825032230
         H            0.485654880384     1.276968288756    -1.278089531081     1.007825032230
         H            2.230991880384    -1.298723711244    -0.966963531081     1.007825032230
         H            0.485774880384    -1.318395711244    -1.278318531081     1.007825032230
         H            1.147081880384    -2.184046711244     0.119305468919     1.007825032230
         H           -3.206848119616    -0.020716711244    -1.271079531081     1.007825032230

  Basis Set: AUG-CC-PVTZ
    Blend: AUG-CC-PVTZ
  Basis Set: (AUG-CC-PVTZ AUX)
    Blend: AUG-CC-PVTZ-JKFIT
	 Reference Energy          =    -233.0189060072309530 [Eh]
	 Singles Energy            =      -0.0000000000000000 [Eh]
	 Same-Spin Energy          =      -0.2495308840682495 [Eh]
	 Opposite-Spin Energy      =      -0.8897957953422621 [Eh]
	 Correlation Energy        =      -1.1393266794105115 [Eh]
	 Total Energy              =    -234.1582326866414689 [Eh]

	 ================> DF-SCS-MP2 Energies <==================
	-----------------------------------------------------------
	 SCS Same-Spin Scale       =       0.3333333333333333 [-]
	 SCS Opposite-Spin Scale   =       1.2000000000000000 [-]
	 SCS Same-Spin Energy      =      -0.0831769613560832 [Eh]
	 SCS Opposite-Spin Energy  =      -1.0677549544107143 [Eh]
	 SCS Correlation Energy    =      -1.1509319157667974 [Eh]
	 SCS Total Energy          =    -234.1698379229977434 [Eh]
	-----------------------------------------------------------

  Dipole Moment: [D]
     X:     0.7278      Y:     0.0665      Z:     0.3223     Total:     0.7988

*** Psi4 exiting successfully. Buy a developer a beer!
