                               Psi4 1.4a3.dev225

  ==> Input File <==

--------------------------------------------------------------------------
#psi4
#
memory 32 gb

molecule  {
0 1
  C        1.0683078    -0.0149645     0.3565751
  C       -0.3376930    -0.0001380     1.0991850
  C        1.1895300     1.2600750    -0.4734900
  C        1.1896430    -1.2599310    -0.4737080
  C       -1.4806530    -0.0001100     0.1820590
  C       -2.4337550     0.0000760    -0.5817880
  H        1.7898900    -0.0000470     1.1539300
  H       -0.3990100    -0.8800950     1.7523450
  H       -0.3991040     0.8797040     1.7524870
  H        2.1752240     1.2782110    -0.9487550
  H        1.0912450     2.1632510     0.1376750
  H        0.4300030     1.2977920    -1.2600980
  H        2.1753400    -1.2779000    -0.9489720
  H        0.4301230    -1.2975720    -1.2603270
  H        1.0914300    -2.1632230     0.1372970
  H       -3.2625000     0.0001070    -1.2530880
units angstrom
no_reorient  #important for SAPT in psi4, default
symmetry c1  #important for SAPT in psi4, default
}

set PROPERTIES_ORIGIN ["COM"]
properties('MP2/aug-cc-pvtz', properties = ['dipole'])
--------------------------------------------------------------------------

    Molecular point group: c1
  Charge       = 0
  Multiplicity = 1
  Basis Set: AUG-CC-PVTZ
    Blend: AUG-CC-PVTZ
  Basis Set: (AUG-CC-PVTZ AUX)
    Blend: AUG-CC-PVTZ-JKFIT

    Orbital Energies [Eh]
    ---------------------

    Doubly Occupied:

       1A    -11.250231     2A    -11.237161     3A    -11.236066
       4A    -11.222396     5A    -11.211520     6A    -11.210942
       7A     -1.103955     8A     -1.023125     9A     -0.939472
      10A     -0.932139    11A     -0.789279    12A     -0.710139
      13A     -0.648782    14A     -0.611402    15A     -0.608465
      16A     -0.581642    17A     -0.542333    18A     -0.522912
      19A     -0.485634    20A     -0.477570    21A     -0.470152
      22A     -0.377143    23A     -0.374380

  @DF-RHF Final Energy:  -233.04711163614996

   => Energetics <=

    Nuclear Repulsion Energy =            222.4022210446293002
    One-Electron Energy =                -753.7649859742433591
    Two-Electron Energy =                 298.3156532934640950
    Total Energy =                       -233.0471116361499639
  Basis Set: (AUG-CC-PVTZ AUX)
    Blend: AUG-CC-PVTZ-RI
    Molecular point group: c1

    Geometry (in Angstrom), charge = 0, multiplicity = 1:

       Center              X                  Y                   Z               Mass
    ------------   -----------------  -----------------  -----------------  -----------------
         C            1.123044792461    -0.012775366884     0.349719201031    12.000000000000
         C           -0.282956007539     0.002051133116     1.092329101031    12.000000000000
         C            1.244266992461     1.262264133116    -0.480345898969    12.000000000000
         C            1.244379992461    -1.257741866884    -0.480563898969    12.000000000000
         C           -1.425916007539     0.002079133116     0.175203101031    12.000000000000
         C           -2.379018007539     0.002265133116    -0.588643898969    12.000000000000
         H            1.844626992461     0.002142133116     1.147074101031     1.007825032230
         H           -0.344273007539    -0.877905866884     1.745489101031     1.007825032230
         H           -0.344367007539     0.881893133116     1.745631101031     1.007825032230
         H            2.229960992461     1.280400133116    -0.955610898969     1.007825032230
         H            1.145981992461     2.165440133116     0.130819101031     1.007825032230
         H            0.484739992461     1.299981133116    -1.266953898969     1.007825032230
         H            2.230076992461    -1.275710866884    -0.955827898969     1.007825032230
         H            0.484859992461    -1.295382866884    -1.267182898969     1.007825032230
         H            1.146166992461    -2.161033866884     0.130441101031     1.007825032230
         H           -3.207763007539     0.002296133116    -1.259943898969     1.007825032230

  Basis Set: AUG-CC-PVTZ
    Blend: AUG-CC-PVTZ
  Basis Set: (AUG-CC-PVTZ AUX)
    Blend: AUG-CC-PVTZ-JKFIT
	 Reference Energy          =    -233.0471116361499639 [Eh]
	 Singles Energy            =      -0.0000000000000000 [Eh]
	 Same-Spin Energy          =      -0.2500217907883932 [Eh]
	 Opposite-Spin Energy      =      -0.8891987275988422 [Eh]
	 Correlation Energy        =      -1.1392205183872353 [Eh]
	 Total Energy              =    -234.1863321545372116 [Eh]

	 ================> DF-SCS-MP2 Energies <==================
	-----------------------------------------------------------
	 SCS Same-Spin Scale       =       0.3333333333333333 [-]
	 SCS Opposite-Spin Scale   =       1.2000000000000000 [-]
	 SCS Same-Spin Energy      =      -0.0833405969294644 [Eh]
	 SCS Opposite-Spin Energy  =      -1.0670384731186107 [Eh]
	 SCS Correlation Energy    =      -1.1503790700480749 [Eh]
	 SCS Total Energy          =    -234.1974907061980389 [Eh]
	-----------------------------------------------------------

  Dipole Moment: [D]
     X:     0.7023      Y:    -0.0114      Z:     0.3117     Total:     0.7684

*** Psi4 exiting successfully. Buy a developer a beer!
