                               Psi4 1.4a3.dev225

  ==> Input File <==

--------------------------------------------------------------------------
#psi4
#
memory 32 gb

molecule  {
0 1
  C        1.0191550    -0.0000090     0.3706600
  C       -0.1614859    -0.0001212     1.0045751
  C        1.1895300     1.2600750    -0.4734900
  C        1.1896430    -1.2599310    -0.4737080
  C       -1.4806530    -0.0001100     0.1820590
  C       -2.4337550     0.0000760    -0.5817880
  H        1.7898900    -0.0000470     1.1539300
  H       -0.3990100    -0.8800950     1.7523450
  H       -0.3991040     0.8797040     1.7524870
  H        2.1752240     1.2782110    -0.9487550
  H        1.0912450     2.1632510     0.1376750
  H        0.4300030     1.2977920    -1.2600980
  H        2.1753400    -1.2779000    -0.9489720
  H        0.4301230    -1.2975720    -1.2603270
  H        1.0914300    -2.1632230     0.1372970
  H       -3.2625000     0.0001070    -1.2530880
units angstrom
no_reorient  #important for SAPT in psi4, default
symmetry c1  #important for SAPT in psi4, default
}

set PROPERTIES_ORIGIN ["COM"]
properties('MP2/aug-cc-pvtz', properties = ['dipole'])
--------------------------------------------------------------------------

    Molecular point group: c1
  Charge       = 0
  Multiplicity = 1
  Basis Set: AUG-CC-PVTZ
    Blend: AUG-CC-PVTZ
  Basis Set: (AUG-CC-PVTZ AUX)
    Blend: AUG-CC-PVTZ-JKFIT

    Orbital Energies [Eh]
    ---------------------

    Doubly Occupied:

       1A    -11.265360     2A    -11.238804     3A    -11.224777
       4A    -11.220780     5A    -11.214106     6A    -11.214079
       7A     -1.139951     8A     -1.014273     9A     -0.939950
      10A     -0.935236    11A     -0.797782    12A     -0.705160
      13A     -0.665769    14A     -0.619662    15A     -0.611919
      16A     -0.555985    17A     -0.539957    18A     -0.511122
      19A     -0.509950    20A     -0.468977    21A     -0.462717
      22A     -0.382328    23A     -0.371224

  @DF-RHF Final Energy:  -233.00377599599645

   => Energetics <=

    Nuclear Repulsion Energy =            224.6857267543958017
    One-Electron Energy =                -758.1592718080331679
    Two-Electron Energy =                 300.4697690576409741
    Total Energy =                       -233.0037759959964205
  Basis Set: (AUG-CC-PVTZ AUX)
    Blend: AUG-CC-PVTZ-RI
    Molecular point group: c1

    Geometry (in Angstrom), charge = 0, multiplicity = 1:

       Center              X                  Y                   Z               Mass
    ------------   -----------------  -----------------  -----------------  -----------------
         C            1.055316406431    -0.000008846294     0.375577012810    12.000000000000
         C           -0.125324493569    -0.000121046294     1.009492112810    12.000000000000
         C            1.225691406431     1.260075153706    -0.468572987190    12.000000000000
         C            1.225804406431    -1.259930846294    -0.468790987190    12.000000000000
         C           -1.444491593569    -0.000109846294     0.186976012810    12.000000000000
         C           -2.397593593569     0.000076153706    -0.576870987190    12.000000000000
         H            1.826051406431    -0.000046846294     1.158847012810     1.007825032230
         H           -0.362848593569    -0.880094846294     1.757262012810     1.007825032230
         H           -0.362942593569     0.879704153706     1.757404012810     1.007825032230
         H            2.211385406431     1.278211153706    -0.943837987190     1.007825032230
         H            1.127406406431     2.163251153706     0.142592012810     1.007825032230
         H            0.466164406431     1.297792153706    -1.255180987190     1.007825032230
         H            2.211501406431    -1.277899846294    -0.944054987190     1.007825032230
         H            0.466284406431    -1.297571846294    -1.255409987190     1.007825032230
         H            1.127591406431    -2.163222846294     0.142214012810     1.007825032230
         H           -3.226338593569     0.000107153706    -1.248170987190     1.007825032230

  Basis Set: AUG-CC-PVTZ
    Blend: AUG-CC-PVTZ
  Basis Set: (AUG-CC-PVTZ AUX)
    Blend: AUG-CC-PVTZ-JKFIT
	 Reference Energy          =    -233.0037759959964490 [Eh]
	 Singles Energy            =      -0.0000000000000000 [Eh]
	 Same-Spin Energy          =      -0.2519756728556179 [Eh]
	 Opposite-Spin Energy      =      -0.8926914717751333 [Eh]
	 Correlation Energy        =      -1.1446671446307513 [Eh]
	 Total Energy              =    -234.1484431406271938 [Eh]

	 ================> DF-SCS-MP2 Energies <==================
	-----------------------------------------------------------
	 SCS Same-Spin Scale       =       0.3333333333333333 [-]
	 SCS Opposite-Spin Scale   =       1.2000000000000000 [-]
	 SCS Same-Spin Energy      =      -0.0839918909518726 [Eh]
	 SCS Opposite-Spin Energy  =      -1.0712297661301600 [Eh]
	 SCS Correlation Energy    =      -1.1552216570820326 [Eh]
	 SCS Total Energy          =    -234.1589976530784725 [Eh]
	-----------------------------------------------------------

  Dipole Moment: [D]
     X:     0.8574      Y:     0.0000      Z:     0.2145     Total:     0.8839

*** Psi4 exiting successfully. Buy a developer a beer!
