                               Psi4 1.4a3.dev225

  ==> Input File <==

--------------------------------------------------------------------------
#psi4
#
memory 32 gb

molecule  {
0 1
  C        1.0191550    -0.0000090     0.3706600
  C       -0.3376930    -0.0001380     1.0991850
  C        1.1895300     1.2600750    -0.4734900
  C        1.1896430    -1.2599310    -0.4737080
  C       -1.4806530    -0.0001100     0.1820590
  C       -2.4337550     0.0000760    -0.5817880
  H        1.7197520    -0.0000435     1.0826513
  H       -0.3990100    -0.8800950     1.7523450
  H       -0.3991040     0.8797040     1.7524870
  H        2.1752240     1.2782110    -0.9487550
  H        1.0912450     2.1632510     0.1376750
  H        0.4300030     1.2977920    -1.2600980
  H        2.1753400    -1.2779000    -0.9489720
  H        0.4301230    -1.2975720    -1.2603270
  H        1.0914300    -2.1632230     0.1372970
  H       -3.2625000     0.0001070    -1.2530880
units angstrom
no_reorient  #important for SAPT in psi4, default
symmetry c1  #important for SAPT in psi4, default
}

set PROPERTIES_ORIGIN ["COM"]
properties('MP2/aug-cc-pvtz', properties = ['dipole'])
--------------------------------------------------------------------------

    Molecular point group: c1
  Charge       = 0
  Multiplicity = 1
  Basis Set: AUG-CC-PVTZ
    Blend: AUG-CC-PVTZ
  Basis Set: (AUG-CC-PVTZ AUX)
    Blend: AUG-CC-PVTZ-JKFIT

    Orbital Energies [Eh]
    ---------------------

    Doubly Occupied:

       1A    -11.249577     2A    -11.237131     3A    -11.222936
       4A    -11.222681     5A    -11.210342     6A    -11.210317
       7A     -1.110670     8A     -1.022668     9A     -0.941849
      10A     -0.929279    11A     -0.801148    12A     -0.710859
      13A     -0.653967    14A     -0.614899    15A     -0.609752
      16A     -0.580053    17A     -0.538661    18A     -0.522718
      19A     -0.484665    20A     -0.482560    21A     -0.472337
      22A     -0.377335    23A     -0.377200

  @DF-RHF Final Energy:  -233.04392709920594

   => Energetics <=

    Nuclear Repulsion Energy =            223.2633456682432609
    One-Electron Energy =                -755.4473383792079630
    Two-Electron Energy =                 299.1400656117587573
    Total Energy =                       -233.0439270992059733
  Basis Set: (AUG-CC-PVTZ AUX)
    Blend: AUG-CC-PVTZ-RI
    Molecular point group: c1

    Geometry (in Angstrom), charge = 0, multiplicity = 1:

       Center              X                  Y                   Z               Mass
    ------------   -----------------  -----------------  -----------------  -----------------
         C            1.081939440226    -0.000006433078     0.362620080398    12.000000000000
         C           -0.274908559774    -0.000135433078     1.091145080398    12.000000000000
         C            1.252314440226     1.260077566922    -0.481529919602    12.000000000000
         C            1.252427440226    -1.259928433078    -0.481747919602    12.000000000000
         C           -1.417868559774    -0.000107433078     0.174019080398    12.000000000000
         C           -2.370970559774     0.000078566922    -0.589827919602    12.000000000000
         H            1.782536440226    -0.000040933078     1.074611380398     1.007825032230
         H           -0.336225559774    -0.880092433078     1.744305080398     1.007825032230
         H           -0.336319559774     0.879706566922     1.744447080398     1.007825032230
         H            2.238008440226     1.278213566922    -0.956794919602     1.007825032230
         H            1.154029440226     2.163253566922     0.129635080398     1.007825032230
         H            0.492787440226     1.297794566922    -1.268137919602     1.007825032230
         H            2.238124440226    -1.277897433078    -0.957011919602     1.007825032230
         H            0.492907440226    -1.297569433078    -1.268366919602     1.007825032230
         H            1.154214440226    -2.163220433078     0.129257080398     1.007825032230
         H           -3.199715559774     0.000109566922    -1.261127919602     1.007825032230

  Basis Set: AUG-CC-PVTZ
    Blend: AUG-CC-PVTZ
  Basis Set: (AUG-CC-PVTZ AUX)
    Blend: AUG-CC-PVTZ-JKFIT
	 Reference Energy          =    -233.0439270992059448 [Eh]
	 Singles Energy            =      -0.0000000000000000 [Eh]
	 Same-Spin Energy          =      -0.2499691301099554 [Eh]
	 Opposite-Spin Energy      =      -0.8886972954019008 [Eh]
	 Correlation Energy        =      -1.1386664255118562 [Eh]
	 Total Energy              =    -234.1825935247177881 [Eh]

	 ================> DF-SCS-MP2 Energies <==================
	-----------------------------------------------------------
	 SCS Same-Spin Scale       =       0.3333333333333333 [-]
	 SCS Opposite-Spin Scale   =       1.2000000000000000 [-]
	 SCS Same-Spin Energy      =      -0.0833230433699851 [Eh]
	 SCS Opposite-Spin Energy  =      -1.0664367544822808 [Eh]
	 SCS Correlation Energy    =      -1.1497597978522660 [Eh]
	 SCS Total Energy          =    -234.1936868970581997 [Eh]
	-----------------------------------------------------------

  Dipole Moment: [D]
     X:     0.6985      Y:    -0.0000      Z:     0.3723     Total:     0.7916

*** Psi4 exiting successfully. Buy a developer a beer!
