                               Psi4 1.4a3.dev225

  ==> Input File <==

--------------------------------------------------------------------------
#psi4
#
memory 32 gb

molecule  {
0 1
  C        1.0191550    -0.0000090     0.3706600
  C       -0.3315655     0.0236456     1.1101056
  C        1.1895300     1.2600750    -0.4734900
  C        1.1896430    -1.2599310    -0.4737080
  C       -1.4806530    -0.0001100     0.1820590
  C       -2.4337550     0.0000760    -0.5817880
  H        1.7898900    -0.0000470     1.1539300
  H       -0.3990100    -0.8800950     1.7523450
  H       -0.3991040     0.8797040     1.7524870
  H        2.1752240     1.2782110    -0.9487550
  H        1.0912450     2.1632510     0.1376750
  H        0.4300030     1.2977920    -1.2600980
  H        2.1753400    -1.2779000    -0.9489720
  H        0.4301230    -1.2975720    -1.2603270
  H        1.0914300    -2.1632230     0.1372970
  H       -3.2625000     0.0001070    -1.2530880
units angstrom
no_reorient  #important for SAPT in psi4, default
symmetry c1  #important for SAPT in psi4, default
}

set PROPERTIES_ORIGIN ["COM"]
properties('MP2/aug-cc-pvtz', properties = ['dipole'])
--------------------------------------------------------------------------

    Molecular point group: c1
  Charge       = 0
  Multiplicity = 1
  Basis Set: AUG-CC-PVTZ
    Blend: AUG-CC-PVTZ
  Basis Set: (AUG-CC-PVTZ AUX)
    Blend: AUG-CC-PVTZ-JKFIT

    Orbital Energies [Eh]
    ---------------------

    Doubly Occupied:

       1A    -11.250521     2A    -11.237761     3A    -11.235838
       4A    -11.222953     5A    -11.211697     6A    -11.210997
       7A     -1.107103     8A     -1.020800     9A     -0.942785
      10A     -0.930005    11A     -0.786574    12A     -0.710902
      13A     -0.651013    14A     -0.617067    15A     -0.607593
      16A     -0.578095    17A     -0.539220    18A     -0.523933
      19A     -0.484709    20A     -0.473365    21A     -0.472098
      22A     -0.378985    23A     -0.377286

  @DF-RHF Final Energy:  -233.04896751342349

   => Energetics <=

    Nuclear Repulsion Energy =            222.6182514609213001
    One-Electron Energy =                -754.1918439423830023
    Two-Electron Energy =                 298.5246249680381538
    Total Energy =                       -233.0489675134235199
  Basis Set: (AUG-CC-PVTZ AUX)
    Blend: AUG-CC-PVTZ-RI
    Molecular point group: c1

    Geometry (in Angstrom), charge = 0, multiplicity = 1:

       Center              X                  Y                   Z               Mass
    ------------   -----------------  -----------------  -----------------  -----------------
         C            1.080182375089    -0.003483598727     0.360148248246    12.000000000000
         C           -0.270538124911     0.020171001273     1.099593848246    12.000000000000
         C            1.250557375089     1.256600401273    -0.484001751754    12.000000000000
         C            1.250670375089    -1.263405598727    -0.484219751754    12.000000000000
         C           -1.419625624911    -0.003584598727     0.171547248246    12.000000000000
         C           -2.372727624911    -0.003398598727    -0.592299751754    12.000000000000
         H            1.850917375089    -0.003521598727     1.143418248246     1.007825032230
         H           -0.337982624911    -0.883569598727     1.741833248246     1.007825032230
         H           -0.338076624911     0.876229401273     1.741975248246     1.007825032230
         H            2.236251375089     1.274736401273    -0.959266751754     1.007825032230
         H            1.152272375089     2.159776401273     0.127163248246     1.007825032230
         H            0.491030375089     1.294317401273    -1.270609751754     1.007825032230
         H            2.236367375089    -1.281374598727    -0.959483751754     1.007825032230
         H            0.491150375089    -1.301046598727    -1.270838751754     1.007825032230
         H            1.152457375089    -2.166697598727     0.126785248246     1.007825032230
         H           -3.201472624911    -0.003367598727    -1.263599751754     1.007825032230

  Basis Set: AUG-CC-PVTZ
    Blend: AUG-CC-PVTZ
  Basis Set: (AUG-CC-PVTZ AUX)
    Blend: AUG-CC-PVTZ-JKFIT
	 Reference Energy          =    -233.0489675134234915 [Eh]
	 Singles Energy            =      -0.0000000000000000 [Eh]
	 Same-Spin Energy          =      -0.2498301213453131 [Eh]
	 Opposite-Spin Energy      =      -0.8890653437147071 [Eh]
	 Correlation Energy        =      -1.1388954650600203 [Eh]
	 Total Energy              =    -234.1878629784835084 [Eh]

	 ================> DF-SCS-MP2 Energies <==================
	-----------------------------------------------------------
	 SCS Same-Spin Scale       =       0.3333333333333333 [-]
	 SCS Opposite-Spin Scale   =       1.2000000000000000 [-]
	 SCS Same-Spin Energy      =      -0.0832767071151043 [Eh]
	 SCS Opposite-Spin Energy  =      -1.0668784124576485 [Eh]
	 SCS Correlation Energy    =      -1.1501551195727528 [Eh]
	 SCS Total Energy          =    -234.1991226329962501 [Eh]
	-----------------------------------------------------------

  Dipole Moment: [D]
     X:     0.6566      Y:     0.0130      Z:     0.3246     Total:     0.7326

*** Psi4 exiting successfully. Buy a developer a beer!
