                               Psi4 1.4a3.dev225

  ==> Input File <==

--------------------------------------------------------------------------
#psi4
#
memory 32 gb

molecule  {
0 1
  C        0.9978024     0.0968847     0.4958693
  C       -0.3376930    -0.0001380     1.0991850
  C        1.1895300     1.2600750    -0.4734900
  C        1.1896430    -1.2599310    -0.4737080
  C       -1.4806530    -0.0001100     0.1820590
  C       -2.4337550     0.0000760    -0.5817880
  H        1.7898900    -0.0000470     1.1539300
  H       -0.3990100    -0.8800950     1.7523450
  H       -0.3991040     0.8797040     1.7524870
  H        2.1752240     1.2782110    -0.9487550
  H        1.0912450     2.1632510     0.1376750
  H        0.4300030     1.2977920    -1.2600980
  H        2.1753400    -1.2779000    -0.9489720
  H        0.4301230    -1.2975720    -1.2603270
  H        1.0914300    -2.1632230     0.1372970
  H       -3.2625000     0.0001070    -1.2530880
units angstrom
no_reorient  #important for SAPT in psi4, default
symmetry c1  #important for SAPT in psi4, default
}

set PROPERTIES_ORIGIN ["COM"]
properties('MP2/aug-cc-pvtz', properties = ['dipole'])
--------------------------------------------------------------------------

    Molecular point group: c1
  Charge       = 0
  Multiplicity = 1
  Basis Set: AUG-CC-PVTZ
    Blend: AUG-CC-PVTZ
  Basis Set: (AUG-CC-PVTZ AUX)
    Blend: AUG-CC-PVTZ-JKFIT

    Orbital Energies [Eh]
    ---------------------

    Doubly Occupied:

       1A    -11.250087     2A    -11.240350     3A    -11.235047
       4A    -11.225937     5A    -11.212374     6A    -11.212101
       7A     -1.111117     8A     -1.018416     9A     -0.945997
      10A     -0.916217    11A     -0.802025    12A     -0.712566
      13A     -0.652117    14A     -0.622715    15A     -0.612479
      16A     -0.569731    17A     -0.536359    18A     -0.521688
      19A     -0.504276    20A     -0.490267    21A     -0.423410
      22A     -0.382702    23A     -0.376874

  @DF-RHF Final Energy:  -233.02727477034227

   => Energetics <=

    Nuclear Repulsion Energy =            222.2622268236829370
    One-Electron Energy =                -753.4292997851378004
    Two-Electron Energy =                 298.1397981911126180
    Total Energy =                       -233.0272747703422738
  Basis Set: (AUG-CC-PVTZ AUX)
    Blend: AUG-CC-PVTZ-RI
    Molecular point group: c1

    Geometry (in Angstrom), charge = 0, multiplicity = 1:

       Center              X                  Y                   Z               Mass
    ------------   -----------------  -----------------  -----------------  -----------------
         C            1.062847419212     0.082721262310     0.468648317791    12.000000000000
         C           -0.272647980788    -0.014301437690     1.071964017791    12.000000000000
         C            1.254575019212     1.245911562310    -0.500710982209    12.000000000000
         C            1.254688019212    -1.274094437690    -0.500928982209    12.000000000000
         C           -1.415607980788    -0.014273437690     0.154838017791    12.000000000000
         C           -2.368709980788    -0.014087437690    -0.609008982209    12.000000000000
         H            1.854935019212    -0.014210437690     1.126709017791     1.007825032230
         H           -0.333964980788    -0.894258437690     1.725124017791     1.007825032230
         H           -0.334058980788     0.865540562310     1.725266017791     1.007825032230
         H            2.240269019212     1.264047562310    -0.975975982209     1.007825032230
         H            1.156290019212     2.149087562310     0.110454017791     1.007825032230
         H            0.495048019212     1.283628562310    -1.287318982209     1.007825032230
         H            2.240385019212    -1.292063437690    -0.976192982209     1.007825032230
         H            0.495168019212    -1.311735437690    -1.287547982209     1.007825032230
         H            1.156475019212    -2.177386437690     0.110076017791     1.007825032230
         H           -3.197454980788    -0.014056437690    -1.280308982209     1.007825032230

  Basis Set: AUG-CC-PVTZ
    Blend: AUG-CC-PVTZ
  Basis Set: (AUG-CC-PVTZ AUX)
    Blend: AUG-CC-PVTZ-JKFIT
	 Reference Energy          =    -233.0272747703422738 [Eh]
	 Singles Energy            =      -0.0000000000000000 [Eh]
	 Same-Spin Energy          =      -0.2503464608018141 [Eh]
	 Opposite-Spin Energy      =      -0.8908693472004081 [Eh]
	 Correlation Energy        =      -1.1412158080022223 [Eh]
	 Total Energy              =    -234.1684905783444890 [Eh]

	 ================> DF-SCS-MP2 Energies <==================
	-----------------------------------------------------------
	 SCS Same-Spin Scale       =       0.3333333333333333 [-]
	 SCS Opposite-Spin Scale   =       1.2000000000000000 [-]
	 SCS Same-Spin Energy      =      -0.0834488202672714 [Eh]
	 SCS Opposite-Spin Energy  =      -1.0690432166404897 [Eh]
	 SCS Correlation Energy    =      -1.1524920369077611 [Eh]
	 SCS Total Energy          =    -234.1797668072500471 [Eh]
	-----------------------------------------------------------

  Dipole Moment: [D]
     X:     0.5722      Y:     0.0781      Z:     0.3553     Total:     0.6780

*** Psi4 exiting successfully. Buy a developer a beer!
