                               Psi4 1.4a3.dev225

  ==> Input File <==

--------------------------------------------------------------------------
#psi4
#
memory 32 gb

molecule  {
0 1
  C        1.0191550    -0.0000090     0.3706600
  C       -0.3376930    -0.0001380     1.0991850
  C        1.1895300     1.2600750    -0.4734900
  C        1.1896430    -1.2599310    -0.4737080
  C       -1.5586480    -0.0001081     0.1194748
  C       -2.4337550     0.0000760    -0.5817880
  H        1.7898900    -0.0000470     1.1539300
  H       -0.3990100    -0.8800950     1.7523450
  H       -0.3991040     0.8797040     1.7524870
  H        2.1752240     1.2782110    -0.9487550
  H        1.0912450     2.1632510     0.1376750
  H        0.4300030     1.2977920    -1.2600980
  H        2.1753400    -1.2779000    -0.9489720
  H        0.4301230    -1.2975720    -1.2603270
  H        1.0914300    -2.1632230     0.1372970
  H       -3.2625000     0.0001070    -1.2530880
units angstrom
no_reorient  #important for SAPT in psi4, default
symmetry c1  #important for SAPT in psi4, default
}

set PROPERTIES_ORIGIN ["COM"]
properties('MP2/aug-cc-pvtz', properties = ['dipole'])
--------------------------------------------------------------------------

    Molecular point group: c1
  Charge       = 0
  Multiplicity = 1
  Basis Set: AUG-CC-PVTZ
    Blend: AUG-CC-PVTZ
  Basis Set: (AUG-CC-PVTZ AUX)
    Blend: AUG-CC-PVTZ-JKFIT

    Orbital Energies [Eh]
    ---------------------

    Doubly Occupied:

       1A    -11.256098     2A    -11.234541     3A    -11.210732
       4A    -11.210713     5A    -11.209485     6A    -11.192080
       7A     -1.099630     8A     -1.038416     9A     -0.939535
      10A     -0.929236    11A     -0.778358    12A     -0.704157
      13A     -0.645286    14A     -0.609701    15A     -0.600979
      16A     -0.568718    17A     -0.538105    18A     -0.521149
      19A     -0.481206    20A     -0.472286    21A     -0.471409
      22A     -0.404338    23A     -0.403927

  @DF-RHF Final Energy:  -233.03825607439816

   => Energetics <=

    Nuclear Repulsion Energy =            222.6740420721893656
    One-Electron Energy =                -754.3844253672060631
    Two-Electron Energy =                 298.6721272206185631
    Total Energy =                       -233.0382560743981912
  Basis Set: (AUG-CC-PVTZ AUX)
    Blend: AUG-CC-PVTZ-RI
    Molecular point group: c1

    Geometry (in Angstrom), charge = 0, multiplicity = 1:

       Center              X                  Y                   Z               Mass
    ------------   -----------------  -----------------  -----------------  -----------------
         C            1.092481248372    -0.000006667885     0.370894793117    12.000000000000
         C           -0.264366751628    -0.000135667885     1.099419793117    12.000000000000
         C            1.262856248372     1.260077332115    -0.473255206883    12.000000000000
         C            1.262969248372    -1.259928667885    -0.473473206883    12.000000000000
         C           -1.485321751628    -0.000105767885     0.119709593117    12.000000000000
         C           -2.360428751628     0.000078332115    -0.581553206883    12.000000000000
         H            1.863216248372    -0.000044667885     1.154164793117     1.007825032230
         H           -0.325683751628    -0.880092667885     1.752579793117     1.007825032230
         H           -0.325777751628     0.879706332115     1.752721793117     1.007825032230
         H            2.248550248372     1.278213332115    -0.948520206883     1.007825032230
         H            1.164571248372     2.163253332115     0.137909793117     1.007825032230
         H            0.503329248372     1.297794332115    -1.259863206883     1.007825032230
         H            2.248666248372    -1.277897667885    -0.948737206883     1.007825032230
         H            0.503449248372    -1.297569667885    -1.260092206883     1.007825032230
         H            1.164756248372    -2.163220667885     0.137531793117     1.007825032230
         H           -3.189173751628     0.000109332115    -1.252853206883     1.007825032230

  Basis Set: AUG-CC-PVTZ
    Blend: AUG-CC-PVTZ
  Basis Set: (AUG-CC-PVTZ AUX)
    Blend: AUG-CC-PVTZ-JKFIT
	 Reference Energy          =    -233.0382560743981628 [Eh]
	 Singles Energy            =      -0.0000000000000000 [Eh]
	 Same-Spin Energy          =      -0.2452472668160131 [Eh]
	 Opposite-Spin Energy      =      -0.8807649977316299 [Eh]
	 Correlation Energy        =      -1.1260122645476429 [Eh]
	 Total Energy              =    -234.1642683389458170 [Eh]

	 ================> DF-SCS-MP2 Energies <==================
	-----------------------------------------------------------
	 SCS Same-Spin Scale       =       0.3333333333333333 [-]
	 SCS Opposite-Spin Scale   =       1.2000000000000000 [-]
	 SCS Same-Spin Energy      =      -0.0817490889386710 [Eh]
	 SCS Opposite-Spin Energy  =      -1.0569179972779559 [Eh]
	 SCS Correlation Energy    =      -1.1386670862166268 [Eh]
	 SCS Total Energy          =    -234.1769231606147912 [Eh]
	-----------------------------------------------------------

  Dipole Moment: [D]
     X:     0.6003      Y:     0.0000      Z:     0.2897     Total:     0.6665

*** Psi4 exiting successfully. Buy a developer a beer!
