                               Psi4 1.4a3.dev225

  ==> Input File <==

--------------------------------------------------------------------------
#psi4
#
memory 32 gb

molecule  {
0 1
  C        0.9215317     0.0344875     0.3957285
  C       -0.3376930    -0.0001380     1.0991850
  C        1.1895300     1.2600750    -0.4734900
  C        1.1896430    -1.2599310    -0.4737080
  C       -1.4806530    -0.0001100     0.1820590
  C       -2.4337550     0.0000760    -0.5817880
  H        1.7898900    -0.0000470     1.1539300
  H       -0.3990100    -0.8800950     1.7523450
  H       -0.3991040     0.8797040     1.7524870
  H        2.1752240     1.2782110    -0.9487550
  H        1.0912450     2.1632510     0.1376750
  H        0.4300030     1.2977920    -1.2600980
  H        2.1753400    -1.2779000    -0.9489720
  H        0.4301230    -1.2975720    -1.2603270
  H        1.0914300    -2.1632230     0.1372970
  H       -3.2625000     0.0001070    -1.2530880
units angstrom
no_reorient  #important for SAPT in psi4, default
symmetry c1  #important for SAPT in psi4, default
}

set PROPERTIES_ORIGIN ["COM"]
properties('MP2/aug-cc-pvtz', properties = ['dipole'])
--------------------------------------------------------------------------

    Molecular point group: c1
  Charge       = 0
  Multiplicity = 1
  Basis Set: AUG-CC-PVTZ
    Blend: AUG-CC-PVTZ
  Basis Set: (AUG-CC-PVTZ AUX)
    Blend: AUG-CC-PVTZ-JKFIT

    Orbital Energies [Eh]
    ---------------------

    Doubly Occupied:

       1A    -11.249234     2A    -11.238501     3A    -11.237702
       4A    -11.225083     5A    -11.212553     6A    -11.211924
       7A     -1.119288     8A     -1.019009     9A     -0.949088
      10A     -0.925628    11A     -0.784602    12A     -0.711989
      13A     -0.656909    14A     -0.624674    15A     -0.610351
      16A     -0.574434    17A     -0.534755    18A     -0.524623
      19A     -0.509781    20A     -0.461852    21A     -0.446557
      22A     -0.382772    23A     -0.378899

  @DF-RHF Final Energy:  -233.03697661714912

   => Energetics <=

    Nuclear Repulsion Energy =            223.4624268126078732
    One-Electron Energy =                -755.8183931294465765
    Two-Electron Energy =                 299.3189896996896096
    Total Energy =                       -233.0369766171490937
  Basis Set: (AUG-CC-PVTZ AUX)
    Blend: AUG-CC-PVTZ-RI
    Molecular point group: c1

    Geometry (in Angstrom), charge = 0, multiplicity = 1:

       Center              X                  Y                   Z               Mass
    ------------   -----------------  -----------------  -----------------  -----------------
         C            0.997727644047     0.029446654435     0.383148297721    12.000000000000
         C           -0.261497055953    -0.005178845565     1.086604797721    12.000000000000
         C            1.265725944047     1.255034154435    -0.486070202279    12.000000000000
         C            1.265838944047    -1.264971845565    -0.486288202279    12.000000000000
         C           -1.404457055953    -0.005150845565     0.169478797721    12.000000000000
         C           -2.357559055953    -0.004964845565    -0.594368202279    12.000000000000
         H            1.866085944047    -0.005087845565     1.141349797721     1.007825032230
         H           -0.322814055953    -0.885135845565     1.739764797721     1.007825032230
         H           -0.322908055953     0.874663154435     1.739906797721     1.007825032230
         H            2.251419944047     1.273170154435    -0.961335202279     1.007825032230
         H            1.167440944047     2.158210154435     0.125094797721     1.007825032230
         H            0.506198944047     1.292751154435    -1.272678202279     1.007825032230
         H            2.251535944047    -1.282940845565    -0.961552202279     1.007825032230
         H            0.506318944047    -1.302612845565    -1.272907202279     1.007825032230
         H            1.167625944047    -2.168263845565     0.124716797721     1.007825032230
         H           -3.186304055953    -0.004933845565    -1.265668202279     1.007825032230

  Basis Set: AUG-CC-PVTZ
    Blend: AUG-CC-PVTZ
  Basis Set: (AUG-CC-PVTZ AUX)
    Blend: AUG-CC-PVTZ-JKFIT
	 Reference Energy          =    -233.0369766171491221 [Eh]
	 Singles Energy            =      -0.0000000000000000 [Eh]
	 Same-Spin Energy          =      -0.2506016047479656 [Eh]
	 Opposite-Spin Energy      =      -0.8905107104705001 [Eh]
	 Correlation Energy        =      -1.1411123152184657 [Eh]
	 Total Energy              =    -234.1780889323675865 [Eh]

	 ================> DF-SCS-MP2 Energies <==================
	-----------------------------------------------------------
	 SCS Same-Spin Scale       =       0.3333333333333333 [-]
	 SCS Opposite-Spin Scale   =       1.2000000000000000 [-]
	 SCS Same-Spin Energy      =      -0.0835338682493219 [Eh]
	 SCS Opposite-Spin Energy  =      -1.0686128525646001 [Eh]
	 SCS Correlation Energy    =      -1.1521467208139220 [Eh]
	 SCS Total Energy          =    -234.1891233379630535 [Eh]
	-----------------------------------------------------------

  Dipole Moment: [D]
     X:     0.5466      Y:     0.0257      Z:     0.3195     Total:     0.6337

*** Psi4 exiting successfully. Buy a developer a beer!
