                               Psi4 1.4a3.dev225

  ==> Input File <==

--------------------------------------------------------------------------
#psi4
#
memory 32 gb

molecule  {
0 1
  C        1.0344424    -0.0569944     0.2819599
  C       -0.3376930    -0.0001380     1.0991850
  C        1.1895300     1.2600750    -0.4734900
  C        1.1896430    -1.2599310    -0.4737080
  C       -1.4806530    -0.0001100     0.1820590
  C       -2.4337550     0.0000760    -0.5817880
  H        1.7898900    -0.0000470     1.1539300
  H       -0.3990100    -0.8800950     1.7523450
  H       -0.3991040     0.8797040     1.7524870
  H        2.1752240     1.2782110    -0.9487550
  H        1.0912450     2.1632510     0.1376750
  H        0.4300030     1.2977920    -1.2600980
  H        2.1753400    -1.2779000    -0.9489720
  H        0.4301230    -1.2975720    -1.2603270
  H        1.0914300    -2.1632230     0.1372970
  H       -3.2625000     0.0001070    -1.2530880
units angstrom
no_reorient  #important for SAPT in psi4, default
symmetry c1  #important for SAPT in psi4, default
}

set PROPERTIES_ORIGIN ["COM"]
properties('MP2/aug-cc-pvtz', properties = ['dipole'])
--------------------------------------------------------------------------

    Molecular point group: c1
  Charge       = 0
  Multiplicity = 1
  Basis Set: AUG-CC-PVTZ
    Blend: AUG-CC-PVTZ
  Basis Set: (AUG-CC-PVTZ AUX)
    Blend: AUG-CC-PVTZ-JKFIT

    Orbital Energies [Eh]
    ---------------------

    Doubly Occupied:

       1A    -11.251315     2A    -11.240306     3A    -11.236053
       4A    -11.221586     5A    -11.212499     6A    -11.209336
       7A     -1.110376     8A     -1.026312     9A     -0.944164
      10A     -0.936395    11A     -0.776614    12A     -0.710133
      13A     -0.651995    14A     -0.615421    15A     -0.609898
      16A     -0.584606    17A     -0.542992    18A     -0.526124
      19A     -0.506685    20A     -0.469292    21A     -0.450864
      22A     -0.377056    23A     -0.372901

  @DF-RHF Final Energy:  -233.03663869436957

   => Energetics <=

    Nuclear Repulsion Energy =            223.0787791617865139
    One-Electron Energy =                -755.0649894950375938
    Two-Electron Energy =                 298.9495716388814799
    Total Energy =                       -233.0366386943695716
  Basis Set: (AUG-CC-PVTZ AUX)
    Blend: AUG-CC-PVTZ-RI
    Molecular point group: c1

    Geometry (in Angstrom), charge = 0, multiplicity = 1:

       Center              X                  Y                   Z               Mass
    ------------   -----------------  -----------------  -----------------  -----------------
         C            1.094130579875    -0.048660413673     0.286012888543    12.000000000000
         C           -0.278004820125     0.008195986327     1.103237988543    12.000000000000
         C            1.249218179875     1.268408986327    -0.469437011457    12.000000000000
         C            1.249331179875    -1.251597013673    -0.469655011457    12.000000000000
         C           -1.420964820125     0.008223986327     0.186111988543    12.000000000000
         C           -2.374066820125     0.008409986327    -0.577735011457    12.000000000000
         H            1.849578179875     0.008286986327     1.157982988543     1.007825032230
         H           -0.339321820125    -0.871761013673     1.756397988543     1.007825032230
         H           -0.339415820125     0.888037986327     1.756539988543     1.007825032230
         H            2.234912179875     1.286544986327    -0.944702011457     1.007825032230
         H            1.150933179875     2.171584986327     0.141727988543     1.007825032230
         H            0.489691179875     1.306125986327    -1.256045011457     1.007825032230
         H            2.235028179875    -1.269566013673    -0.944919011457     1.007825032230
         H            0.489811179875    -1.289238013673    -1.256274011457     1.007825032230
         H            1.151118179875    -2.154889013673     0.141349988543     1.007825032230
         H           -3.202811820125     0.008440986327    -1.249035011457     1.007825032230

  Basis Set: AUG-CC-PVTZ
    Blend: AUG-CC-PVTZ
  Basis Set: (AUG-CC-PVTZ AUX)
    Blend: AUG-CC-PVTZ-JKFIT
	 Reference Energy          =    -233.0366386943695716 [Eh]
	 Singles Energy            =      -0.0000000000000000 [Eh]
	 Same-Spin Energy          =      -0.2508270135396996 [Eh]
	 Opposite-Spin Energy      =      -0.8902008349575183 [Eh]
	 Correlation Energy        =      -1.1410278484972181 [Eh]
	 Total Energy              =    -234.1776665428668025 [Eh]

	 ================> DF-SCS-MP2 Energies <==================
	-----------------------------------------------------------
	 SCS Same-Spin Scale       =       0.3333333333333333 [-]
	 SCS Opposite-Spin Scale   =       1.2000000000000000 [-]
	 SCS Same-Spin Energy      =      -0.0836090045132332 [Eh]
	 SCS Opposite-Spin Energy  =      -1.0682410019490221 [Eh]
	 SCS Correlation Energy    =      -1.1518500064622552 [Eh]
	 SCS Total Energy          =    -234.1884887008318401 [Eh]
	-----------------------------------------------------------

  Dipole Moment: [D]
     X:     0.6978      Y:    -0.0437      Z:     0.2806     Total:     0.7534

*** Psi4 exiting successfully. Buy a developer a beer!
