                               Psi4 1.4a3.dev225

  ==> Input File <==

--------------------------------------------------------------------------
#psi4
#
memory 32 gb

molecule  {
0 1
  C        1.0191550    -0.0000090     0.3706600
  C       -0.3376930    -0.0001380     1.0991850
  C        1.1895300     1.2600750    -0.4734900
  C        1.1896430    -1.2599310    -0.4737080
  C       -1.4806530    -0.0001100     0.1820590
  C       -2.4337550     0.0000760    -0.5817880
  H        1.8600280    -0.0000505     1.2252087
  H       -0.3990100    -0.8800950     1.7523450
  H       -0.3991040     0.8797040     1.7524870
  H        2.1752240     1.2782110    -0.9487550
  H        1.0912450     2.1632510     0.1376750
  H        0.4300030     1.2977920    -1.2600980
  H        2.1753400    -1.2779000    -0.9489720
  H        0.4301230    -1.2975720    -1.2603270
  H        1.0914300    -2.1632230     0.1372970
  H       -3.2625000     0.0001070    -1.2530880
units angstrom
no_reorient  #important for SAPT in psi4, default
symmetry c1  #important for SAPT in psi4, default
}

set PROPERTIES_ORIGIN ["COM"]
properties('MP2/aug-cc-pvtz', properties = ['dipole'])
--------------------------------------------------------------------------

    Molecular point group: c1
  Charge       = 0
  Multiplicity = 1
  Basis Set: AUG-CC-PVTZ
    Blend: AUG-CC-PVTZ
  Basis Set: (AUG-CC-PVTZ AUX)
    Blend: AUG-CC-PVTZ-JKFIT

    Orbital Energies [Eh]
    ---------------------

    Doubly Occupied:

       1A    -11.251339     2A    -11.248141     3A    -11.238385
       4A    -11.224203     5A    -11.212403     6A    -11.212388
       7A     -1.106182     8A     -1.021455     9A     -0.943201
      10A     -0.930960    11A     -0.777160    12A     -0.710926
      13A     -0.648350    14A     -0.616073    15A     -0.608817
      16A     -0.578140    17A     -0.539854    18A     -0.523886
      19A     -0.485533    20A     -0.474914    21A     -0.460225
      22A     -0.378713    23A     -0.378564

  @DF-RHF Final Energy:  -233.04304866350509

   => Energetics <=

    Nuclear Repulsion Energy =            222.2801669216615323
    One-Electron Energy =                -753.5068114975697426
    Two-Electron Energy =                 298.1835959124031774
    Total Energy =                       -233.0430486635050897
  Basis Set: (AUG-CC-PVTZ AUX)
    Blend: AUG-CC-PVTZ-RI
    Molecular point group: c1

    Geometry (in Angstrom), charge = 0, multiplicity = 1:

       Center              X                  Y                   Z               Mass
    ------------   -----------------  -----------------  -----------------  -----------------
         C            1.080217014812    -0.000006347126     0.360869642058    12.000000000000
         C           -0.276630985188    -0.000135347126     1.089394642058    12.000000000000
         C            1.250592014812     1.260077652874    -0.483280357942    12.000000000000
         C            1.250705014812    -1.259928347126    -0.483498357942    12.000000000000
         C           -1.419590985188    -0.000107347126     0.172268642058    12.000000000000
         C           -2.372692985188     0.000078652874    -0.591578357942    12.000000000000
         H            1.921090014812    -0.000047847126     1.215418342058     1.007825032230
         H           -0.337947985188    -0.880092347126     1.742554642058     1.007825032230
         H           -0.338041985188     0.879706652874     1.742696642058     1.007825032230
         H            2.236286014812     1.278213652874    -0.958545357942     1.007825032230
         H            1.152307014812     2.163253652874     0.127884642058     1.007825032230
         H            0.491065014812     1.297794652874    -1.269888357942     1.007825032230
         H            2.236402014812    -1.277897347126    -0.958762357942     1.007825032230
         H            0.491185014812    -1.297569347126    -1.270117357942     1.007825032230
         H            1.152492014812    -2.163220347126     0.127506642058     1.007825032230
         H           -3.201437985188     0.000109652874    -1.262878357942     1.007825032230

  Basis Set: AUG-CC-PVTZ
    Blend: AUG-CC-PVTZ
  Basis Set: (AUG-CC-PVTZ AUX)
    Blend: AUG-CC-PVTZ-JKFIT
	 Reference Energy          =    -233.0430486635050897 [Eh]
	 Singles Energy            =      -0.0000000000000000 [Eh]
	 Same-Spin Energy          =      -0.2500140810654211 [Eh]
	 Opposite-Spin Energy      =      -0.8899715424641652 [Eh]
	 Correlation Energy        =      -1.1399856235295862 [Eh]
	 Total Energy              =    -234.1830342870346726 [Eh]

	 ================> DF-SCS-MP2 Energies <==================
	-----------------------------------------------------------
	 SCS Same-Spin Scale       =       0.3333333333333333 [-]
	 SCS Opposite-Spin Scale   =       1.2000000000000000 [-]
	 SCS Same-Spin Energy      =      -0.0833380270218070 [Eh]
	 SCS Opposite-Spin Energy  =      -1.0679658509569983 [Eh]
	 SCS Correlation Energy    =      -1.1513038779788052 [Eh]
	 SCS Total Energy          =    -234.1943525414839087 [Eh]
	-----------------------------------------------------------

  Dipole Moment: [D]
     X:     0.5801      Y:    -0.0000      Z:     0.2472     Total:     0.6306

*** Psi4 exiting successfully. Buy a developer a beer!
