                               Psi4 1.4a3.dev225

  ==> Input File <==

--------------------------------------------------------------------------
#psi4
#
memory 32 gb

molecule  {
0 1
  C        0.9946527     0.0080457     0.3773178
  C       -0.3376930    -0.0001380     1.0991850
  C        1.1895300     1.2600750    -0.4734900
  C        1.1896430    -1.2599310    -0.4737080
  C       -1.4806530    -0.0001100     0.1820590
  C       -2.4337550     0.0000760    -0.5817880
  H        1.7898900    -0.0000470     1.1539300
  H       -0.3990100    -0.8800950     1.7523450
  H       -0.3991040     0.8797040     1.7524870
  H        2.1752240     1.2782110    -0.9487550
  H        1.0912450     2.1632510     0.1376750
  H        0.4300030     1.2977920    -1.2600980
  H        2.1753400    -1.2779000    -0.9489720
  H        0.4301230    -1.2975720    -1.2603270
  H        1.0914300    -2.1632230     0.1372970
  H       -3.2625000     0.0001070    -1.2530880
units angstrom
no_reorient  #important for SAPT in psi4, default
symmetry c1  #important for SAPT in psi4, default
}

set PROPERTIES_ORIGIN ["COM"]
properties('MP2/aug-cc-pvtz', properties = ['dipole'])
--------------------------------------------------------------------------

    Molecular point group: c1
  Charge       = 0
  Multiplicity = 1
  Basis Set: AUG-CC-PVTZ
    Blend: AUG-CC-PVTZ
  Basis Set: (AUG-CC-PVTZ AUX)
    Blend: AUG-CC-PVTZ-JKFIT

    Orbital Energies [Eh]
    ---------------------

    Doubly Occupied:

       1A    -11.250189     2A    -11.237870     3A    -11.236033
       4A    -11.223785     5A    -11.211475     6A    -11.211236
       7A     -1.110079     8A     -1.021039     9A     -0.944007
      10A     -0.928894    11A     -0.786416    12A     -0.711059
      13A     -0.652399    14A     -0.617561    15A     -0.609407
      16A     -0.577786    17A     -0.537816    18A     -0.523424
      19A     -0.490830    20A     -0.470708    21A     -0.466743
      22A     -0.379286    23A     -0.378167

  @DF-RHF Final Energy:  -233.04862016280180

   => Energetics <=

    Nuclear Repulsion Energy =            222.9186196201969210
    One-Electron Energy =                -754.7820619923420509
    Two-Electron Energy =                 298.8148222093432764
    Total Energy =                       -233.0486201628017966
  Basis Set: (AUG-CC-PVTZ AUX)
    Blend: AUG-CC-PVTZ-RI
    Molecular point group: c1

    Geometry (in Angstrom), charge = 0, multiplicity = 1:

       Center              X                  Y                   Z               Mass
    ------------   -----------------  -----------------  -----------------  -----------------
         C            1.060158211484     0.006870697076     0.367429277906    12.000000000000
         C           -0.272187488516    -0.001313002924     1.089296477906    12.000000000000
         C            1.255035511484     1.258899997076    -0.483378522094    12.000000000000
         C            1.255148511484    -1.261106002924    -0.483596522094    12.000000000000
         C           -1.415147488516    -0.001285002924     0.172170477906    12.000000000000
         C           -2.368249488516    -0.001099002924    -0.591676522094    12.000000000000
         H            1.855395511484    -0.001222002924     1.144041477906     1.007825032230
         H           -0.333504488516    -0.881270002924     1.742456477906     1.007825032230
         H           -0.333598488516     0.878528997076     1.742598477906     1.007825032230
         H            2.240729511484     1.277035997076    -0.958643522094     1.007825032230
         H            1.156750511484     2.162075997076     0.127786477906     1.007825032230
         H            0.495508511484     1.296616997076    -1.269986522094     1.007825032230
         H            2.240845511484    -1.279075002924    -0.958860522094     1.007825032230
         H            0.495628511484    -1.298747002924    -1.270215522094     1.007825032230
         H            1.156935511484    -2.164398002924     0.127408477906     1.007825032230
         H           -3.196994488516    -0.001068002924    -1.262976522094     1.007825032230

  Basis Set: AUG-CC-PVTZ
    Blend: AUG-CC-PVTZ
  Basis Set: (AUG-CC-PVTZ AUX)
    Blend: AUG-CC-PVTZ-JKFIT
	 Reference Energy          =    -233.0486201628017966 [Eh]
	 Singles Energy            =      -0.0000000000000000 [Eh]
	 Same-Spin Energy          =      -0.2500487449513955 [Eh]
	 Opposite-Spin Energy      =      -0.8893724018348190 [Eh]
	 Correlation Energy        =      -1.1394211467862145 [Eh]
	 Total Energy              =    -234.1880413095880158 [Eh]

	 ================> DF-SCS-MP2 Energies <==================
	-----------------------------------------------------------
	 SCS Same-Spin Scale       =       0.3333333333333333 [-]
	 SCS Opposite-Spin Scale   =       1.2000000000000000 [-]
	 SCS Same-Spin Energy      =      -0.0833495816504652 [Eh]
	 SCS Opposite-Spin Energy  =      -1.0672468822017829 [Eh]
	 SCS Correlation Energy    =      -1.1505964638522481 [Eh]
	 SCS Total Energy          =    -234.1992166266540494 [Eh]
	-----------------------------------------------------------

  Dipole Moment: [D]
     X:     0.6226      Y:     0.0060      Z:     0.3205     Total:     0.7002

*** Psi4 exiting successfully. Buy a developer a beer!
