                               Psi4 1.4a3.dev225

  ==> Input File <==

--------------------------------------------------------------------------
#psi4
#
memory 32 gb

molecule  {
0 1
  C        1.0191550    -0.0000090     0.3706600
  C       -0.3376930    -0.0001380     1.0991850
  C        1.1783670     1.1775140    -0.4181811
  C        1.1896430    -1.2599310    -0.4737080
  C       -1.4806530    -0.0001100     0.1820590
  C       -2.4337550     0.0000760    -0.5817880
  H        1.7898900    -0.0000470     1.1539300
  H       -0.3990100    -0.8800950     1.7523450
  H       -0.3991040     0.8797040     1.7524870
  H        2.1752240     1.2782110    -0.9487550
  H        1.0912450     2.1632510     0.1376750
  H        0.4300030     1.2977920    -1.2600980
  H        2.1753400    -1.2779000    -0.9489720
  H        0.4301230    -1.2975720    -1.2603270
  H        1.0914300    -2.1632230     0.1372970
  H       -3.2625000     0.0001070    -1.2530880
units angstrom
no_reorient  #important for SAPT in psi4, default
symmetry c1  #important for SAPT in psi4, default
}

set PROPERTIES_ORIGIN ["COM"]
properties('MP2/aug-cc-pvtz', properties = ['dipole'])
--------------------------------------------------------------------------

    Molecular point group: c1
  Charge       = 0
  Multiplicity = 1
  Basis Set: AUG-CC-PVTZ
    Blend: AUG-CC-PVTZ
  Basis Set: (AUG-CC-PVTZ AUX)
    Blend: AUG-CC-PVTZ-JKFIT

    Orbital Energies [Eh]
    ---------------------

    Doubly Occupied:

       1A    -11.250868     2A    -11.237733     3A    -11.231242
       4A    -11.223441     5A    -11.216950     6A    -11.211827
       7A     -1.119435     8A     -1.026136     9A     -0.943404
      10A     -0.929744    11A     -0.786660    12A     -0.711614
      13A     -0.655924    14A     -0.619016    15A     -0.612016
      16A     -0.579451    17A     -0.535321    18A     -0.516421
      19A     -0.498480    20A     -0.469466    21A     -0.460446
      22A     -0.378029    23A     -0.377810

  @DF-RHF Final Energy:  -233.03760172808813

   => Energetics <=

    Nuclear Repulsion Energy =            224.1778636092204522
    One-Electron Energy =                -757.2480684652989567
    Two-Electron Energy =                 300.0326031279903418
    Total Energy =                       -233.0376017280881342
  Basis Set: (AUG-CC-PVTZ AUX)
    Blend: AUG-CC-PVTZ-RI
    Molecular point group: c1

    Geometry (in Angstrom), charge = 0, multiplicity = 1:

       Center              X                  Y                   Z               Mass
    ------------   -----------------  -----------------  -----------------  -----------------
         C            1.082710279853     0.012064188841     0.353658592364    12.000000000000
         C           -0.274137720147     0.011935188841     1.082183592364    12.000000000000
         C            1.241922279853     1.189587188841    -0.435182507636    12.000000000000
         C            1.253198279853    -1.247857811159    -0.490709407636    12.000000000000
         C           -1.417097720147     0.011963188841     0.165057592364    12.000000000000
         C           -2.370199720147     0.012149188841    -0.598789407636    12.000000000000
         H            1.853445279853     0.012026188841     1.136928592364     1.007825032230
         H           -0.335454720147    -0.868021811159     1.735343592364     1.007825032230
         H           -0.335548720147     0.891777188841     1.735485592364     1.007825032230
         H            2.238779279853     1.290284188841    -0.965756407636     1.007825032230
         H            1.154800279853     2.175324188841     0.120673592364     1.007825032230
         H            0.493558279853     1.309865188841    -1.277099407636     1.007825032230
         H            2.238895279853    -1.265826811159    -0.965973407636     1.007825032230
         H            0.493678279853    -1.285498811159    -1.277328407636     1.007825032230
         H            1.154985279853    -2.151149811159     0.120295592364     1.007825032230
         H           -3.198944720147     0.012180188841    -1.270089407636     1.007825032230

  Basis Set: AUG-CC-PVTZ
    Blend: AUG-CC-PVTZ
  Basis Set: (AUG-CC-PVTZ AUX)
    Blend: AUG-CC-PVTZ-JKFIT
	 Reference Energy          =    -233.0376017280881342 [Eh]
	 Singles Energy            =      -0.0000000000000000 [Eh]
	 Same-Spin Energy          =      -0.2511446012662791 [Eh]
	 Opposite-Spin Energy      =      -0.8906109838530951 [Eh]
	 Correlation Energy        =      -1.1417555851193741 [Eh]
	 Total Energy              =    -234.1793573132075039 [Eh]

	 ================> DF-SCS-MP2 Energies <==================
	-----------------------------------------------------------
	 SCS Same-Spin Scale       =       0.3333333333333333 [-]
	 SCS Opposite-Spin Scale   =       1.2000000000000000 [-]
	 SCS Same-Spin Energy      =      -0.0837148670887597 [Eh]
	 SCS Opposite-Spin Energy  =      -1.0687331806237141 [Eh]
	 SCS Correlation Energy    =      -1.1524480477124739 [Eh]
	 SCS Total Energy          =    -234.1900497758006168 [Eh]
	-----------------------------------------------------------

  Dipole Moment: [D]
     X:     0.6418      Y:    -0.0063      Z:     0.3120     Total:     0.7136

*** Psi4 exiting successfully. Buy a developer a beer!
