                               Psi4 1.4a3.dev225

  ==> Input File <==

--------------------------------------------------------------------------
#psi4
#
memory 32 gb

molecule  {
0 1
  C        1.0191550    -0.0000090     0.3706600
  C       -0.3376930    -0.0001380     1.0991850
  C        1.1895300     1.2600750    -0.4734900
  C        1.1896430    -1.2599310    -0.4737080
  C       -1.6366430    -0.0001062     0.0568906
  C       -2.4337550     0.0000760    -0.5817880
  H        1.7898900    -0.0000470     1.1539300
  H       -0.3990100    -0.8800950     1.7523450
  H       -0.3991040     0.8797040     1.7524870
  H        2.1752240     1.2782110    -0.9487550
  H        1.0912450     2.1632510     0.1376750
  H        0.4300030     1.2977920    -1.2600980
  H        2.1753400    -1.2779000    -0.9489720
  H        0.4301230    -1.2975720    -1.2603270
  H        1.0914300    -2.1632230     0.1372970
  H       -3.2625000     0.0001070    -1.2530880
units angstrom
no_reorient  #important for SAPT in psi4, default
symmetry c1  #important for SAPT in psi4, default
}

set PROPERTIES_ORIGIN ["COM"]
properties('MP2/aug-cc-pvtz', properties = ['dipole'])
--------------------------------------------------------------------------

    Molecular point group: c1
  Charge       = 0
  Multiplicity = 1
  Basis Set: AUG-CC-PVTZ
    Blend: AUG-CC-PVTZ
  Basis Set: (AUG-CC-PVTZ AUX)
    Blend: AUG-CC-PVTZ-JKFIT

    Orbital Energies [Eh]
    ---------------------

    Doubly Occupied:

       1A    -11.261090     2A    -11.234038     3A    -11.210546
       4A    -11.210528     5A    -11.182285     6A    -11.159231
       7A     -1.095758     8A     -1.057658     9A     -0.932488
      10A     -0.928825    11A     -0.771315    12A     -0.693548
      13A     -0.640660    14A     -0.606083    15A     -0.595858
      16A     -0.551562    17A     -0.537644    18A     -0.519871
      19A     -0.481030    20A     -0.472239    21A     -0.469656
      22A     -0.433953    23A     -0.432340

  @DF-RHF Final Energy:  -232.95516013118933

   => Energetics <=

    Nuclear Repulsion Energy =            223.0010197038270121
    One-Electron Energy =                -754.9559479008698872
    Two-Electron Energy =                 298.9997680658535160
    Total Energy =                       -232.9551601311893023
  Basis Set: (AUG-CC-PVTZ AUX)
    Blend: AUG-CC-PVTZ-RI
    Molecular point group: c1

    Geometry (in Angstrom), charge = 0, multiplicity = 1:

       Center              X                  Y                   Z               Mass
    ------------   -----------------  -----------------  -----------------  -----------------
         C            1.103884269225    -0.000006945669     0.380044725006    12.000000000000
         C           -0.252963730775    -0.000135945669     1.108569725006    12.000000000000
         C            1.274259269225     1.260077054331    -0.464105274994    12.000000000000
         C            1.274372269225    -1.259928945669    -0.464323274994    12.000000000000
         C           -1.551913730775    -0.000104145669     0.066275325006    12.000000000000
         C           -2.349025730775     0.000078054331    -0.572403274994    12.000000000000
         H            1.874619269225    -0.000044945669     1.163314725006     1.007825032230
         H           -0.314280730775    -0.880092945669     1.761729725006     1.007825032230
         H           -0.314374730775     0.879706054331     1.761871725006     1.007825032230
         H            2.259953269225     1.278213054331    -0.939370274994     1.007825032230
         H            1.175974269225     2.163253054331     0.147059725006     1.007825032230
         H            0.514732269225     1.297794054331    -1.250713274994     1.007825032230
         H            2.260069269225    -1.277897945669    -0.939587274994     1.007825032230
         H            0.514852269225    -1.297569945669    -1.250942274994     1.007825032230
         H            1.176159269225    -2.163220945669     0.146681725006     1.007825032230
         H           -3.177770730775     0.000109054331    -1.243703274994     1.007825032230

  Basis Set: AUG-CC-PVTZ
    Blend: AUG-CC-PVTZ
  Basis Set: (AUG-CC-PVTZ AUX)
    Blend: AUG-CC-PVTZ-JKFIT
	 Reference Energy          =    -232.9551601311893307 [Eh]
	 Singles Energy            =      -0.0000000000000000 [Eh]
	 Same-Spin Energy          =      -0.2417490105710144 [Eh]
	 Opposite-Spin Energy      =      -0.8744089676805225 [Eh]
	 Correlation Energy        =      -1.1161579782515370 [Eh]
	 Total Energy              =    -234.0713181094408810 [Eh]

	 ================> DF-SCS-MP2 Energies <==================
	-----------------------------------------------------------
	 SCS Same-Spin Scale       =       0.3333333333333333 [-]
	 SCS Opposite-Spin Scale   =       1.2000000000000000 [-]
	 SCS Same-Spin Energy      =      -0.0805830035236715 [Eh]
	 SCS Opposite-Spin Energy  =      -1.0492907612166269 [Eh]
	 SCS Correlation Energy    =      -1.1298737647402983 [Eh]
	 SCS Total Energy          =    -234.0850338959296266 [Eh]
	-----------------------------------------------------------

  Dipole Moment: [D]
     X:     0.5920      Y:     0.0000      Z:     0.2849     Total:     0.6570

*** Psi4 exiting successfully. Buy a developer a beer!
