                               Psi4 1.4a3.dev225

  ==> Input File <==

--------------------------------------------------------------------------
#psi4
#
memory 32 gb

molecule  {
0 1
  C        1.0191550    -0.0000090     0.3706600
  C       -0.3376930    -0.0001380     1.0991850
  C        1.1895300     1.2600750    -0.4734900
  C        1.1896430    -1.2599310    -0.4737080
  C       -1.4806530    -0.0001100     0.1820590
  C       -2.4337550     0.0000760    -0.5817880
  H        1.7898900    -0.0000470     1.1539300
  H       -0.3990100    -0.8800950     1.7523450
  H       -0.3991040     0.8797040     1.7524870
  H        2.1752240     1.2782110    -0.9487550
  H        1.0912450     2.1632510     0.1376750
  H        0.4300030     1.2977920    -1.2600980
  H        2.1753400    -1.2779000    -0.9489720
  H        0.5689621    -1.2906913    -1.1165342
  H        1.0914300    -2.1632230     0.1372970
  H       -3.2625000     0.0001070    -1.2530880
units angstrom
no_reorient  #important for SAPT in psi4, default
symmetry c1  #important for SAPT in psi4, default
}

set PROPERTIES_ORIGIN ["COM"]
properties('MP2/aug-cc-pvtz', properties = ['dipole'])
--------------------------------------------------------------------------

    Molecular point group: c1
  Charge       = 0
  Multiplicity = 1
  Basis Set: AUG-CC-PVTZ
    Blend: AUG-CC-PVTZ
  Basis Set: (AUG-CC-PVTZ AUX)
    Blend: AUG-CC-PVTZ-JKFIT

    Orbital Energies [Eh]
    ---------------------

    Doubly Occupied:

       1A    -11.250010     2A    -11.237959     3A    -11.234117
       4A    -11.223915     5A    -11.211048     6A    -11.186878
       7A     -1.110241     8A     -1.024753     9A     -0.952816
      10A     -0.938179    11A     -0.795662    12A     -0.711685
      13A     -0.652776    14A     -0.620144    15A     -0.611779
      16A     -0.583709    17A     -0.558619    18A     -0.522931
      19A     -0.484265    20A     -0.477751    21A     -0.472064
      22A     -0.378567    23A     -0.378137

  @DF-RHF Final Energy:  -233.01557184634544

   => Energetics <=

    Nuclear Repulsion Energy =            223.6076361168371136
    One-Electron Energy =                -756.0104031795950732
    Two-Electron Energy =                 299.3871952164124650
    Total Energy =                       -233.0155718463454377
  Basis Set: (AUG-CC-PVTZ AUX)
    Blend: AUG-CC-PVTZ-RI
    Molecular point group: c1

    Geometry (in Angstrom), charge = 0, multiplicity = 1:

       Center              X                  Y                   Z               Mass
    ------------   -----------------  -----------------  -----------------  -----------------
         C            1.079373445559    -0.000090877060     0.359979253619    12.000000000000
         C           -0.277474554441    -0.000219877060     1.088504253619    12.000000000000
         C            1.249748445559     1.259993122940    -0.484170746381    12.000000000000
         C            1.249861445559    -1.260012877060    -0.484388746381    12.000000000000
         C           -1.420434554441    -0.000191877060     0.171378253619    12.000000000000
         C           -2.373536554441    -0.000005877060    -0.592468746381    12.000000000000
         H            1.850108445559    -0.000128877060     1.143249253619     1.007825032230
         H           -0.338791554441    -0.880176877060     1.741664253619     1.007825032230
         H           -0.338885554441     0.879622122940     1.741806253619     1.007825032230
         H            2.235442445559     1.278129122940    -0.959435746381     1.007825032230
         H            1.151463445559     2.163169122940     0.126994253619     1.007825032230
         H            0.490221445559     1.297710122940    -1.270778746381     1.007825032230
         H            2.235558445559    -1.277981877060    -0.959652746381     1.007825032230
         H            0.629180545559    -1.290773177060    -1.127214946381     1.007825032230
         H            1.151648445559    -2.163304877060     0.126616253619     1.007825032230
         H           -3.202281554441     0.000025122940    -1.263768746381     1.007825032230

  Basis Set: AUG-CC-PVTZ
    Blend: AUG-CC-PVTZ
  Basis Set: (AUG-CC-PVTZ AUX)
    Blend: AUG-CC-PVTZ-JKFIT
	 Reference Energy          =    -233.0155718463454377 [Eh]
	 Singles Energy            =      -0.0000000000000000 [Eh]
	 Same-Spin Energy          =      -0.2499142944984546 [Eh]
	 Opposite-Spin Energy      =      -0.8884614133206585 [Eh]
	 Correlation Energy        =      -1.1383757078191130 [Eh]
	 Total Energy              =    -234.1539475541645459 [Eh]

	 ================> DF-SCS-MP2 Energies <==================
	-----------------------------------------------------------
	 SCS Same-Spin Scale       =       0.3333333333333333 [-]
	 SCS Opposite-Spin Scale   =       1.2000000000000000 [-]
	 SCS Same-Spin Energy      =      -0.0833047648328182 [Eh]
	 SCS Opposite-Spin Energy  =      -1.0661536959847902 [Eh]
	 SCS Correlation Energy    =      -1.1494584608176084 [Eh]
	 SCS Total Energy          =    -234.1650303071630503 [Eh]
	-----------------------------------------------------------

  Dipole Moment: [D]
     X:     0.6129      Y:    -0.0202      Z:     0.2593     Total:     0.6658

*** Psi4 exiting successfully. Buy a developer a beer!
