                               Psi4 1.4a3.dev225

  ==> Input File <==

--------------------------------------------------------------------------
#psi4
#
memory 32 gb

molecule  {
0 1
  C        1.0191550    -0.0000090     0.3706600
  C       -0.3376930    -0.0001380     1.0991850
  C        1.1895300     1.2600750    -0.4734900
  C        1.1673022    -1.0948302    -0.3630616
  C       -1.4806530    -0.0001100     0.1820590
  C       -2.4337550     0.0000760    -0.5817880
  H        1.7898900    -0.0000470     1.1539300
  H       -0.3990100    -0.8800950     1.7523450
  H       -0.3991040     0.8797040     1.7524870
  H        2.1752240     1.2782110    -0.9487550
  H        1.0912450     2.1632510     0.1376750
  H        0.4300030     1.2977920    -1.2600980
  H        2.1753400    -1.2779000    -0.9489720
  H        0.4301230    -1.2975720    -1.2603270
  H        1.0914300    -2.1632230     0.1372970
  H       -3.2625000     0.0001070    -1.2530880
units angstrom
no_reorient  #important for SAPT in psi4, default
symmetry c1  #important for SAPT in psi4, default
}

set PROPERTIES_ORIGIN ["COM"]
properties('MP2/aug-cc-pvtz', properties = ['dipole'])
--------------------------------------------------------------------------

    Molecular point group: c1
  Charge       = 0
  Multiplicity = 1
  Basis Set: AUG-CC-PVTZ
    Blend: AUG-CC-PVTZ
  Basis Set: (AUG-CC-PVTZ AUX)
    Blend: AUG-CC-PVTZ-JKFIT

    Orbital Energies [Eh]
    ---------------------

    Doubly Occupied:

       1A    -11.252125     2A    -11.238002     3A    -11.226269
       4A    -11.224367     5A    -11.223773     6A    -11.213179
       7A     -1.137071     8A     -1.031245     9A     -0.945093
      10A     -0.931469    11A     -0.784264    12A     -0.712736
      13A     -0.662949    14A     -0.624282    15A     -0.617013
      16A     -0.582310    17A     -0.538691    18A     -0.515147
      19A     -0.511743    20A     -0.450754    21A     -0.441957
      22A     -0.378164    23A     -0.377635

  @DF-RHF Final Energy:  -232.99906991104501

   => Energetics <=

    Nuclear Repulsion Energy =            225.7439129904180675
    One-Electron Energy =                -760.2454914548738998
    Two-Electron Energy =                 301.5025085534108484
    Total Energy =                       -232.9990699110450123
  Basis Set: (AUG-CC-PVTZ AUX)
    Blend: AUG-CC-PVTZ-RI
    Molecular point group: c1

    Geometry (in Angstrom), charge = 0, multiplicity = 1:

       Center              X                  Y                   Z               Mass
    ------------   -----------------  -----------------  -----------------  -----------------
         C            1.084344495976    -0.024144448506     0.345568142124    12.000000000000
         C           -0.272503504024    -0.024273448506     1.074093142124    12.000000000000
         C            1.254719495976     1.235939551494    -0.498581857876    12.000000000000
         C            1.232491695976    -1.118965648506    -0.388153457876    12.000000000000
         C           -1.415463504024    -0.024245448506     0.156967142124    12.000000000000
         C           -2.368565504024    -0.024059448506    -0.606879857876    12.000000000000
         H            1.855079495976    -0.024182448506     1.128838142124     1.007825032230
         H           -0.333820504024    -0.904230448506     1.727253142124     1.007825032230
         H           -0.333914504024     0.855568551494     1.727395142124     1.007825032230
         H            2.240413495976     1.254075551494    -0.973846857876     1.007825032230
         H            1.156434495976     2.139115551494     0.112583142124     1.007825032230
         H            0.495192495976     1.273656551494    -1.285189857876     1.007825032230
         H            2.240529495976    -1.302035448506    -0.974063857876     1.007825032230
         H            0.495312495976    -1.321707448506    -1.285418857876     1.007825032230
         H            1.156619495976    -2.187358448506     0.112205142124     1.007825032230
         H           -3.197310504024    -0.024028448506    -1.278179857876     1.007825032230

  Basis Set: AUG-CC-PVTZ
    Blend: AUG-CC-PVTZ
  Basis Set: (AUG-CC-PVTZ AUX)
    Blend: AUG-CC-PVTZ-JKFIT
	 Reference Energy          =    -232.9990699110450123 [Eh]
	 Singles Energy            =      -0.0000000000000000 [Eh]
	 Same-Spin Energy          =      -0.2532157283969086 [Eh]
	 Opposite-Spin Energy      =      -0.8935713453683060 [Eh]
	 Correlation Energy        =      -1.1467870737652146 [Eh]
	 Total Energy              =    -234.1458569848102229 [Eh]

	 ================> DF-SCS-MP2 Energies <==================
	-----------------------------------------------------------
	 SCS Same-Spin Scale       =       0.3333333333333333 [-]
	 SCS Opposite-Spin Scale   =       1.2000000000000000 [-]
	 SCS Same-Spin Energy      =      -0.0844052427989695 [Eh]
	 SCS Opposite-Spin Energy  =      -1.0722856144419670 [Eh]
	 SCS Correlation Energy    =      -1.1566908572409365 [Eh]
	 SCS Total Energy          =    -234.1557607682859441 [Eh]
	-----------------------------------------------------------

  Dipole Moment: [D]
     X:     0.6215      Y:     0.0520      Z:     0.3239     Total:     0.7027

*** Psi4 exiting successfully. Buy a developer a beer!
