                               Psi4 1.4a3.dev225

  ==> Input File <==

--------------------------------------------------------------------------
#psi4
#
memory 32 gb

molecule  {
0 1
  C        1.0191550    -0.0000090     0.3706600
  C       -0.4257966    -0.0001464     1.1464900
  C        1.1895300     1.2600750    -0.4734900
  C        1.1896430    -1.2599310    -0.4737080
  C       -1.4806530    -0.0001100     0.1820590
  C       -2.4337550     0.0000760    -0.5817880
  H        1.7898900    -0.0000470     1.1539300
  H       -0.3990100    -0.8800950     1.7523450
  H       -0.3991040     0.8797040     1.7524870
  H        2.1752240     1.2782110    -0.9487550
  H        1.0912450     2.1632510     0.1376750
  H        0.4300030     1.2977920    -1.2600980
  H        2.1753400    -1.2779000    -0.9489720
  H        0.4301230    -1.2975720    -1.2603270
  H        1.0914300    -2.1632230     0.1372970
  H       -3.2625000     0.0001070    -1.2530880
units angstrom
no_reorient  #important for SAPT in psi4, default
symmetry c1  #important for SAPT in psi4, default
}

set PROPERTIES_ORIGIN ["COM"]
properties('MP2/aug-cc-pvtz', properties = ['dipole'])
--------------------------------------------------------------------------

    Molecular point group: c1
  Charge       = 0
  Multiplicity = 1
  Basis Set: AUG-CC-PVTZ
    Blend: AUG-CC-PVTZ
  Basis Set: (AUG-CC-PVTZ AUX)
    Blend: AUG-CC-PVTZ-JKFIT

    Orbital Energies [Eh]
    ---------------------

    Doubly Occupied:

       1A    -11.245562     2A    -11.241023     3A    -11.236697
       4A    -11.223665     5A    -11.211113     6A    -11.211096
       7A     -1.099539     8A     -1.024940     9A     -0.944059
      10A     -0.928853    11A     -0.782695    12A     -0.713382
      13A     -0.650664    14A     -0.621797    15A     -0.606890
      16A     -0.585702    17A     -0.540808    18A     -0.527477
      19A     -0.475576    20A     -0.475032    21A     -0.468328
      22A     -0.379494    23A     -0.369417

  @DF-RHF Final Energy:  -233.04187911674492

   => Energetics <=

    Nuclear Repulsion Energy =            221.8955985417640306
    One-Electron Energy =                -752.7473399814530239
    Two-Electron Energy =                 297.8098623229440705
    Total Energy =                       -233.0418791167449513
  Basis Set: (AUG-CC-PVTZ AUX)
    Blend: AUG-CC-PVTZ-RI
    Molecular point group: c1

    Geometry (in Angstrom), charge = 0, multiplicity = 1:

       Center              X                  Y                   Z               Mass
    ------------   -----------------  -----------------  -----------------  -----------------
         C            1.093959145373    -0.000005162005     0.354828778127    12.000000000000
         C           -0.350992454627    -0.000142562005     1.130658778127    12.000000000000
         C            1.264334145373     1.260078837995    -0.489321221873    12.000000000000
         C            1.264447145373    -1.259927162005    -0.489539221873    12.000000000000
         C           -1.405848854627    -0.000106162005     0.166227778127    12.000000000000
         C           -2.358950854627     0.000079837995    -0.597619221873    12.000000000000
         H            1.864694145373    -0.000043162005     1.138098778127     1.007825032230
         H           -0.324205854627    -0.880091162005     1.736513778127     1.007825032230
         H           -0.324299854627     0.879707837995     1.736655778127     1.007825032230
         H            2.250028145373     1.278214837995    -0.964586221873     1.007825032230
         H            1.166049145373     2.163254837995     0.121843778127     1.007825032230
         H            0.504807145373     1.297795837995    -1.275929221873     1.007825032230
         H            2.250144145373    -1.277896162005    -0.964803221873     1.007825032230
         H            0.504927145373    -1.297568162005    -1.276158221873     1.007825032230
         H            1.166234145373    -2.163219162005     0.121465778127     1.007825032230
         H           -3.187695854627     0.000110837995    -1.268919221873     1.007825032230

  Basis Set: AUG-CC-PVTZ
    Blend: AUG-CC-PVTZ
  Basis Set: (AUG-CC-PVTZ AUX)
    Blend: AUG-CC-PVTZ-JKFIT
	 Reference Energy          =    -233.0418791167449228 [Eh]
	 Singles Energy            =      -0.0000000000000000 [Eh]
	 Same-Spin Energy          =      -0.2503228880135627 [Eh]
	 Opposite-Spin Energy      =      -0.8898512453687805 [Eh]
	 Correlation Energy        =      -1.1401741333823432 [Eh]
	 Total Energy              =    -234.1820532501272680 [Eh]

	 ================> DF-SCS-MP2 Energies <==================
	-----------------------------------------------------------
	 SCS Same-Spin Scale       =       0.3333333333333333 [-]
	 SCS Opposite-Spin Scale   =       1.2000000000000000 [-]
	 SCS Same-Spin Energy      =      -0.0834409626711876 [Eh]
	 SCS Opposite-Spin Energy  =      -1.0678214944425366 [Eh]
	 SCS Correlation Energy    =      -1.1512624571137242 [Eh]
	 SCS Total Energy          =    -234.1931415738586395 [Eh]
	-----------------------------------------------------------

  Dipole Moment: [D]
     X:     0.6356      Y:    -0.0000      Z:     0.3300     Total:     0.7162

*** Psi4 exiting successfully. Buy a developer a beer!
