                               Psi4 1.4a3.dev225

  ==> Input File <==

--------------------------------------------------------------------------
#psi4
#
memory 32 gb

molecule  {
0 1
  C        1.0266995    -0.0292871     0.3267975
  C       -0.3376930    -0.0001380     1.0991850
  C        1.1895300     1.2600750    -0.4734900
  C        1.1896430    -1.2599310    -0.4737080
  C       -1.4806530    -0.0001100     0.1820590
  C       -2.4337550     0.0000760    -0.5817880
  H        1.7898900    -0.0000470     1.1539300
  H       -0.3990100    -0.8800950     1.7523450
  H       -0.3991040     0.8797040     1.7524870
  H        2.1752240     1.2782110    -0.9487550
  H        1.0912450     2.1632510     0.1376750
  H        0.4300030     1.2977920    -1.2600980
  H        2.1753400    -1.2779000    -0.9489720
  H        0.4301230    -1.2975720    -1.2603270
  H        1.0914300    -2.1632230     0.1372970
  H       -3.2625000     0.0001070    -1.2530880
units angstrom
no_reorient  #important for SAPT in psi4, default
symmetry c1  #important for SAPT in psi4, default
}

set PROPERTIES_ORIGIN ["COM"]
properties('MP2/aug-cc-pvtz', properties = ['dipole'])
--------------------------------------------------------------------------

    Molecular point group: c1
  Charge       = 0
  Multiplicity = 1
  Basis Set: AUG-CC-PVTZ
    Blend: AUG-CC-PVTZ
  Basis Set: (AUG-CC-PVTZ AUX)
    Blend: AUG-CC-PVTZ-JKFIT

    Orbital Energies [Eh]
    ---------------------

    Doubly Occupied:

       1A    -11.250786     2A    -11.237725     3A    -11.236830
       4A    -11.222467     5A    -11.211650     6A    -11.210351
       7A     -1.108363     8A     -1.023832     9A     -0.942227
      10A     -0.934202    11A     -0.781957    12A     -0.710403
      13A     -0.651384    14A     -0.614552    15A     -0.609488
      16A     -0.581967    17A     -0.540808    18A     -0.524467
      19A     -0.491702    20A     -0.475740    21A     -0.462454
      22A     -0.377513    23A     -0.375631

  @DF-RHF Final Energy:  -233.04621786988105

   => Energetics <=

    Nuclear Repulsion Energy =            222.9076526043455146
    One-Electron Energy =                -754.7547455120833320
    Two-Electron Energy =                 298.8008750378567129
    Total Energy =                       -233.0462178698810476
  Basis Set: (AUG-CC-PVTZ AUX)
    Blend: AUG-CC-PVTZ-RI
    Molecular point group: c1

    Geometry (in Angstrom), charge = 0, multiplicity = 1:

       Center              X                  Y                   Z               Mass
    ------------   -----------------  -----------------  -----------------  -----------------
         C            1.087519706930    -0.025003974878     0.324295144127    12.000000000000
         C           -0.276872793070     0.004145125122     1.096682644127    12.000000000000
         C            1.250350206930     1.264358125122    -0.475992355873    12.000000000000
         C            1.250463206930    -1.255647874878    -0.476210355873    12.000000000000
         C           -1.419832793070     0.004173125122     0.179556644127    12.000000000000
         C           -2.372934793070     0.004359125122    -0.584290355873    12.000000000000
         H            1.850710206930     0.004236125122     1.151427644127     1.007825032230
         H           -0.338189793070    -0.875811874878     1.749842644127     1.007825032230
         H           -0.338283793070     0.883987125122     1.749984644127     1.007825032230
         H            2.236044206930     1.282494125122    -0.951257355873     1.007825032230
         H            1.152065206930     2.167534125122     0.135172644127     1.007825032230
         H            0.490823206930     1.302075125122    -1.262600355873     1.007825032230
         H            2.236160206930    -1.273616874878    -0.951474355873     1.007825032230
         H            0.490943206930    -1.293288874878    -1.262829355873     1.007825032230
         H            1.152250206930    -2.158939874878     0.134794644127     1.007825032230
         H           -3.201679793070     0.004390125122    -1.255590355873     1.007825032230

  Basis Set: AUG-CC-PVTZ
    Blend: AUG-CC-PVTZ
  Basis Set: (AUG-CC-PVTZ AUX)
    Blend: AUG-CC-PVTZ-JKFIT
	 Reference Energy          =    -233.0462178698810476 [Eh]
	 Singles Energy            =      -0.0000000000000000 [Eh]
	 Same-Spin Energy          =      -0.2502905770544277 [Eh]
	 Opposite-Spin Energy      =      -0.8894894107123652 [Eh]
	 Correlation Energy        =      -1.1397799877667929 [Eh]
	 Total Energy              =    -234.1859978576478341 [Eh]

	 ================> DF-SCS-MP2 Energies <==================
	-----------------------------------------------------------
	 SCS Same-Spin Scale       =       0.3333333333333333 [-]
	 SCS Opposite-Spin Scale   =       1.2000000000000000 [-]
	 SCS Same-Spin Energy      =      -0.0834301923514759 [Eh]
	 SCS Opposite-Spin Energy  =      -1.0673872928548382 [Eh]
	 SCS Correlation Energy    =      -1.1508174852063142 [Eh]
	 SCS Total Energy          =    -234.1970353550873654 [Eh]
	-----------------------------------------------------------

  Dipole Moment: [D]
     X:     0.6729      Y:    -0.0219      Z:     0.3022     Total:     0.7379

*** Psi4 exiting successfully. Buy a developer a beer!
