                               Psi4 1.4a3.dev225

  ==> Input File <==

--------------------------------------------------------------------------
#psi4
#
memory 32 gb

molecule  {
0 1
  C        1.0191550    -0.0000090     0.3706600
  C       -0.3376930    -0.0001380     1.0991850
  C        1.1895300     1.2600750    -0.4734900
  C        1.1896430    -1.2599310    -0.4737080
  C       -1.4806530    -0.0001100     0.1820590
  C       -2.4337550     0.0000760    -0.5817880
  H        1.7898900    -0.0000470     1.1539300
  H       -0.3990100    -0.8800950     1.7523450
  H       -0.3991040     0.8797040     1.7524870
  H        2.1752240     1.2782110    -0.9487550
  H        1.0912450     2.1632510     0.1376750
  H        0.4300030     1.2977920    -1.2600980
  H        2.1753400    -1.2779000    -0.9489720
  H        0.4162391    -1.2982601    -1.2747063
  H        1.0914300    -2.1632230     0.1372970
  H       -3.2625000     0.0001070    -1.2530880
units angstrom
no_reorient  #important for SAPT in psi4, default
symmetry c1  #important for SAPT in psi4, default
}

set PROPERTIES_ORIGIN ["COM"]
properties('MP2/aug-cc-pvtz', properties = ['dipole'])
--------------------------------------------------------------------------

    Molecular point group: c1
  Charge       = 0
  Multiplicity = 1
  Basis Set: AUG-CC-PVTZ
    Blend: AUG-CC-PVTZ
  Basis Set: (AUG-CC-PVTZ AUX)
    Blend: AUG-CC-PVTZ-JKFIT

    Orbital Energies [Eh]
    ---------------------

    Doubly Occupied:

       1A    -11.250367     2A    -11.237609     3A    -11.236070
       4A    -11.223267     5A    -11.213595     6A    -11.211254
       7A     -1.107595     8A     -1.021584     9A     -0.942201
      10A     -0.928962    11A     -0.786618    12A     -0.710688
      13A     -0.650999    14A     -0.615315    15A     -0.608848
      16A     -0.578786    17A     -0.536948    18A     -0.523164
      19A     -0.484422    20A     -0.473631    21A     -0.471801
      22A     -0.377814    23A     -0.377746

  @DF-RHF Final Energy:  -233.04894917308789

   => Energetics <=

    Nuclear Repulsion Energy =            222.6705344857877265
    One-Electron Energy =                -754.3003961991610140
    Two-Electron Energy =                 298.5809125402854534
    Total Energy =                       -233.0489491730878626
  Basis Set: (AUG-CC-PVTZ AUX)
    Blend: AUG-CC-PVTZ-RI
    Molecular point group: c1

    Geometry (in Angstrom), charge = 0, multiplicity = 1:

       Center              X                  Y                   Z               Mass
    ------------   -----------------  -----------------  -----------------  -----------------
         C            1.081248705592     0.000002058963     0.361921422235    12.000000000000
         C           -0.275599294408    -0.000126941037     1.090446422235    12.000000000000
         C            1.251623705592     1.260086058963    -0.482228577765    12.000000000000
         C            1.251736705592    -1.259919941037    -0.482446577765    12.000000000000
         C           -1.418559294408    -0.000098941037     0.173320422235    12.000000000000
         C           -2.371661294408     0.000087058963    -0.590526577765    12.000000000000
         H            1.851983705592    -0.000035941037     1.145191422235     1.007825032230
         H           -0.336916294408    -0.880083941037     1.743606422235     1.007825032230
         H           -0.337010294408     0.879715058963     1.743748422235     1.007825032230
         H            2.237317705592     1.278222058963    -0.957493577765     1.007825032230
         H            1.153338705592     2.163262058963     0.128936422235     1.007825032230
         H            0.492096705592     1.297803058963    -1.268836577765     1.007825032230
         H            2.237433705592    -1.277888941037    -0.957710577765     1.007825032230
         H            0.478332805592    -1.298249041037    -1.283444877765     1.007825032230
         H            1.153523705592    -2.163211941037     0.128558422235     1.007825032230
         H           -3.200406294408     0.000118058963    -1.261826577765     1.007825032230

  Basis Set: AUG-CC-PVTZ
    Blend: AUG-CC-PVTZ
  Basis Set: (AUG-CC-PVTZ AUX)
    Blend: AUG-CC-PVTZ-JKFIT
	 Reference Energy          =    -233.0489491730878910 [Eh]
	 Singles Energy            =      -0.0000000000000000 [Eh]
	 Same-Spin Energy          =      -0.2500026966244290 [Eh]
	 Opposite-Spin Energy      =      -0.8893576008273885 [Eh]
	 Correlation Energy        =      -1.1393602974518173 [Eh]
	 Total Energy              =    -234.1883094705397070 [Eh]

	 ================> DF-SCS-MP2 Energies <==================
	-----------------------------------------------------------
	 SCS Same-Spin Scale       =       0.3333333333333333 [-]
	 SCS Opposite-Spin Scale   =       1.2000000000000000 [-]
	 SCS Same-Spin Energy      =      -0.0833342322081430 [Eh]
	 SCS Opposite-Spin Energy  =      -1.0672291209928662 [Eh]
	 SCS Correlation Energy    =      -1.1505633532010091 [Eh]
	 SCS Total Energy          =    -234.1995125262889133 [Eh]
	-----------------------------------------------------------

  Dipole Moment: [D]
     X:     0.6535      Y:     0.0027      Z:     0.3270     Total:     0.7307

*** Psi4 exiting successfully. Buy a developer a beer!
