                               Psi4 1.4a3.dev225

  ==> Input File <==

--------------------------------------------------------------------------
#psi4
#
memory 32 gb

molecule  {
0 1
  C        1.1176083    -0.0283665     0.3414789
  C       -0.3376930    -0.0001380     1.0991850
  C        1.1895300     1.2600750    -0.4734900
  C        1.1896430    -1.2599310    -0.4737080
  C       -1.4806530    -0.0001100     0.1820590
  C       -2.4337550     0.0000760    -0.5817880
  H        1.7898900    -0.0000470     1.1539300
  H       -0.3990100    -0.8800950     1.7523450
  H       -0.3991040     0.8797040     1.7524870
  H        2.1752240     1.2782110    -0.9487550
  H        1.0912450     2.1632510     0.1376750
  H        0.4300030     1.2977920    -1.2600980
  H        2.1753400    -1.2779000    -0.9489720
  H        0.4301230    -1.2975720    -1.2603270
  H        1.0914300    -2.1632230     0.1372970
  H       -3.2625000     0.0001070    -1.2530880
units angstrom
no_reorient  #important for SAPT in psi4, default
symmetry c1  #important for SAPT in psi4, default
}

set PROPERTIES_ORIGIN ["COM"]
properties('MP2/aug-cc-pvtz', properties = ['dipole'])
--------------------------------------------------------------------------

    Molecular point group: c1
  Charge       = 0
  Multiplicity = 1
  Basis Set: AUG-CC-PVTZ
    Blend: AUG-CC-PVTZ
  Basis Set: (AUG-CC-PVTZ AUX)
    Blend: AUG-CC-PVTZ-JKFIT

    Orbital Energies [Eh]
    ---------------------

    Doubly Occupied:

       1A    -11.249629     2A    -11.237168     3A    -11.236596
       4A    -11.221372     5A    -11.212247     6A    -11.211011
       7A     -1.101454     8A     -1.024366     9A     -0.937493
      10A     -0.933572    11A     -0.791676    12A     -0.709429
      13A     -0.646989    14A     -0.609380    15A     -0.606452
      16A     -0.584191    17A     -0.546345    18A     -0.522874
      19A     -0.495968    20A     -0.481092    21A     -0.457378
      22A     -0.376314    23A     -0.369882

  @DF-RHF Final Energy:  -233.03986013248465

   => Energetics <=

    Nuclear Repulsion Energy =            222.0672332830673668
    One-Electron Energy =                -753.0884380452708911
    Two-Electron Energy =                 297.9813446297188761
    Total Energy =                       -233.0398601324846481
  Basis Set: (AUG-CC-PVTZ AUX)
    Blend: AUG-CC-PVTZ-RI
    Molecular point group: c1

    Geometry (in Angstrom), charge = 0, multiplicity = 1:

       Center              X                  Y                   Z               Mass
    ------------   -----------------  -----------------  -----------------  -----------------
         C            1.165137463375    -0.024217968391     0.336830094862    12.000000000000
         C           -0.290163836625     0.004010531609     1.094536194862    12.000000000000
         C            1.237059163375     1.264223531609    -0.478138805138    12.000000000000
         C            1.237172163375    -1.255782468391    -0.478356805138    12.000000000000
         C           -1.433123836625     0.004038531609     0.177410194862    12.000000000000
         C           -2.386225836625     0.004224531609    -0.586436805138    12.000000000000
         H            1.837419163375     0.004101531609     1.149281194862     1.007825032230
         H           -0.351480836625    -0.875946468391     1.747696194862     1.007825032230
         H           -0.351574836625     0.883852531609     1.747838194862     1.007825032230
         H            2.222753163375     1.282359531609    -0.953403805138     1.007825032230
         H            1.138774163375     2.167399531609     0.133026194862     1.007825032230
         H            0.477532163375     1.301940531609    -1.264746805138     1.007825032230
         H            2.222869163375    -1.273751468391    -0.953620805138     1.007825032230
         H            0.477652163375    -1.293423468391    -1.264975805138     1.007825032230
         H            1.138959163375    -2.159074468391     0.132648194862     1.007825032230
         H           -3.214970836625     0.004255531609    -1.257736805138     1.007825032230

  Basis Set: AUG-CC-PVTZ
    Blend: AUG-CC-PVTZ
  Basis Set: (AUG-CC-PVTZ AUX)
    Blend: AUG-CC-PVTZ-JKFIT
	 Reference Energy          =    -233.0398601324846481 [Eh]
	 Singles Energy            =      -0.0000000000000000 [Eh]
	 Same-Spin Energy          =      -0.2502752343406471 [Eh]
	 Opposite-Spin Energy      =      -0.8895795001647796 [Eh]
	 Correlation Energy        =      -1.1398547345054266 [Eh]
	 Total Energy              =    -234.1797148669900821 [Eh]

	 ================> DF-SCS-MP2 Energies <==================
	-----------------------------------------------------------
	 SCS Same-Spin Scale       =       0.3333333333333333 [-]
	 SCS Opposite-Spin Scale   =       1.2000000000000000 [-]
	 SCS Same-Spin Energy      =      -0.0834250781135490 [Eh]
	 SCS Opposite-Spin Energy  =      -1.0674954001977355 [Eh]
	 SCS Correlation Energy    =      -1.1509204783112845 [Eh]
	 SCS Total Energy          =    -234.1907806107959402 [Eh]
	-----------------------------------------------------------

  Dipole Moment: [D]
     X:     0.7598      Y:    -0.0224      Z:     0.3002     Total:     0.8173

*** Psi4 exiting successfully. Buy a developer a beer!
