                               Psi4 1.3.2 release

  ==> Input File <==

--------------------------------------------------------------------------
#psi4
#
memory 32 gb

molecule  {
0 1
  O        1.4499930     1.0206980    -0.0000040
  O       -1.2728880     1.6029860     0.0000050
  N       -1.7320990    -0.6616920    -0.0000100
  N        1.0253160    -1.1826400     0.0000030
  C        0.5211730     0.0320620    -0.0000010
  C       -0.9157640     0.4229260    -0.0000010
  C       -3.1757780    -0.5360000     0.0000030
  C        2.6470610     0.3608020    -0.0000010
  C        2.3925880    -0.9806700     0.0000040
  H       -1.2896900    -1.5740920    -0.0000030
  H       -3.6075680    -0.9997290     0.8912900
  H       -3.6075830    -0.9997540    -0.8912630
  H       -3.4076560     0.5288570    -0.0000100
  H        3.6988563     1.0880958    -0.0000034
  H        3.0931030    -1.8035030     0.0000080
units angstrom
no_reorient  #important for SAPT in psi4, default
symmetry c1  #important for SAPT in psi4, default
}

set PROPERTIES_ORIGIN ["COM"]
properties('MP2/aug-cc-pvtz', properties = ['dipole'])
--------------------------------------------------------------------------

    Molecular point group: c1
  Charge       = 0
  Multiplicity = 1
  Basis Set: AUG-CC-PVTZ
    Blend: AUG-CC-PVTZ
  Basis Set: (AUG-CC-PVTZ AUX)
    Blend: AUG-CC-PVTZ-JKFIT

    Orbital Energies [Eh]
    ---------------------

    Doubly Occupied:

       1A    -20.660725     2A    -20.533499     3A    -15.597400
       4A    -15.597091     5A    -11.375096     6A    -11.357931
       7A    -11.334915     8A    -11.282332     9A    -11.265987
      10A     -1.504697    11A     -1.385443    12A     -1.261737
      13A     -1.235115    14A     -1.058139    15A     -0.968872
      16A     -0.874241    17A     -0.838383    18A     -0.794180
      19A     -0.768843    20A     -0.680892    21A     -0.666513
      22A     -0.650673    23A     -0.628077    24A     -0.610901
      25A     -0.595686    26A     -0.578503    27A     -0.554216
      28A     -0.546696    29A     -0.490206    30A     -0.472308
      31A     -0.447577    32A     -0.400116    33A     -0.354820

  @DF-RHF Final Energy:  -451.58612232297457

   => Energetics <=

    Nuclear Repulsion Energy =            432.1988186432753878
    One-Electron Energy =               -1472.8262617649702406
    Two-Electron Energy =                 589.0413207987202213
    Total Energy =                       -451.5861223229745747
  Basis Set: (AUG-CC-PVTZ AUX)
    Blend: AUG-CC-PVTZ-RI
    Molecular point group: c1

    Geometry (in Angstrom), charge = 0, multiplicity = 1:

       Center              X                  Y                   Z               Mass
    ------------   -----------------  -----------------  -----------------  -----------------
         O            1.407099687881     0.989445347724    -0.000003878763    15.994914619570
         O           -1.315781312119     1.571733347724     0.000005121237    15.994914619570
         N           -1.774992312119    -0.692944652276    -0.000009878763    14.003074004430
         N            0.982422687881    -1.213892652276     0.000003121237    14.003074004430
         C            0.478279687881     0.000809347724    -0.000000878763    12.000000000000
         C           -0.958657312119     0.391673347724    -0.000000878763    12.000000000000
         C           -3.218671312119    -0.567252652276     0.000003121237    12.000000000000
         C            2.604167687881     0.329549347724    -0.000000878763    12.000000000000
         C            2.349694687881    -1.011922652276     0.000004121237    12.000000000000
         H           -1.332583312119    -1.605344652276    -0.000002878763     1.007825032230
         H           -3.650461312119    -1.030981652276     0.891290121237     1.007825032230
         H           -3.650476312119    -1.031006652276    -0.891262878763     1.007825032230
         H           -3.450549312119     0.497604347724    -0.000009878763     1.007825032230
         H            3.655962987881     1.056843147724    -0.000003278763     1.007825032230
         H            3.050209687881    -1.834755652276     0.000008121237     1.007825032230

  Basis Set: AUG-CC-PVTZ
    Blend: AUG-CC-PVTZ
  Basis Set: (AUG-CC-PVTZ AUX)
    Blend: AUG-CC-PVTZ-JKFIT
	 Reference Energy          =    -451.5861223229745747 [Eh]
	 Singles Energy            =      -0.0000000000000000 [Eh]
	 Same-Spin Energy          =      -0.4627915046124277 [Eh]
	 Opposite-Spin Energy      =      -1.3941644138485505 [Eh]
	 Correlation Energy        =      -1.8569559184609781 [Eh]
	 Total Energy              =    -453.4430782414355576 [Eh]

	 ================> DF-SCS-MP2 Energies <==================
	-----------------------------------------------------------
	 SCS Same-Spin Scale       =       0.3333333333333333 [-]
	 SCS Opposite-Spin Scale   =       1.2000000000000000 [-]
	 SCS Same-Spin Energy      =      -0.1542638348708092 [Eh]
	 SCS Opposite-Spin Energy  =      -1.6729972966182605 [Eh]
	 SCS Correlation Energy    =      -1.8272611314890697 [Eh]
	 SCS Total Energy          =    -453.4133834544636557 [Eh]
	-----------------------------------------------------------

  Dipole Moment: [D]
     X:     1.1721      Y:    -2.6556      Z:     0.0000     Total:     2.9028

*** Psi4 exiting successfully. Buy a developer a beer!
