                               Psi4 1.3.2 release

  ==> Input File <==

--------------------------------------------------------------------------
#psi4
#
memory 32 gb

molecule  {
0 1
  O        1.4499930     1.0206980    -0.0000040
  O       -1.2728880     1.6029860     0.0000050
  N       -1.7130455    -0.6757738    -0.0000101
  N        1.0253160    -1.1826400     0.0000030
  C        0.5211730     0.0320620    -0.0000010
  C       -0.9157640     0.4229260    -0.0000010
  C       -3.1757780    -0.5360000     0.0000030
  C        2.6470610     0.3608020    -0.0000010
  C        2.3925880    -0.9806700     0.0000040
  H       -1.2896900    -1.5740920    -0.0000030
  H       -3.6075680    -0.9997290     0.8912900
  H       -3.6075830    -0.9997540    -0.8912630
  H       -3.4076560     0.5288570    -0.0000100
  H        3.5343540     0.9743460    -0.0000030
  H        3.0931030    -1.8035030     0.0000080
units angstrom
no_reorient  #important for SAPT in psi4, default
symmetry c1  #important for SAPT in psi4, default
}

set PROPERTIES_ORIGIN ["COM"]
properties('MP2/aug-cc-pvtz', properties = ['dipole'])
--------------------------------------------------------------------------

    Molecular point group: c1
  Charge       = 0
  Multiplicity = 1
  Basis Set: AUG-CC-PVTZ
    Blend: AUG-CC-PVTZ
  Basis Set: (AUG-CC-PVTZ AUX)
    Blend: AUG-CC-PVTZ-JKFIT

    Orbital Energies [Eh]
    ---------------------

    Doubly Occupied:

       1A    -20.658383     2A    -20.534425     3A    -15.596548
       4A    -15.595260     5A    -11.375215     6A    -11.356263
       7A    -11.315363     8A    -11.281093     9A    -11.267801
      10A     -1.502885    11A     -1.385259    12A     -1.261158
      13A     -1.233857    14A     -1.060363    15A     -0.969440
      16A     -0.874642    17A     -0.849455    18A     -0.797290
      19A     -0.774788    20A     -0.679367    21A     -0.679352
      22A     -0.656040    23A     -0.626053    24A     -0.619175
      25A     -0.595947    26A     -0.590362    27A     -0.557511
      28A     -0.547362    29A     -0.490352    30A     -0.471004
      31A     -0.447683    32A     -0.401981    33A     -0.354010

  @DF-RHF Final Energy:  -451.60926625350669

   => Energetics <=

    Nuclear Repulsion Energy =            433.1024448296634546
    One-Electron Energy =               -1474.6120493062164769
    Two-Electron Energy =                 589.9003382230463330
    Total Energy =                       -451.6092662535066893
  Basis Set: (AUG-CC-PVTZ AUX)
    Blend: AUG-CC-PVTZ-RI
    Molecular point group: c1

    Geometry (in Angstrom), charge = 0, multiplicity = 1:

       Center              X                  Y                   Z               Mass
    ------------   -----------------  -----------------  -----------------  -----------------
         O            1.406298230499     0.991919333292    -0.000003870852    15.994914619570
         O           -1.316582769501     1.574207333292     0.000005129148    15.994914619570
         N           -1.756740269501    -0.704552466708    -0.000009970852    14.003074004430
         N            0.981621230499    -1.211418666708     0.000003129148    14.003074004430
         C            0.477478230499     0.003283333292    -0.000000870852    12.000000000000
         C           -0.959458769501     0.394147333292    -0.000000870852    12.000000000000
         C           -3.219472769501    -0.564778666708     0.000003129148    12.000000000000
         C            2.603366230499     0.332023333292    -0.000000870852    12.000000000000
         C            2.348893230499    -1.009448666708     0.000004129148    12.000000000000
         H           -1.333384769501    -1.602870666708    -0.000002870852     1.007825032230
         H           -3.651262769501    -1.028507666708     0.891290129148     1.007825032230
         H           -3.651277769501    -1.028532666708    -0.891262870852     1.007825032230
         H           -3.451350769501     0.500078333292    -0.000009870852     1.007825032230
         H            3.490659230499     0.945567333292    -0.000002870852     1.007825032230
         H            3.049408230499    -1.832281666708     0.000008129148     1.007825032230

  Basis Set: AUG-CC-PVTZ
    Blend: AUG-CC-PVTZ
  Basis Set: (AUG-CC-PVTZ AUX)
    Blend: AUG-CC-PVTZ-JKFIT
	 Reference Energy          =    -451.6092662535066893 [Eh]
	 Singles Energy            =      -0.0000000000000000 [Eh]
	 Same-Spin Energy          =      -0.4620027831777292 [Eh]
	 Opposite-Spin Energy      =      -1.3917793684973141 [Eh]
	 Correlation Energy        =      -1.8537821516750435 [Eh]
	 Total Energy              =    -453.4630484051817234 [Eh]

	 ================> DF-SCS-MP2 Energies <==================
	-----------------------------------------------------------
	 SCS Same-Spin Scale       =       0.3333333333333333 [-]
	 SCS Opposite-Spin Scale   =       1.2000000000000000 [-]
	 SCS Same-Spin Energy      =      -0.1540009277259097 [Eh]
	 SCS Opposite-Spin Energy  =      -1.6701352421967768 [Eh]
	 SCS Correlation Energy    =      -1.8241361699226866 [Eh]
	 SCS Total Energy          =    -453.4334024234293565 [Eh]
	-----------------------------------------------------------

  Dipole Moment: [D]
     X:     1.0777      Y:    -2.6748      Z:     0.0000     Total:     2.8838

*** Psi4 exiting successfully. Buy a developer a beer!
