                               Psi4 1.3.2 release

  ==> Input File <==

--------------------------------------------------------------------------
#psi4
#
memory 32 gb

molecule  {
0 1
  O        1.4499930     1.0206980    -0.0000040
  O       -1.2728880     1.6029860     0.0000050
  N       -1.6544513    -0.7159946    -0.0000102
  N        1.0253160    -1.1826400     0.0000030
  C        0.5211730     0.0320620    -0.0000010
  C       -0.9157640     0.4229260    -0.0000010
  C       -3.1757780    -0.5360000     0.0000030
  C        2.6470610     0.3608020    -0.0000010
  C        2.3925880    -0.9806700     0.0000040
  H       -1.2896900    -1.5740920    -0.0000030
  H       -3.6075680    -0.9997290     0.8912900
  H       -3.6075830    -0.9997540    -0.8912630
  H       -3.4076560     0.5288570    -0.0000100
  H        3.5343540     0.9743460    -0.0000030
  H        3.0931030    -1.8035030     0.0000080
units angstrom
no_reorient  #important for SAPT in psi4, default
symmetry c1  #important for SAPT in psi4, default
}

set PROPERTIES_ORIGIN ["COM"]
properties('MP2/aug-cc-pvtz', properties = ['dipole'])
--------------------------------------------------------------------------

    Molecular point group: c1
  Charge       = 0
  Multiplicity = 1
  Basis Set: AUG-CC-PVTZ
    Blend: AUG-CC-PVTZ
  Basis Set: (AUG-CC-PVTZ AUX)
    Blend: AUG-CC-PVTZ-JKFIT

    Orbital Energies [Eh]
    ---------------------

    Doubly Occupied:

       1A    -20.655930     2A    -20.537762     3A    -15.594257
       4A    -15.592523     5A    -11.377040     6A    -11.352733
       7A    -11.313148     8A    -11.279300     9A    -11.273551
      10A     -1.500686    11A     -1.385607    12A     -1.261698
      13A     -1.232192    14A     -1.057064    15A     -0.964934
      16A     -0.879631    17A     -0.849972    18A     -0.808793
      19A     -0.774662    20A     -0.677334    21A     -0.676570
      22A     -0.654380    23A     -0.621154    24A     -0.615436
      25A     -0.590240    26A     -0.586234    27A     -0.563375
      28A     -0.550189    29A     -0.488216    30A     -0.469237
      31A     -0.448142    32A     -0.407769    33A     -0.351916

  @DF-RHF Final Energy:  -451.59752991903417

   => Energetics <=

    Nuclear Repulsion Energy =            433.0575594343345642
    One-Electron Energy =               -1474.5268217862339952
    Two-Electron Energy =                 589.8717324328653149
    Total Energy =                       -451.5975299190341730
  Basis Set: (AUG-CC-PVTZ AUX)
    Blend: AUG-CC-PVTZ-RI
    Molecular point group: c1

    Geometry (in Angstrom), charge = 0, multiplicity = 1:

       Center              X                  Y                   Z               Mass
    ------------   -----------------  -----------------  -----------------  -----------------
         O            1.399788552126     0.996387769961    -0.000003859742    15.994914619570
         O           -1.323092447874     1.578675769961     0.000005140258    15.994914619570
         N           -1.704655747874    -0.740304830039    -0.000010059742    14.003074004430
         N            0.975111552126    -1.206950230039     0.000003140258    14.003074004430
         C            0.470968552126     0.007751769961    -0.000000859742    12.000000000000
         C           -0.965968447874     0.398615769961    -0.000000859742    12.000000000000
         C           -3.225982447874    -0.560310230039     0.000003140258    12.000000000000
         C            2.596856552126     0.336491769961    -0.000000859742    12.000000000000
         C            2.342383552126    -1.004980230039     0.000004140258    12.000000000000
         H           -1.339894447874    -1.598402230039    -0.000002859742     1.007825032230
         H           -3.657772447874    -1.024039230039     0.891290140258     1.007825032230
         H           -3.657787447874    -1.024064230039    -0.891262859742     1.007825032230
         H           -3.457860447874     0.504546769961    -0.000009859742     1.007825032230
         H            3.484149552126     0.950035769961    -0.000002859742     1.007825032230
         H            3.042898552126    -1.827813230039     0.000008140258     1.007825032230

  Basis Set: AUG-CC-PVTZ
    Blend: AUG-CC-PVTZ
  Basis Set: (AUG-CC-PVTZ AUX)
    Blend: AUG-CC-PVTZ-JKFIT
	 Reference Energy          =    -451.5975299190341730 [Eh]
	 Singles Energy            =      -0.0000000000000000 [Eh]
	 Same-Spin Energy          =      -0.4617052532889267 [Eh]
	 Opposite-Spin Energy      =      -1.3919949300277632 [Eh]
	 Correlation Energy        =      -1.8537001833166900 [Eh]
	 Total Energy              =    -453.4512301023508485 [Eh]

	 ================> DF-SCS-MP2 Energies <==================
	-----------------------------------------------------------
	 SCS Same-Spin Scale       =       0.3333333333333333 [-]
	 SCS Opposite-Spin Scale   =       1.2000000000000000 [-]
	 SCS Same-Spin Energy      =      -0.1539017510963089 [Eh]
	 SCS Opposite-Spin Energy  =      -1.6703939160333159 [Eh]
	 SCS Correlation Energy    =      -1.8242956671296247 [Eh]
	 SCS Total Energy          =    -453.4218255861637772 [Eh]
	-----------------------------------------------------------

  Dipole Moment: [D]
     X:     0.8728      Y:    -2.6055      Z:     0.0000     Total:     2.7479

*** Psi4 exiting successfully. Buy a developer a beer!
