                               Psi4 1.3.2 release

  ==> Input File <==

--------------------------------------------------------------------------
#psi4
#
memory 32 gb

molecule  {
0 1
  O        1.4499930     1.0206980    -0.0000040
  O       -1.2728880     1.6029860     0.0000050
  N       -1.7320990    -0.6616920    -0.0000100
  N        1.0253160    -1.1826400     0.0000030
  C        0.5595060    -0.0602991    -0.0000007
  C       -0.9157640     0.4229260    -0.0000010
  C       -3.1757780    -0.5360000     0.0000030
  C        2.6470610     0.3608020    -0.0000010
  C        2.3925880    -0.9806700     0.0000040
  H       -1.2896900    -1.5740920    -0.0000030
  H       -3.6075680    -0.9997290     0.8912900
  H       -3.6075830    -0.9997540    -0.8912630
  H       -3.4076560     0.5288570    -0.0000100
  H        3.5343540     0.9743460    -0.0000030
  H        3.0931030    -1.8035030     0.0000080
units angstrom
no_reorient  #important for SAPT in psi4, default
symmetry c1  #important for SAPT in psi4, default
}

set PROPERTIES_ORIGIN ["COM"]
properties('MP2/aug-cc-pvtz', properties = ['dipole'])
--------------------------------------------------------------------------

    Molecular point group: c1
  Charge       = 0
  Multiplicity = 1
  Basis Set: AUG-CC-PVTZ
    Blend: AUG-CC-PVTZ
  Basis Set: (AUG-CC-PVTZ AUX)
    Blend: AUG-CC-PVTZ-JKFIT

    Orbital Energies [Eh]
    ---------------------

    Doubly Occupied:

       1A    -20.646680     2A    -20.534686     3A    -15.597296
       4A    -15.590720     5A    -11.377246     6A    -11.351052
       7A    -11.316012     8A    -11.280200     9A    -11.265516
      10A     -1.491141    11A     -1.382857    12A     -1.293176
      13A     -1.240029    14A     -1.054544    15A     -0.969603
      16A     -0.864868    17A     -0.850250    18A     -0.791442
      19A     -0.770301    20A     -0.676557    21A     -0.674465
      22A     -0.655987    23A     -0.627200    24A     -0.625623
      25A     -0.591035    26A     -0.584662    27A     -0.554595
      28A     -0.544834    29A     -0.503648    30A     -0.490279
      31A     -0.440420    32A     -0.400090    33A     -0.359622

  @DF-RHF Final Energy:  -451.60016931832035

   => Energetics <=

    Nuclear Repulsion Energy =            433.4084477368000989
    One-Electron Energy =               -1475.2239616759964065
    Two-Electron Energy =                 590.2153446208759533
    Total Energy =                       -451.6001693183203543
  Basis Set: (AUG-CC-PVTZ AUX)
    Blend: AUG-CC-PVTZ-RI
    Molecular point group: c1

    Geometry (in Angstrom), charge = 0, multiplicity = 1:

       Center              X                  Y                   Z               Mass
    ------------   -----------------  -----------------  -----------------  -----------------
         O            1.404765511183     0.999148177710    -0.000003910523    15.994914619570
         O           -1.318115488817     1.581436177710     0.000005089477    15.994914619570
         N           -1.777326488817    -0.683241822290    -0.000009910523    14.003074004430
         N            0.980088511183    -1.204189822290     0.000003089477    14.003074004430
         C            0.514278511183    -0.081848922290    -0.000000610523    12.000000000000
         C           -0.960991488817     0.401376177710    -0.000000910523    12.000000000000
         C           -3.221005488817    -0.557549822290     0.000003089477    12.000000000000
         C            2.601833511183     0.339252177710    -0.000000910523    12.000000000000
         C            2.347360511183    -1.002219822290     0.000004089477    12.000000000000
         H           -1.334917488817    -1.595641822290    -0.000002910523     1.007825032230
         H           -3.652795488817    -1.021278822290     0.891290089477     1.007825032230
         H           -3.652810488817    -1.021303822290    -0.891262910523     1.007825032230
         H           -3.452883488817     0.507307177710    -0.000009910523     1.007825032230
         H            3.489126511183     0.952796177710    -0.000002910523     1.007825032230
         H            3.047875511183    -1.825052822290     0.000008089477     1.007825032230

  Basis Set: AUG-CC-PVTZ
    Blend: AUG-CC-PVTZ
  Basis Set: (AUG-CC-PVTZ AUX)
    Blend: AUG-CC-PVTZ-JKFIT
	 Reference Energy          =    -451.6001693183203543 [Eh]
	 Singles Energy            =      -0.0000000000000000 [Eh]
	 Same-Spin Energy          =      -0.4601544990085917 [Eh]
	 Opposite-Spin Energy      =      -1.3893332149559372 [Eh]
	 Correlation Energy        =      -1.8494877139645289 [Eh]
	 Total Energy              =    -453.4496570322849038 [Eh]

	 ================> DF-SCS-MP2 Energies <==================
	-----------------------------------------------------------
	 SCS Same-Spin Scale       =       0.3333333333333333 [-]
	 SCS Opposite-Spin Scale   =       1.2000000000000000 [-]
	 SCS Same-Spin Energy      =      -0.1533848330028639 [Eh]
	 SCS Opposite-Spin Energy  =      -1.6671998579471246 [Eh]
	 SCS Correlation Energy    =      -1.8205846909499885 [Eh]
	 SCS Total Energy          =    -453.4207540092703539 [Eh]
	-----------------------------------------------------------

  Dipole Moment: [D]
     X:     0.9338      Y:    -2.8991      Z:     0.0000     Total:     3.0458

*** Psi4 exiting successfully. Buy a developer a beer!
