                               Psi4 1.3.2 release

  ==> Input File <==

--------------------------------------------------------------------------
#psi4
#
memory 32 gb

molecule  {
0 1
  O        1.4149243     1.0525111    -0.0000041
  O       -1.2728880     1.6029860     0.0000050
  N       -1.7320990    -0.6616920    -0.0000100
  N        1.0253160    -1.1826400     0.0000030
  C        0.5211730     0.0320620    -0.0000010
  C       -0.9157640     0.4229260    -0.0000010
  C       -3.1757780    -0.5360000     0.0000030
  C        2.6470610     0.3608020    -0.0000010
  C        2.3925880    -0.9806700     0.0000040
  H       -1.2896900    -1.5740920    -0.0000030
  H       -3.6075680    -0.9997290     0.8912900
  H       -3.6075830    -0.9997540    -0.8912630
  H       -3.4076560     0.5288570    -0.0000100
  H        3.5343540     0.9743460    -0.0000030
  H        3.0931030    -1.8035030     0.0000080
units angstrom
no_reorient  #important for SAPT in psi4, default
symmetry c1  #important for SAPT in psi4, default
}

set PROPERTIES_ORIGIN ["COM"]
properties('MP2/aug-cc-pvtz', properties = ['dipole'])
--------------------------------------------------------------------------

    Molecular point group: c1
  Charge       = 0
  Multiplicity = 1
  Basis Set: AUG-CC-PVTZ
    Blend: AUG-CC-PVTZ
  Basis Set: (AUG-CC-PVTZ AUX)
    Blend: AUG-CC-PVTZ-JKFIT

    Orbital Energies [Eh]
    ---------------------

    Doubly Occupied:

       1A    -20.658303     2A    -20.533184     3A    -15.597014
       4A    -15.595967     5A    -11.373509     6A    -11.359847
       7A    -11.318260     8A    -11.286501     9A    -11.265616
      10A     -1.489742    11A     -1.384372    12A     -1.261791
      13A     -1.235009    14A     -1.058829    15A     -0.970419
      16A     -0.872835    17A     -0.846678    18A     -0.792087
      19A     -0.770812    20A     -0.673600    21A     -0.672883
      22A     -0.657279    23A     -0.626604    24A     -0.621030
      25A     -0.600022    26A     -0.591264    27A     -0.554034
      28A     -0.545081    29A     -0.491177    30A     -0.473100
      31A     -0.446849    32A     -0.399658    33A     -0.356720

  @DF-RHF Final Energy:  -451.60546994992495

   => Energetics <=

    Nuclear Repulsion Energy =            432.4786617698858890
    One-Electron Energy =               -1473.4081069274850506
    Two-Electron Energy =                 589.3239752076743798
    Total Energy =                       -451.6054699499248954
  Basis Set: (AUG-CC-PVTZ AUX)
    Blend: AUG-CC-PVTZ-RI
    Molecular point group: c1

    Geometry (in Angstrom), charge = 0, multiplicity = 1:

       Center              X                  Y                   Z               Mass
    ------------   -----------------  -----------------  -----------------  -----------------
         O            1.377796566426     1.018130878963    -0.000003969271    15.994914619570
         O           -1.310015733574     1.568605778963     0.000005130729    15.994914619570
         N           -1.769226733574    -0.696072221037    -0.000009869271    14.003074004430
         N            0.988188266426    -1.217020221037     0.000003130729    14.003074004430
         C            0.484045266426    -0.002318221037    -0.000000869271    12.000000000000
         C           -0.952891733574     0.388545778963    -0.000000869271    12.000000000000
         C           -3.212905733574    -0.570380221037     0.000003130729    12.000000000000
         C            2.609933266426     0.326421778963    -0.000000869271    12.000000000000
         C            2.355460266426    -1.015050221037     0.000004130729    12.000000000000
         H           -1.326817733574    -1.608472221037    -0.000002869271     1.007825032230
         H           -3.644695733574    -1.034109221037     0.891290130729     1.007825032230
         H           -3.644710733574    -1.034134221037    -0.891262869271     1.007825032230
         H           -3.444783733574     0.494476778963    -0.000009869271     1.007825032230
         H            3.497226266426     0.939965778963    -0.000002869271     1.007825032230
         H            3.055975266426    -1.837883221037     0.000008130729     1.007825032230

  Basis Set: AUG-CC-PVTZ
    Blend: AUG-CC-PVTZ
  Basis Set: (AUG-CC-PVTZ AUX)
    Blend: AUG-CC-PVTZ-JKFIT
	 Reference Energy          =    -451.6054699499249523 [Eh]
	 Singles Energy            =      -0.0000000000000000 [Eh]
	 Same-Spin Energy          =      -0.4623101061863196 [Eh]
	 Opposite-Spin Energy      =      -1.3935313049985341 [Eh]
	 Correlation Energy        =      -1.8558414111848536 [Eh]
	 Total Energy              =    -453.4613113611097788 [Eh]

	 ================> DF-SCS-MP2 Energies <==================
	-----------------------------------------------------------
	 SCS Same-Spin Scale       =       0.3333333333333333 [-]
	 SCS Opposite-Spin Scale   =       1.2000000000000000 [-]
	 SCS Same-Spin Energy      =      -0.1541033687287732 [Eh]
	 SCS Opposite-Spin Energy  =      -1.6722375659982409 [Eh]
	 SCS Correlation Energy    =      -1.8263409347270141 [Eh]
	 SCS Total Energy          =    -453.4318108846519522 [Eh]
	-----------------------------------------------------------

  Dipole Moment: [D]
     X:     1.2008      Y:    -2.7964      Z:     0.0000     Total:     3.0433

*** Psi4 exiting successfully. Buy a developer a beer!
