                               Psi4 1.3.2 release

  ==> Input File <==

--------------------------------------------------------------------------
#psi4
#
memory 32 gb

molecule  {
0 1
  O        1.4499930     1.0206980    -0.0000040
  O       -1.2728880     1.6029860     0.0000050
  N       -1.7320990    -0.6616920    -0.0000100
  N        1.0253160    -1.1826400     0.0000030
  C        0.5211730     0.0320620    -0.0000010
  C       -0.9157640     0.4229260    -0.0000010
  C       -3.1757780    -0.5360000     0.0000030
  C        2.4719111     0.4573552    -0.0000014
  C        2.3925880    -0.9806700     0.0000040
  H       -1.2896900    -1.5740920    -0.0000030
  H       -3.6075680    -0.9997290     0.8912900
  H       -3.6075830    -0.9997540    -0.8912630
  H       -3.4076560     0.5288570    -0.0000100
  H        3.5343540     0.9743460    -0.0000030
  H        3.0931030    -1.8035030     0.0000080
units angstrom
no_reorient  #important for SAPT in psi4, default
symmetry c1  #important for SAPT in psi4, default
}

set PROPERTIES_ORIGIN ["COM"]
properties('MP2/aug-cc-pvtz', properties = ['dipole'])
--------------------------------------------------------------------------

    Molecular point group: c1
  Charge       = 0
  Multiplicity = 1
  Basis Set: AUG-CC-PVTZ
    Blend: AUG-CC-PVTZ
  Basis Set: (AUG-CC-PVTZ AUX)
    Blend: AUG-CC-PVTZ-JKFIT

    Orbital Energies [Eh]
    ---------------------

    Doubly Occupied:

       1A    -20.691329     2A    -20.527064     3A    -15.606089
       4A    -15.591632     5A    -11.370381     6A    -11.342746
       7A    -11.335177     8A    -11.274870     9A    -11.262744
      10A     -1.608780    11A     -1.381940    12A     -1.272592
      13A     -1.233895    14A     -1.061952    15A     -0.965781
      16A     -0.896256    17A     -0.846161    18A     -0.817654
      19A     -0.777367    20A     -0.735822    21A     -0.704302
      22A     -0.651627    23A     -0.630851    24A     -0.627610
      25A     -0.593403    26A     -0.564312    27A     -0.549538
      28A     -0.548238    29A     -0.486081    30A     -0.481411
      31A     -0.442836    32A     -0.396932    33A     -0.330632

  @DF-RHF Final Energy:  -451.55813654889539

   => Energetics <=

    Nuclear Repulsion Energy =            437.0813324269348641
    One-Electron Energy =               -1482.0629248245372764
    Two-Electron Energy =                 593.4234558487071354
    Total Energy =                       -451.5581365488953907
  Basis Set: (AUG-CC-PVTZ AUX)
    Blend: AUG-CC-PVTZ-RI
    Molecular point group: c1

    Geometry (in Angstrom), charge = 0, multiplicity = 1:

       Center              X                  Y                   Z               Mass
    ------------   -----------------  -----------------  -----------------  -----------------
         O            1.425090291415     0.981162467238    -0.000003843879    15.994914619570
         O           -1.297790708585     1.563450467238     0.000005156121    15.994914619570
         N           -1.757001708585    -0.701227532762    -0.000009843879    14.003074004430
         N            1.000413291415    -1.222175532762     0.000003156121    14.003074004430
         C            0.496270291415    -0.007473532762    -0.000000843879    12.000000000000
         C           -0.940666708585     0.383390467238    -0.000000843879    12.000000000000
         C           -3.200680708585    -0.575535532762     0.000003156121    12.000000000000
         C            2.447008391415     0.417819667238    -0.000001243879    12.000000000000
         C            2.367685291415    -1.020205532762     0.000004156121    12.000000000000
         H           -1.314592708585    -1.613627532762    -0.000002843879     1.007825032230
         H           -3.632470708585    -1.039264532762     0.891290156121     1.007825032230
         H           -3.632485708585    -1.039289532762    -0.891262843879     1.007825032230
         H           -3.432558708585     0.489321467238    -0.000009843879     1.007825032230
         H            3.509451291415     0.934810467238    -0.000002843879     1.007825032230
         H            3.068200291415    -1.843038532762     0.000008156121     1.007825032230

  Basis Set: AUG-CC-PVTZ
    Blend: AUG-CC-PVTZ
  Basis Set: (AUG-CC-PVTZ AUX)
    Blend: AUG-CC-PVTZ-JKFIT
	 Reference Energy          =    -451.5581365488953907 [Eh]
	 Singles Energy            =      -0.0000000000000000 [Eh]
	 Same-Spin Energy          =      -0.4636382613354166 [Eh]
	 Opposite-Spin Energy      =      -1.3898239014085565 [Eh]
	 Correlation Energy        =      -1.8534621627439731 [Eh]
	 Total Energy              =    -453.4115987116393853 [Eh]

	 ================> DF-SCS-MP2 Energies <==================
	-----------------------------------------------------------
	 SCS Same-Spin Scale       =       0.3333333333333333 [-]
	 SCS Opposite-Spin Scale   =       1.2000000000000000 [-]
	 SCS Same-Spin Energy      =      -0.1545460871118055 [Eh]
	 SCS Opposite-Spin Energy  =      -1.6677886816902678 [Eh]
	 SCS Correlation Energy    =      -1.8223347688020735 [Eh]
	 SCS Total Energy          =    -453.3804713176974701 [Eh]
	-----------------------------------------------------------

  Dipole Moment: [D]
     X:     1.1259      Y:    -2.4418      Z:     0.0000     Total:     2.6889

*** Psi4 exiting successfully. Buy a developer a beer!
