                               Psi4 1.3.2 release

  ==> Input File <==

--------------------------------------------------------------------------
#psi4
#
memory 32 gb

molecule  {
0 1
  O        1.4499930     1.0206980    -0.0000040
  O       -1.2728880     1.6029860     0.0000050
  N       -1.7320990    -0.6616920    -0.0000100
  N        1.0253160    -1.1826400     0.0000030
  C        0.5211730     0.0320620    -0.0000010
  C       -0.9157640     0.4229260    -0.0000010
  C       -3.1757780    -0.5360000     0.0000030
  C        2.6470610     0.3608020    -0.0000010
  C        2.3925880    -0.9806700     0.0000040
  H       -1.2896900    -1.5740920    -0.0000030
  H       -3.6075680    -0.9997290     0.8912900
  H       -3.6075830    -0.9997540    -0.8912630
  H       -3.4076560     0.5288570    -0.0000100
  H        3.5343540     0.9743460    -0.0000030
  H        3.0282787    -1.7273596     0.0000076
units angstrom
no_reorient  #important for SAPT in psi4, default
symmetry c1  #important for SAPT in psi4, default
}

set PROPERTIES_ORIGIN ["COM"]
properties('MP2/aug-cc-pvtz', properties = ['dipole'])
--------------------------------------------------------------------------

    Molecular point group: c1
  Charge       = 0
  Multiplicity = 1
  Basis Set: AUG-CC-PVTZ
    Blend: AUG-CC-PVTZ
  Basis Set: (AUG-CC-PVTZ AUX)
    Blend: AUG-CC-PVTZ-JKFIT

    Orbital Energies [Eh]
    ---------------------

    Doubly Occupied:

       1A    -20.658895     2A    -20.533194     3A    -15.597101
       4A    -15.595528     5A    -11.374625     6A    -11.356987
       7A    -11.315956     8A    -11.270609     9A    -11.265790
      10A     -1.503284    11A     -1.385120    12A     -1.261123
      13A     -1.234748    14A     -1.063691    15A     -0.971498
      16A     -0.878787    17A     -0.855373    18A     -0.795681
      19A     -0.777117    20A     -0.681585    21A     -0.679732
      22A     -0.661669    23A     -0.630884    24A     -0.627765
      25A     -0.600132    26A     -0.592251    27A     -0.554235
      28A     -0.546360    29A     -0.491211    30A     -0.471295
      31A     -0.447277    32A     -0.399834    33A     -0.354648

  @DF-RHF Final Energy:  -451.60352626966670

   => Energetics <=

    Nuclear Repulsion Energy =            433.6944157817680434
    One-Electron Energy =               -1475.7279169099620049
    Two-Electron Energy =                 590.4299748585273164
    Total Energy =                       -451.6035262696667587
  Basis Set: (AUG-CC-PVTZ AUX)
    Blend: AUG-CC-PVTZ-RI
    Molecular point group: c1

    Geometry (in Angstrom), charge = 0, multiplicity = 1:

       Center              X                  Y                   Z               Mass
    ------------   -----------------  -----------------  -----------------  -----------------
         O            1.408933357511     0.989746044257    -0.000003878763    15.994914619570
         O           -1.313947642489     1.572034044257     0.000005121237    15.994914619570
         N           -1.773158642489    -0.692643955743    -0.000009878763    14.003074004430
         N            0.984256357511    -1.213591955743     0.000003121237    14.003074004430
         C            0.480113357511     0.001110044257    -0.000000878763    12.000000000000
         C           -0.956823642489     0.391974044257    -0.000000878763    12.000000000000
         C           -3.216837642489    -0.566951955743     0.000003121237    12.000000000000
         C            2.606001357511     0.329850044257    -0.000000878763    12.000000000000
         C            2.351528357511    -1.011621955743     0.000004121237    12.000000000000
         H           -1.330749642489    -1.605043955743    -0.000002878763     1.007825032230
         H           -3.648627642489    -1.030680955743     0.891290121237     1.007825032230
         H           -3.648642642489    -1.030705955743    -0.891262878763     1.007825032230
         H           -3.448715642489     0.497905044257    -0.000009878763     1.007825032230
         H            3.493294357511     0.943394044257    -0.000002878763     1.007825032230
         H            2.987219057511    -1.758311555743     0.000007721237     1.007825032230

  Basis Set: AUG-CC-PVTZ
    Blend: AUG-CC-PVTZ
  Basis Set: (AUG-CC-PVTZ AUX)
    Blend: AUG-CC-PVTZ-JKFIT
	 Reference Energy          =    -451.6035262696667019 [Eh]
	 Singles Energy            =      -0.0000000000000000 [Eh]
	 Same-Spin Energy          =      -0.4620355276791839 [Eh]
	 Opposite-Spin Energy      =      -1.3915281393382071 [Eh]
	 Correlation Energy        =      -1.8535636670173909 [Eh]
	 Total Energy              =    -453.4570899366840990 [Eh]

	 ================> DF-SCS-MP2 Energies <==================
	-----------------------------------------------------------
	 SCS Same-Spin Scale       =       0.3333333333333333 [-]
	 SCS Opposite-Spin Scale   =       1.2000000000000000 [-]
	 SCS Same-Spin Energy      =      -0.1540118425597279 [Eh]
	 SCS Opposite-Spin Energy  =      -1.6698337672058485 [Eh]
	 SCS Correlation Energy    =      -1.8238456097655764 [Eh]
	 SCS Total Energy          =    -453.4273718794322576 [Eh]
	-----------------------------------------------------------

  Dipole Moment: [D]
     X:     1.1542      Y:    -2.6758      Z:     0.0000     Total:     2.9141

*** Psi4 exiting successfully. Buy a developer a beer!
