                               Psi4 1.3.2 release

  ==> Input File <==

--------------------------------------------------------------------------
#psi4
#
memory 32 gb

molecule  {
0 1
  O        1.4839301     0.9876804    -0.0000039
  O       -1.2728880     1.6029860     0.0000050
  N       -1.7320990    -0.6616920    -0.0000100
  N        1.0253160    -1.1826400     0.0000030
  C        0.5211730     0.0320620    -0.0000010
  C       -0.9157640     0.4229260    -0.0000010
  C       -3.1757780    -0.5360000     0.0000030
  C        2.6470610     0.3608020    -0.0000010
  C        2.3925880    -0.9806700     0.0000040
  H       -1.2896900    -1.5740920    -0.0000030
  H       -3.6075680    -0.9997290     0.8912900
  H       -3.6075830    -0.9997540    -0.8912630
  H       -3.4076560     0.5288570    -0.0000100
  H        3.5343540     0.9743460    -0.0000030
  H        3.0931030    -1.8035030     0.0000080
units angstrom
no_reorient  #important for SAPT in psi4, default
symmetry c1  #important for SAPT in psi4, default
}

set PROPERTIES_ORIGIN ["COM"]
properties('MP2/aug-cc-pvtz', properties = ['dipole'])
--------------------------------------------------------------------------

    Molecular point group: c1
  Charge       = 0
  Multiplicity = 1
  Basis Set: AUG-CC-PVTZ
    Blend: AUG-CC-PVTZ
  Basis Set: (AUG-CC-PVTZ AUX)
    Blend: AUG-CC-PVTZ-JKFIT

    Orbital Energies [Eh]
    ---------------------

    Doubly Occupied:

       1A    -20.659996     2A    -20.533392     3A    -15.597395
       4A    -15.596351     5A    -11.376090     6A    -11.354962
       7A    -11.314198     8A    -11.276770     9A    -11.266089
      10A     -1.519457    11A     -1.385976    12A     -1.260970
      13A     -1.234611    14A     -1.064513    15A     -0.971862
      16A     -0.875872    17A     -0.852376    18A     -0.795349
      19A     -0.776976    20A     -0.689280    21A     -0.687713
      22A     -0.656369    23A     -0.629003    24A     -0.621104
      25A     -0.598300    26A     -0.585813    27A     -0.554514
      28A     -0.547848    29A     -0.490812    30A     -0.470354
      31A     -0.447859    32A     -0.400203    33A     -0.352385

  @DF-RHF Final Energy:  -451.61011869738235

   => Energetics <=

    Nuclear Repulsion Energy =            433.8726465940587218
    One-Electron Energy =               -1476.0760067217047435
    Two-Electron Energy =                 590.5932414302635607
    Total Energy =                       -451.6101186973824042
  Basis Set: (AUG-CC-PVTZ AUX)
    Blend: AUG-CC-PVTZ-RI
    Molecular point group: c1

    Geometry (in Angstrom), charge = 0, multiplicity = 1:

       Center              X                  Y                   Z               Mass
    ------------   -----------------  -----------------  -----------------  -----------------
         O            1.438045493655     0.961527229320    -0.000003794651    15.994914619570
         O           -1.318772606345     1.576832829320     0.000005105349    15.994914619570
         N           -1.777983606345    -0.687845170680    -0.000009894651    14.003074004430
         N            0.979431393655    -1.208793170680     0.000003105349    14.003074004430
         C            0.475288393655     0.005908829320    -0.000000894651    12.000000000000
         C           -0.961648606345     0.396772829320    -0.000000894651    12.000000000000
         C           -3.221662606345    -0.562153170680     0.000003105349    12.000000000000
         C            2.601176393655     0.334648829320    -0.000000894651    12.000000000000
         C            2.346703393655    -1.006823170680     0.000004105349    12.000000000000
         H           -1.335574606345    -1.600245170680    -0.000002894651     1.007825032230
         H           -3.653452606345    -1.025882170680     0.891290105349     1.007825032230
         H           -3.653467606345    -1.025907170680    -0.891262894651     1.007825032230
         H           -3.453540606345     0.502703829320    -0.000009894651     1.007825032230
         H            3.488469393655     0.948192829320    -0.000002894651     1.007825032230
         H            3.047218393655    -1.829656170680     0.000008105349     1.007825032230

  Basis Set: AUG-CC-PVTZ
    Blend: AUG-CC-PVTZ
  Basis Set: (AUG-CC-PVTZ AUX)
    Blend: AUG-CC-PVTZ-JKFIT
	 Reference Energy          =    -451.6101186973823474 [Eh]
	 Singles Energy            =      -0.0000000000000000 [Eh]
	 Same-Spin Energy          =      -0.4621500270073440 [Eh]
	 Opposite-Spin Energy      =      -1.3904311194694974 [Eh]
	 Correlation Energy        =      -1.8525811464768414 [Eh]
	 Total Energy              =    -453.4626998438591841 [Eh]

	 ================> DF-SCS-MP2 Energies <==================
	-----------------------------------------------------------
	 SCS Same-Spin Scale       =       0.3333333333333333 [-]
	 SCS Opposite-Spin Scale   =       1.2000000000000000 [-]
	 SCS Same-Spin Energy      =      -0.1540500090024480 [Eh]
	 SCS Opposite-Spin Energy  =      -1.6685173433633969 [Eh]
	 SCS Correlation Energy    =      -1.8225673523658448 [Eh]
	 SCS Total Energy          =    -453.4326860497482130 [Eh]
	-----------------------------------------------------------

  Dipole Moment: [D]
     X:     1.0997      Y:    -2.5826      Z:     0.0000     Total:     2.8070

*** Psi4 exiting successfully. Buy a developer a beer!
