                               Psi4 1.3.2 release

  ==> Input File <==

--------------------------------------------------------------------------
#psi4
#
memory 32 gb

molecule  {
0 1
  O        1.4499930     1.0206980    -0.0000040
  O       -1.2728880     1.6029860     0.0000050
  N       -1.7320990    -0.6616920    -0.0000100
  N        1.0191003    -1.1347999     0.0000028
  C        0.5211730     0.0320620    -0.0000010
  C       -0.9157640     0.4229260    -0.0000010
  C       -3.1757780    -0.5360000     0.0000030
  C        2.6470610     0.3608020    -0.0000010
  C        2.3925880    -0.9806700     0.0000040
  H       -1.2896900    -1.5740920    -0.0000030
  H       -3.6075680    -0.9997290     0.8912900
  H       -3.6075830    -0.9997540    -0.8912630
  H       -3.4076560     0.5288570    -0.0000100
  H        3.5343540     0.9743460    -0.0000030
  H        3.0931030    -1.8035030     0.0000080
units angstrom
no_reorient  #important for SAPT in psi4, default
symmetry c1  #important for SAPT in psi4, default
}

set PROPERTIES_ORIGIN ["COM"]
properties('MP2/aug-cc-pvtz', properties = ['dipole'])
--------------------------------------------------------------------------

    Molecular point group: c1
  Charge       = 0
  Multiplicity = 1
  Basis Set: AUG-CC-PVTZ
    Blend: AUG-CC-PVTZ
  Basis Set: (AUG-CC-PVTZ AUX)
    Blend: AUG-CC-PVTZ-JKFIT

    Orbital Energies [Eh]
    ---------------------

    Doubly Occupied:

       1A    -20.652737     2A    -20.532643     3A    -15.596695
       4A    -15.588307     5A    -11.373629     6A    -11.349160
       7A    -11.316548     8A    -11.281150     9A    -11.265545
      10A     -1.503541    11A     -1.384494    12A     -1.268885
      13A     -1.236331    14A     -1.063944    15A     -0.971017
      16A     -0.872322    17A     -0.852765    18A     -0.791859
      19A     -0.773735    20A     -0.681688    21A     -0.681349
      22A     -0.657646    23A     -0.627412    24A     -0.625850
      25A     -0.597777    26A     -0.588615    27A     -0.553943
      28A     -0.545951    29A     -0.487128    30A     -0.474918
      31A     -0.445283    32A     -0.399359    33A     -0.358347

  @DF-RHF Final Energy:  -451.61232058499218

   => Energetics <=

    Nuclear Repulsion Energy =            434.4408153666564090
    One-Electron Energy =               -1477.3051256930107229
    Two-Electron Energy =                 591.2519897413621948
    Total Energy =                       -451.6123205849921760
  Basis Set: (AUG-CC-PVTZ AUX)
    Blend: AUG-CC-PVTZ-RI
    Molecular point group: c1

    Geometry (in Angstrom), charge = 0, multiplicity = 1:

       Center              X                  Y                   Z               Mass
    ------------   -----------------  -----------------  -----------------  -----------------
         O            1.409105579430     0.985039955244    -0.000003859742    15.994914619570
         O           -1.313775420570     1.567327955244     0.000005140258    15.994914619570
         N           -1.772986420570    -0.697350044756    -0.000009859742    14.003074004430
         N            0.978212879430    -1.170457944756     0.000002940258    14.003074004430
         C            0.480285579430    -0.003596044756    -0.000000859742    12.000000000000
         C           -0.956651420570     0.387267955244    -0.000000859742    12.000000000000
         C           -3.216665420570    -0.571658044756     0.000003140258    12.000000000000
         C            2.606173579430     0.325143955244    -0.000000859742    12.000000000000
         C            2.351700579430    -1.016328044756     0.000004140258    12.000000000000
         H           -1.330577420570    -1.609750044756    -0.000002859742     1.007825032230
         H           -3.648455420570    -1.035387044756     0.891290140258     1.007825032230
         H           -3.648470420570    -1.035412044756    -0.891262859742     1.007825032230
         H           -3.448543420570     0.493198955244    -0.000009859742     1.007825032230
         H            3.493466579430     0.938687955244    -0.000002859742     1.007825032230
         H            3.052215579430    -1.839161044756     0.000008140258     1.007825032230

  Basis Set: AUG-CC-PVTZ
    Blend: AUG-CC-PVTZ
  Basis Set: (AUG-CC-PVTZ AUX)
    Blend: AUG-CC-PVTZ-JKFIT
	 Reference Energy          =    -451.6123205849921760 [Eh]
	 Singles Energy            =      -0.0000000000000000 [Eh]
	 Same-Spin Energy          =      -0.4609037528152752 [Eh]
	 Opposite-Spin Energy      =      -1.3892655160516223 [Eh]
	 Correlation Energy        =      -1.8501692688668974 [Eh]
	 Total Energy              =    -453.4624898538590969 [Eh]

	 ================> DF-SCS-MP2 Energies <==================
	-----------------------------------------------------------
	 SCS Same-Spin Scale       =       0.3333333333333333 [-]
	 SCS Opposite-Spin Scale   =       1.2000000000000000 [-]
	 SCS Same-Spin Energy      =      -0.1536345842717584 [Eh]
	 SCS Opposite-Spin Energy  =      -1.6671186192619467 [Eh]
	 SCS Correlation Energy    =      -1.8207532035337051 [Eh]
	 SCS Total Energy          =    -453.4330737885258600 [Eh]
	-----------------------------------------------------------

  Dipole Moment: [D]
     X:     1.1285      Y:    -2.8040      Z:     0.0000     Total:     3.0225

*** Psi4 exiting successfully. Buy a developer a beer!
