                               Psi4 1.4a3.dev225

  ==> Input File <==

--------------------------------------------------------------------------
#psi4
#
memory 32 gb

molecule  {
0 1
  O        1.4499930     1.0206980    -0.0000040
  O       -1.2728880     1.6029860     0.0000050
  N       -1.7320990    -0.6616920    -0.0000100
  N        1.0253160    -1.1826400     0.0000030
  C        0.5211730     0.0320620    -0.0000010
  C       -0.9157640     0.4229260    -0.0000010
  C       -3.1757780    -0.5360000     0.0000030
  C        2.6470610     0.3608020    -0.0000010
  C        2.3925880    -0.9806700     0.0000040
  H       -1.2896900    -1.5740920    -0.0000030
  H       -3.6075680    -0.9997290     0.8912900
  H       -3.6075830    -0.9997540    -0.8912630
  H       -3.4076560     0.5288570    -0.0000100
  H        3.5343540     0.9743460    -0.0000030
  H        3.1060679    -1.8187317     0.0000081
units angstrom
no_reorient  #important for SAPT in psi4, default
symmetry c1  #important for SAPT in psi4, default
}

set PROPERTIES_ORIGIN ["COM"]
properties('MP2/aug-cc-pvtz', properties = ['dipole'])
--------------------------------------------------------------------------

    Molecular point group: c1
  Charge       = 0
  Multiplicity = 1
  Basis Set: AUG-CC-PVTZ
    Blend: AUG-CC-PVTZ
  Basis Set: (AUG-CC-PVTZ AUX)
    Blend: AUG-CC-PVTZ-JKFIT

    Orbital Energies [Eh]
    ---------------------

    Doubly Occupied:

       1A    -20.659291     2A    -20.533429     3A    -15.597301
       4A    -15.596337     5A    -11.374912     6A    -11.357585
       7A    -11.316179     8A    -11.283842     9A    -11.265917
      10A     -1.503720    11A     -1.385344    12A     -1.261310
      13A     -1.234834    14A     -1.061196    15A     -0.971010
      16A     -0.873410    17A     -0.848391    18A     -0.793531
      19A     -0.773389    20A     -0.680339    21A     -0.680142
      22A     -0.656158    23A     -0.627934    24A     -0.619039
      25A     -0.597185    26A     -0.590578    27A     -0.554350
      28A     -0.546557    29A     -0.490945    30A     -0.471702
      31A     -0.447479    32A     -0.400009    33A     -0.354742

  @DF-RHF Final Energy:  -451.60906563666032

   => Energetics <=

    Nuclear Repulsion Energy =            433.0366572468680033
    One-Electron Energy =               -1474.4752688171706723
    Two-Electron Energy =                 589.8295459336424074
    Total Energy =                       -451.6090656366603753
  Basis Set: (AUG-CC-PVTZ AUX)
    Blend: AUG-CC-PVTZ-RI
    Molecular point group: c1

    Geometry (in Angstrom), charge = 0, multiplicity = 1:

       Center              X                  Y                   Z               Mass
    ------------   -----------------  -----------------  -----------------  -----------------
         O            1.408311363841     0.990476645264    -0.000003882761    15.994914619570
         O           -1.314569636159     1.572764645264     0.000005117239    15.994914619570
         N           -1.773780636159    -0.691913354736    -0.000009882761    14.003074004430
         N            0.983634363841    -1.212861354736     0.000003117239    14.003074004430
         C            0.479491363841     0.001840645264    -0.000000882761    12.000000000000
         C           -0.957445636159     0.392704645264    -0.000000882761    12.000000000000
         C           -3.217459636159    -0.566221354736     0.000003117239    12.000000000000
         C            2.605379363841     0.330580645264    -0.000000882761    12.000000000000
         C            2.350906363841    -1.010891354736     0.000004117239    12.000000000000
         H           -1.331371636159    -1.604313354736    -0.000002882761     1.007825032230
         H           -3.649249636159    -1.029950354736     0.891290117239     1.007825032230
         H           -3.649264636159    -1.029975354736    -0.891262882761     1.007825032230
         H           -3.449337636159     0.498635645264    -0.000009882761     1.007825032230
         H            3.492672363841     0.944124645264    -0.000002882761     1.007825032230
         H            3.064386263841    -1.848953054736     0.000008217239     1.007825032230

  Basis Set: AUG-CC-PVTZ
    Blend: AUG-CC-PVTZ
  Basis Set: (AUG-CC-PVTZ AUX)
    Blend: AUG-CC-PVTZ-JKFIT
	 Reference Energy          =    -451.6090656366603184 [Eh]
	 Singles Energy            =      -0.0000000000000000 [Eh]
	 Same-Spin Energy          =      -0.4622314925439586 [Eh]
	 Opposite-Spin Energy      =      -1.3920561439516024 [Eh]
	 Correlation Energy        =      -1.8542876364955609 [Eh]
	 Total Energy              =    -453.4633532731558603 [Eh]

	 ================> DF-SCS-MP2 Energies <==================
	-----------------------------------------------------------
	 SCS Same-Spin Scale       =       0.3333333333333333 [-]
	 SCS Opposite-Spin Scale   =       1.2000000000000000 [-]
	 SCS Same-Spin Energy      =      -0.1540771641813195 [Eh]
	 SCS Opposite-Spin Energy  =      -1.6704673727419228 [Eh]
	 SCS Correlation Energy    =      -1.8245445369232423 [Eh]
	 SCS Total Energy          =    -453.4336101735835882 [Eh]
	-----------------------------------------------------------

  Dipole Moment: [D]
     X:     1.1450      Y:    -2.6981      Z:     0.0000     Total:     2.9310

*** Psi4 exiting successfully. Buy a developer a beer!
