                               Psi4 1.3.2 release

  ==> Input File <==

--------------------------------------------------------------------------
#psi4
#
memory 32 gb

molecule  {
0 1
  O        1.4499930     1.0206980    -0.0000040
  O       -1.2728880     1.6029860     0.0000050
  N       -1.7320990    -0.6616920    -0.0000100
  N        0.9393546    -1.2148483     0.0000032
  C        0.5211730     0.0320620    -0.0000010
  C       -0.9157640     0.4229260    -0.0000010
  C       -3.1757780    -0.5360000     0.0000030
  C        2.6470610     0.3608020    -0.0000010
  C        2.3925880    -0.9806700     0.0000040
  H       -1.2896900    -1.5740920    -0.0000030
  H       -3.6075680    -0.9997290     0.8912900
  H       -3.6075830    -0.9997540    -0.8912630
  H       -3.4076560     0.5288570    -0.0000100
  H        3.5343540     0.9743460    -0.0000030
  H        3.0931030    -1.8035030     0.0000080
units angstrom
no_reorient  #important for SAPT in psi4, default
symmetry c1  #important for SAPT in psi4, default
}

set PROPERTIES_ORIGIN ["COM"]
properties('MP2/aug-cc-pvtz', properties = ['dipole'])
--------------------------------------------------------------------------

    Molecular point group: c1
  Charge       = 0
  Multiplicity = 1
  Basis Set: AUG-CC-PVTZ
    Blend: AUG-CC-PVTZ
  Basis Set: (AUG-CC-PVTZ AUX)
    Blend: AUG-CC-PVTZ-JKFIT

    Orbital Energies [Eh]
    ---------------------

    Doubly Occupied:

       1A    -20.659230     2A    -20.532606     3A    -15.605952
       4A    -15.595253     5A    -11.372271     6A    -11.361831
       7A    -11.320097     8A    -11.289796     9A    -11.264816
      10A     -1.502292    11A     -1.384451    12A     -1.255452
      13A     -1.225328    14A     -1.060595    15A     -0.970148
      16A     -0.877305    17A     -0.844991    18A     -0.786515
      19A     -0.771656    20A     -0.679428    21A     -0.678851
      22A     -0.654138    23A     -0.626869    24A     -0.614385
      25A     -0.594429    26A     -0.588237    27A     -0.553962
      28A     -0.545962    29A     -0.501187    30A     -0.463385
      31A     -0.444998    32A     -0.398209    33A     -0.362578

  @DF-RHF Final Energy:  -451.60163434298101

   => Energetics <=

    Nuclear Repulsion Energy =            432.1180890950352023
    One-Electron Energy =               -1472.6650456801937707
    Two-Electron Energy =                 588.9453222421775536
    Total Energy =                       -451.6016343429810149
  Basis Set: (AUG-CC-PVTZ AUX)
    Blend: AUG-CC-PVTZ-RI
    Molecular point group: c1

    Geometry (in Angstrom), charge = 0, multiplicity = 1:

       Center              X                  Y                   Z               Mass
    ------------   -----------------  -----------------  -----------------  -----------------
         O            1.417965139909     0.993933144984    -0.000003904181    15.994914619570
         O           -1.304915860091     1.576221144984     0.000005095819    15.994914619570
         N           -1.764126860091    -0.688456855016    -0.000009904181    14.003074004430
         N            0.907326739909    -1.241613155016     0.000003295819    14.003074004430
         C            0.489145139909     0.005297144984    -0.000000904181    12.000000000000
         C           -0.947791860091     0.396161144984    -0.000000904181    12.000000000000
         C           -3.207805860091    -0.562764855016     0.000003095819    12.000000000000
         C            2.615033139909     0.334037144984    -0.000000904181    12.000000000000
         C            2.360560139909    -1.007434855016     0.000004095819    12.000000000000
         H           -1.321717860091    -1.600856855016    -0.000002904181     1.007825032230
         H           -3.639595860091    -1.026493855016     0.891290095819     1.007825032230
         H           -3.639610860091    -1.026518855016    -0.891262904181     1.007825032230
         H           -3.439683860091     0.502092144984    -0.000009904181     1.007825032230
         H            3.502326139909     0.947581144984    -0.000002904181     1.007825032230
         H            3.061075139909    -1.830267855016     0.000008095819     1.007825032230

  Basis Set: AUG-CC-PVTZ
    Blend: AUG-CC-PVTZ
  Basis Set: (AUG-CC-PVTZ AUX)
    Blend: AUG-CC-PVTZ-JKFIT
	 Reference Energy          =    -451.6016343429810149 [Eh]
	 Singles Energy            =      -0.0000000000000000 [Eh]
	 Same-Spin Energy          =      -0.4614460771087646 [Eh]
	 Opposite-Spin Energy      =      -1.3935031853530053 [Eh]
	 Correlation Energy        =      -1.8549492624617698 [Eh]
	 Total Energy              =    -453.4565836054428019 [Eh]

	 ================> DF-SCS-MP2 Energies <==================
	-----------------------------------------------------------
	 SCS Same-Spin Scale       =       0.3333333333333333 [-]
	 SCS Opposite-Spin Scale   =       1.2000000000000000 [-]
	 SCS Same-Spin Energy      =      -0.1538153590362548 [Eh]
	 SCS Opposite-Spin Energy  =      -1.6722038224236064 [Eh]
	 SCS Correlation Energy    =      -1.8260191814598612 [Eh]
	 SCS Total Energy          =    -453.4276535244408706 [Eh]
	-----------------------------------------------------------

  Dipole Moment: [D]
     X:     1.2604      Y:    -2.6288      Z:     0.0000     Total:     2.9153

*** Psi4 exiting successfully. Buy a developer a beer!
