                               Psi4 1.3.2 release

  ==> Input File <==

--------------------------------------------------------------------------
#psi4
#
memory 32 gb

molecule  {
0 1
  O        1.3875727     0.8919553    -0.0000035
  O       -1.2728880     1.6029860     0.0000050
  N       -1.7320990    -0.6616920    -0.0000100
  N        1.0253160    -1.1826400     0.0000030
  C        0.5211730     0.0320620    -0.0000010
  C       -0.9157640     0.4229260    -0.0000010
  C       -3.1757780    -0.5360000     0.0000030
  C        2.6470610     0.3608020    -0.0000010
  C        2.3925880    -0.9806700     0.0000040
  H       -1.2896900    -1.5740920    -0.0000030
  H       -3.6075680    -0.9997290     0.8912900
  H       -3.6075830    -0.9997540    -0.8912630
  H       -3.4076560     0.5288570    -0.0000100
  H        3.5343540     0.9743460    -0.0000030
  H        3.0931030    -1.8035030     0.0000080
units angstrom
no_reorient  #important for SAPT in psi4, default
symmetry c1  #important for SAPT in psi4, default
}

set PROPERTIES_ORIGIN ["COM"]
properties('MP2/aug-cc-pvtz', properties = ['dipole'])
--------------------------------------------------------------------------

    Molecular point group: c1
  Charge       = 0
  Multiplicity = 1
  Basis Set: AUG-CC-PVTZ
    Blend: AUG-CC-PVTZ
  Basis Set: (AUG-CC-PVTZ AUX)
    Blend: AUG-CC-PVTZ-JKFIT

    Orbital Energies [Eh]
    ---------------------

    Doubly Occupied:

       1A    -20.659695     2A    -20.534422     3A    -15.597001
       4A    -15.574216     5A    -11.373718     6A    -11.346175
       7A    -11.311633     8A    -11.281833     9A    -11.265538
      10A     -1.562088    11A     -1.386176    12A     -1.253054
      13A     -1.228403    14A     -1.082412    15A     -0.974305
      16A     -0.880726    17A     -0.853910    18A     -0.798235
      19A     -0.781998    20A     -0.711753    21A     -0.696927
      22A     -0.656172    23A     -0.628519    24A     -0.624590
      25A     -0.604977    26A     -0.575835    27A     -0.553586
      28A     -0.545898    29A     -0.475595    30A     -0.459754
      31A     -0.447676    32A     -0.399885    33A     -0.358641

  @DF-RHF Final Energy:  -451.59901196351097

   => Energetics <=

    Nuclear Repulsion Energy =            437.5223382877076688
    One-Electron Energy =               -1483.2720100371866465
    Two-Electron Energy =                 594.1506597859679459
    Total Energy =                       -451.5990119635109750
  Basis Set: (AUG-CC-PVTZ AUX)
    Blend: AUG-CC-PVTZ-RI
    Molecular point group: c1

    Geometry (in Angstrom), charge = 0, multiplicity = 1:

       Center              X                  Y                   Z               Mass
    ------------   -----------------  -----------------  -----------------  -----------------
         O            1.353915899032     0.877949695491    -0.000003445412    15.994914619570
         O           -1.306544800968     1.588980395491     0.000005054588    15.994914619570
         N           -1.765755800968    -0.675697604509    -0.000009945412    14.003074004430
         N            0.991659199032    -1.196645604509     0.000003054588    14.003074004430
         C            0.487516199032     0.018056395491    -0.000000945412    12.000000000000
         C           -0.949420800968     0.408920395491    -0.000000945412    12.000000000000
         C           -3.209434800968    -0.550005604509     0.000003054588    12.000000000000
         C            2.613404199032     0.346796395491    -0.000000945412    12.000000000000
         C            2.358931199032    -0.994675604509     0.000004054588    12.000000000000
         H           -1.323346800968    -1.588097604509    -0.000002945412     1.007825032230
         H           -3.641224800968    -1.013734604509     0.891290054588     1.007825032230
         H           -3.641239800968    -1.013759604509    -0.891262945412     1.007825032230
         H           -3.441312800968     0.514851395491    -0.000009945412     1.007825032230
         H            3.500697199032     0.960340395491    -0.000002945412     1.007825032230
         H            3.059446199032    -1.817508604509     0.000008054588     1.007825032230

  Basis Set: AUG-CC-PVTZ
    Blend: AUG-CC-PVTZ
  Basis Set: (AUG-CC-PVTZ AUX)
    Blend: AUG-CC-PVTZ-JKFIT
	 Reference Energy          =    -451.5990119635109750 [Eh]
	 Singles Energy            =      -0.0000000000000000 [Eh]
	 Same-Spin Energy          =      -0.4608293461428944 [Eh]
	 Opposite-Spin Energy      =      -1.3865338865116486 [Eh]
	 Correlation Energy        =      -1.8473632326545428 [Eh]
	 Total Energy              =    -453.4463751961654907 [Eh]

	 ================> DF-SCS-MP2 Energies <==================
	-----------------------------------------------------------
	 SCS Same-Spin Scale       =       0.3333333333333333 [-]
	 SCS Opposite-Spin Scale   =       1.2000000000000000 [-]
	 SCS Same-Spin Energy      =      -0.1536097820476315 [Eh]
	 SCS Opposite-Spin Energy  =      -1.6638406638139782 [Eh]
	 SCS Correlation Energy    =      -1.8174504458616096 [Eh]
	 SCS Total Energy          =    -453.4164624093725706 [Eh]
	-----------------------------------------------------------

  Dipole Moment: [D]
     X:     1.2701      Y:    -2.2972      Z:     0.0000     Total:     2.6249

*** Psi4 exiting successfully. Buy a developer a beer!
