                               Psi4 1.4a3.dev225

  ==> Input File <==

--------------------------------------------------------------------------
#psi4
#
memory 32 gb

molecule  {
0 1
  O        1.4499930     1.0206980    -0.0000040
  O       -1.2728880     1.6029860     0.0000050
  N       -1.7320990    -0.6616920    -0.0000100
  N        1.0253160    -1.1826400     0.0000030
  C        0.5211730     0.0320620    -0.0000010
  C       -0.9157640     0.4229260    -0.0000010
  C       -3.1757780    -0.5360000     0.0000030
  C        2.6470610     0.3608020    -0.0000010
  C        2.3963155    -0.9610204     0.0000039
  H       -1.2896900    -1.5740920    -0.0000030
  H       -3.6075680    -0.9997290     0.8912900
  H       -3.6075830    -0.9997540    -0.8912630
  H       -3.4076560     0.5288570    -0.0000100
  H        3.5343540     0.9743460    -0.0000030
  H        3.0931030    -1.8035030     0.0000080
units angstrom
no_reorient  #important for SAPT in psi4, default
symmetry c1  #important for SAPT in psi4, default
}

set PROPERTIES_ORIGIN ["COM"]
properties('MP2/aug-cc-pvtz', properties = ['dipole'])
--------------------------------------------------------------------------

    Molecular point group: c1
  Charge       = 0
  Multiplicity = 1
  Basis Set: AUG-CC-PVTZ
    Blend: AUG-CC-PVTZ
  Basis Set: (AUG-CC-PVTZ AUX)
    Blend: AUG-CC-PVTZ-JKFIT

    Orbital Energies [Eh]
    ---------------------

    Doubly Occupied:

       1A    -20.657468     2A    -20.533767     3A    -15.597602
       4A    -15.596067     5A    -11.375081     6A    -11.358052
       7A    -11.313070     8A    -11.279950     9A    -11.266097
      10A     -1.503560    11A     -1.385613    12A     -1.260442
      13A     -1.234457    14A     -1.064041    15A     -0.972110
      16A     -0.875351    17A     -0.847219    18A     -0.793779
      19A     -0.773852    20A     -0.680530    21A     -0.680341
      22A     -0.655826    23A     -0.628166    24A     -0.616482
      25A     -0.597101    26A     -0.592003    27A     -0.554563
      28A     -0.546785    29A     -0.492460    30A     -0.470532
      31A     -0.447625    32A     -0.400231    33A     -0.358615

  @DF-RHF Final Energy:  -451.61014202674818

   => Energetics <=

    Nuclear Repulsion Energy =            433.3671791563304510
    One-Electron Energy =               -1475.1369655511505243
    Two-Electron Energy =                 590.1596443680718949
    Total Energy =                       -451.6101420267482354
  Basis Set: (AUG-CC-PVTZ AUX)
    Blend: AUG-CC-PVTZ-RI
    Molecular point group: c1

    Geometry (in Angstrom), charge = 0, multiplicity = 1:

       Center              X                  Y                   Z               Mass
    ------------   -----------------  -----------------  -----------------  -----------------
         O            1.408060150624     0.988484125174    -0.000003872441    15.994914619570
         O           -1.314820849376     1.570772125174     0.000005127559    15.994914619570
         N           -1.774031849376    -0.693905874826    -0.000009872441    14.003074004430
         N            0.983383150624    -1.214853874826     0.000003127559    14.003074004430
         C            0.479240150624    -0.000151874826    -0.000000872441    12.000000000000
         C           -0.957696849376     0.390712125174    -0.000000872441    12.000000000000
         C           -3.217710849376    -0.568213874826     0.000003127559    12.000000000000
         C            2.605128150624     0.328588125174    -0.000000872441    12.000000000000
         C            2.354382650624    -0.993234274826     0.000004027559    12.000000000000
         H           -1.331622849376    -1.606305874826    -0.000002872441     1.007825032230
         H           -3.649500849376    -1.031942874826     0.891290127559     1.007825032230
         H           -3.649515849376    -1.031967874826    -0.891262872441     1.007825032230
         H           -3.449588849376     0.496643125174    -0.000009872441     1.007825032230
         H            3.492421150624     0.942132125174    -0.000002872441     1.007825032230
         H            3.051170150624    -1.835716874826     0.000008127559     1.007825032230

  Basis Set: AUG-CC-PVTZ
    Blend: AUG-CC-PVTZ
  Basis Set: (AUG-CC-PVTZ AUX)
    Blend: AUG-CC-PVTZ-JKFIT
	 Reference Energy          =    -451.6101420267481785 [Eh]
	 Singles Energy            =      -0.0000000000000000 [Eh]
	 Same-Spin Energy          =      -0.4617840215326176 [Eh]
	 Opposite-Spin Energy      =      -1.3913691437217373 [Eh]
	 Correlation Energy        =      -1.8531531652543549 [Eh]
	 Total Energy              =    -453.4632951920025334 [Eh]

	 ================> DF-SCS-MP2 Energies <==================
	-----------------------------------------------------------
	 SCS Same-Spin Scale       =       0.3333333333333333 [-]
	 SCS Opposite-Spin Scale   =       1.2000000000000000 [-]
	 SCS Same-Spin Energy      =      -0.1539280071775392 [Eh]
	 SCS Opposite-Spin Energy  =      -1.6696429724660846 [Eh]
	 SCS Correlation Energy    =      -1.8235709796436237 [Eh]
	 SCS Total Energy          =    -453.4337130063918266 [Eh]
	-----------------------------------------------------------

  Dipole Moment: [D]
     X:     1.1235      Y:    -2.6808      Z:     0.0000     Total:     2.9067

*** Psi4 exiting successfully. Buy a developer a beer!
