                               Psi4 1.3.2 release

  ==> Input File <==

--------------------------------------------------------------------------
#psi4
#
memory 32 gb

molecule  {
0 1
  O        1.4737523     1.0620731    -0.0000041
  O       -1.2728880     1.6029860     0.0000050
  N       -1.7320990    -0.6616920    -0.0000100
  N        1.0253160    -1.1826400     0.0000030
  C        0.5211730     0.0320620    -0.0000010
  C       -0.9157640     0.4229260    -0.0000010
  C       -3.1757780    -0.5360000     0.0000030
  C        2.6470610     0.3608020    -0.0000010
  C        2.3925880    -0.9806700     0.0000040
  H       -1.2896900    -1.5740920    -0.0000030
  H       -3.6075680    -0.9997290     0.8912900
  H       -3.6075830    -0.9997540    -0.8912630
  H       -3.4076560     0.5288570    -0.0000100
  H        3.5343540     0.9743460    -0.0000030
  H        3.0931030    -1.8035030     0.0000080
units angstrom
no_reorient  #important for SAPT in psi4, default
symmetry c1  #important for SAPT in psi4, default
}

set PROPERTIES_ORIGIN ["COM"]
properties('MP2/aug-cc-pvtz', properties = ['dipole'])
--------------------------------------------------------------------------

    Molecular point group: c1
  Charge       = 0
  Multiplicity = 1
  Basis Set: AUG-CC-PVTZ
    Blend: AUG-CC-PVTZ
  Basis Set: (AUG-CC-PVTZ AUX)
    Blend: AUG-CC-PVTZ-JKFIT

    Orbital Energies [Eh]
    ---------------------

    Doubly Occupied:

       1A    -20.658619     2A    -20.533284     3A    -15.602818
       4A    -15.597546     5A    -11.375427     6A    -11.361137
       7A    -11.317605     8A    -11.281602     9A    -11.266128
      10A     -1.487794    11A     -1.385210    12A     -1.264684
      13A     -1.236313    14A     -1.056479    15A     -0.970442
      16A     -0.873307    17A     -0.846871    18A     -0.793104
      19A     -0.771178    20A     -0.676068    21A     -0.671930
      22A     -0.656914    23A     -0.627616    24A     -0.619033
      25A     -0.597045    26A     -0.592163    27A     -0.554627
      28A     -0.546960    29A     -0.495204    30A     -0.475537
      31A     -0.447452    32A     -0.400190    33A     -0.353231

  @DF-RHF Final Energy:  -451.60428457417373

   => Energetics <=

    Nuclear Repulsion Energy =            431.7659865134999109
    One-Electron Energy =               -1471.9535081719554910
    Two-Electron Energy =                 588.5832370842817909
    Total Energy =                       -451.6042845741737892
  Basis Set: (AUG-CC-PVTZ AUX)
    Blend: AUG-CC-PVTZ-RI
    Molecular point group: c1

    Geometry (in Angstrom), charge = 0, multiplicity = 1:

       Center              X                  Y                   Z               Mass
    ------------   -----------------  -----------------  -----------------  -----------------
         O            1.429159261895     1.026479456071    -0.000003969271    15.994914619570
         O           -1.317481038105     1.567392356071     0.000005130729    15.994914619570
         N           -1.776692038105    -0.697285643929    -0.000009869271    14.003074004430
         N            0.980722961895    -1.218233643929     0.000003130729    14.003074004430
         C            0.476579961895    -0.003531643929    -0.000000869271    12.000000000000
         C           -0.960357038105     0.387332356071    -0.000000869271    12.000000000000
         C           -3.220371038105    -0.571593643929     0.000003130729    12.000000000000
         C            2.602467961895     0.325208356071    -0.000000869271    12.000000000000
         C            2.347994961895    -1.016263643929     0.000004130729    12.000000000000
         H           -1.334283038105    -1.609685643929    -0.000002869271     1.007825032230
         H           -3.652161038105    -1.035322643929     0.891290130729     1.007825032230
         H           -3.652176038105    -1.035347643929    -0.891262869271     1.007825032230
         H           -3.452249038105     0.493263356071    -0.000009869271     1.007825032230
         H            3.489760961895     0.938752356071    -0.000002869271     1.007825032230
         H            3.048509961895    -1.839096643929     0.000008130729     1.007825032230

  Basis Set: AUG-CC-PVTZ
    Blend: AUG-CC-PVTZ
  Basis Set: (AUG-CC-PVTZ AUX)
    Blend: AUG-CC-PVTZ-JKFIT
	 Reference Energy          =    -451.6042845741737324 [Eh]
	 Singles Energy            =      -0.0000000000000000 [Eh]
	 Same-Spin Energy          =      -0.4627877269283330 [Eh]
	 Opposite-Spin Energy      =      -1.3940372337690368 [Eh]
	 Correlation Energy        =      -1.8568249606973697 [Eh]
	 Total Energy              =    -453.4611095348711274 [Eh]

	 ================> DF-SCS-MP2 Energies <==================
	-----------------------------------------------------------
	 SCS Same-Spin Scale       =       0.3333333333333333 [-]
	 SCS Opposite-Spin Scale   =       1.2000000000000000 [-]
	 SCS Same-Spin Energy      =      -0.1542625756427777 [Eh]
	 SCS Opposite-Spin Energy  =      -1.6728446805228441 [Eh]
	 SCS Correlation Energy    =      -1.8271072561656219 [Eh]
	 SCS Total Energy          =    -453.4313918303393507 [Eh]
	-----------------------------------------------------------

  Dipole Moment: [D]
     X:     1.0814      Y:    -2.8158      Z:     0.0000     Total:     3.0163

*** Psi4 exiting successfully. Buy a developer a beer!
