                               Psi4 1.3.2 release

  ==> Input File <==

--------------------------------------------------------------------------
#psi4
#
memory 32 gb

molecule  {
0 1
  O        1.4499930     1.0206980    -0.0000040
  O       -1.2728880     1.6029860     0.0000050
  N       -1.7320990    -0.6616920    -0.0000100
  N        1.0253160    -1.1826400     0.0000030
  C        0.5000503     0.0230785    -0.0000010
  C       -0.9157640     0.4229260    -0.0000010
  C       -3.1757780    -0.5360000     0.0000030
  C        2.6470610     0.3608020    -0.0000010
  C        2.3925880    -0.9806700     0.0000040
  H       -1.2896900    -1.5740920    -0.0000030
  H       -3.6075680    -0.9997290     0.8912900
  H       -3.6075830    -0.9997540    -0.8912630
  H       -3.4076560     0.5288570    -0.0000100
  H        3.5343540     0.9743460    -0.0000030
  H        3.0931030    -1.8035030     0.0000080
units angstrom
no_reorient  #important for SAPT in psi4, default
symmetry c1  #important for SAPT in psi4, default
}

set PROPERTIES_ORIGIN ["COM"]
properties('MP2/aug-cc-pvtz', properties = ['dipole'])
--------------------------------------------------------------------------

    Molecular point group: c1
  Charge       = 0
  Multiplicity = 1
  Basis Set: AUG-CC-PVTZ
    Blend: AUG-CC-PVTZ
  Basis Set: (AUG-CC-PVTZ AUX)
    Blend: AUG-CC-PVTZ-JKFIT

    Orbital Energies [Eh]
    ---------------------

    Doubly Occupied:

       1A    -20.656100     2A    -20.533699     3A    -15.598416
       4A    -15.597337     5A    -11.374418     6A    -11.357345
       7A    -11.317494     8A    -11.281343     9A    -11.265938
      10A     -1.494712    11A     -1.385861    12A     -1.261180
      13A     -1.234615    14A     -1.062387    15A     -0.972274
      16A     -0.876067    17A     -0.848011    18A     -0.792862
      19A     -0.772539    20A     -0.681325    21A     -0.675773
      22A     -0.657785    23A     -0.627679    24A     -0.620603
      25A     -0.599215    26A     -0.588485    27A     -0.554482
      28A     -0.547221    29A     -0.489882    30A     -0.471279
      31A     -0.448712    32A     -0.400276    33A     -0.354379

  @DF-RHF Final Energy:  -451.60746202232889

   => Energetics <=

    Nuclear Repulsion Energy =            433.0381573229912533
    One-Electron Energy =               -1474.4918471077871800
    Two-Electron Energy =                 589.8462277624669241
    Total Energy =                       -451.6074620223289457
  Basis Set: (AUG-CC-PVTZ AUX)
    Blend: AUG-CC-PVTZ-RI
    Molecular point group: c1

    Geometry (in Angstrom), charge = 0, multiplicity = 1:

       Center              X                  Y                   Z               Mass
    ------------   -----------------  -----------------  -----------------  -----------------
         O            1.410426030297     0.991210158336    -0.000003881961    15.994914619570
         O           -1.312454969703     1.573498158336     0.000005118039    15.994914619570
         N           -1.771665969703    -0.691179841664    -0.000009881961    14.003074004430
         N            0.985749030297    -1.212127841664     0.000003118039    14.003074004430
         C            0.460483330297    -0.006409341664    -0.000000881961    12.000000000000
         C           -0.955330969703     0.393438158336    -0.000000881961    12.000000000000
         C           -3.215344969703    -0.565487841664     0.000003118039    12.000000000000
         C            2.607494030297     0.331314158336    -0.000000881961    12.000000000000
         C            2.353021030297    -1.010157841664     0.000004118039    12.000000000000
         H           -1.329256969703    -1.603579841664    -0.000002881961     1.007825032230
         H           -3.647134969703    -1.029216841664     0.891290118039     1.007825032230
         H           -3.647149969703    -1.029241841664    -0.891262881961     1.007825032230
         H           -3.447222969703     0.499369158336    -0.000009881961     1.007825032230
         H            3.494787030297     0.944858158336    -0.000002881961     1.007825032230
         H            3.053536030297    -1.832990841664     0.000008118039     1.007825032230

  Basis Set: AUG-CC-PVTZ
    Blend: AUG-CC-PVTZ
  Basis Set: (AUG-CC-PVTZ AUX)
    Blend: AUG-CC-PVTZ-JKFIT
	 Reference Energy          =    -451.6074620223288889 [Eh]
	 Singles Energy            =      -0.0000000000000000 [Eh]
	 Same-Spin Energy          =      -0.4626868714116911 [Eh]
	 Opposite-Spin Energy      =      -1.3928766448923717 [Eh]
	 Correlation Energy        =      -1.8555635163040627 [Eh]
	 Total Energy              =    -453.4630255386329623 [Eh]

	 ================> DF-SCS-MP2 Energies <==================
	-----------------------------------------------------------
	 SCS Same-Spin Scale       =       0.3333333333333333 [-]
	 SCS Opposite-Spin Scale   =       1.2000000000000000 [-]
	 SCS Same-Spin Energy      =      -0.1542289571372303 [Eh]
	 SCS Opposite-Spin Energy  =      -1.6714519738708460 [Eh]
	 SCS Correlation Energy    =      -1.8256809310080764 [Eh]
	 SCS Total Energy          =    -453.4331429533369828 [Eh]
	-----------------------------------------------------------

  Dipole Moment: [D]
     X:     1.1323      Y:    -2.7276      Z:     0.0000     Total:     2.9532

*** Psi4 exiting successfully. Buy a developer a beer!
