                               Psi4 1.3.2 release

  ==> Input File <==

--------------------------------------------------------------------------
#psi4
#
memory 32 gb

molecule  {
0 1
  O        1.5166942     0.9534985    -0.0000038
  O       -1.2728880     1.6029860     0.0000050
  N       -1.7320990    -0.6616920    -0.0000100
  N        1.0253160    -1.1826400     0.0000030
  C        0.5211730     0.0320620    -0.0000010
  C       -0.9157640     0.4229260    -0.0000010
  C       -3.1757780    -0.5360000     0.0000030
  C        2.6470610     0.3608020    -0.0000010
  C        2.3925880    -0.9806700     0.0000040
  H       -1.2896900    -1.5740920    -0.0000030
  H       -3.6075680    -0.9997290     0.8912900
  H       -3.6075830    -0.9997540    -0.8912630
  H       -3.4076560     0.5288570    -0.0000100
  H        3.5343540     0.9743460    -0.0000030
  H        3.0931030    -1.8035030     0.0000080
units angstrom
no_reorient  #important for SAPT in psi4, default
symmetry c1  #important for SAPT in psi4, default
}

set PROPERTIES_ORIGIN ["COM"]
properties('MP2/aug-cc-pvtz', properties = ['dipole'])
--------------------------------------------------------------------------

    Molecular point group: c1
  Charge       = 0
  Multiplicity = 1
  Basis Set: AUG-CC-PVTZ
    Blend: AUG-CC-PVTZ
  Basis Set: (AUG-CC-PVTZ AUX)
    Blend: AUG-CC-PVTZ-JKFIT

    Orbital Energies [Eh]
    ---------------------

    Doubly Occupied:

       1A    -20.660706     2A    -20.533218     3A    -15.597417
       4A    -15.596471     5A    -11.377212     6A    -11.352345
       7A    -11.312564     8A    -11.271745     9A    -11.266209
      10A     -1.537334    11A     -1.386427    12A     -1.260971
      13A     -1.234501    14A     -1.067821    15A     -0.972841
      16A     -0.878982    17A     -0.854882    18A     -0.796759
      19A     -0.779731    20A     -0.698865    21A     -0.696715
      22A     -0.655889    23A     -0.629912    24A     -0.621094
      25A     -0.598786    26A     -0.578358    27A     -0.554604
      28A     -0.549069    29A     -0.490601    30A     -0.469365
      31A     -0.448113    32A     -0.400352    33A     -0.349742

  @DF-RHF Final Energy:  -451.60573017512684

   => Energetics <=

    Nuclear Repulsion Energy =            434.6796537724698624
    One-Electron Energy =               -1477.6115654738275680
    Two-Electron Energy =                 591.3261815262308119
    Total Energy =                       -451.6057301751268369
  Basis Set: (AUG-CC-PVTZ AUX)
    Blend: AUG-CC-PVTZ-RI
    Molecular point group: c1

    Geometry (in Angstrom), charge = 0, multiplicity = 1:

       Center              X                  Y                   Z               Mass
    ------------   -----------------  -----------------  -----------------  -----------------
         O            1.466651811916     0.931683030635    -0.000003707342    15.994914619570
         O           -1.322930388084     1.581170530635     0.000005092658    15.994914619570
         N           -1.782141388084    -0.683507469365    -0.000009907342    14.003074004430
         N            0.975273611916    -1.204455469365     0.000003092658    14.003074004430
         C            0.471130611916     0.010246530635    -0.000000907342    12.000000000000
         C           -0.965806388084     0.401110530635    -0.000000907342    12.000000000000
         C           -3.225820388084    -0.557815469365     0.000003092658    12.000000000000
         C            2.597018611916     0.338986530635    -0.000000907342    12.000000000000
         C            2.342545611916    -1.002485469365     0.000004092658    12.000000000000
         H           -1.339732388084    -1.595907469365    -0.000002907342     1.007825032230
         H           -3.657610388084    -1.021544469365     0.891290092658     1.007825032230
         H           -3.657625388084    -1.021569469365    -0.891262907342     1.007825032230
         H           -3.457698388084     0.507041530635    -0.000009907342     1.007825032230
         H            3.484311611916     0.952530530635    -0.000002907342     1.007825032230
         H            3.043060611916    -1.825318469365     0.000008092658     1.007825032230

  Basis Set: AUG-CC-PVTZ
    Blend: AUG-CC-PVTZ
  Basis Set: (AUG-CC-PVTZ AUX)
    Blend: AUG-CC-PVTZ-JKFIT
	 Reference Energy          =    -451.6057301751268369 [Eh]
	 Singles Energy            =      -0.0000000000000000 [Eh]
	 Same-Spin Energy          =      -0.4621760446642926 [Eh]
	 Opposite-Spin Energy      =      -1.3890561310145024 [Eh]
	 Correlation Energy        =      -1.8512321756787951 [Eh]
	 Total Energy              =    -453.4569623508056111 [Eh]

	 ================> DF-SCS-MP2 Energies <==================
	-----------------------------------------------------------
	 SCS Same-Spin Scale       =       0.3333333333333333 [-]
	 SCS Opposite-Spin Scale   =       1.2000000000000000 [-]
	 SCS Same-Spin Energy      =      -0.1540586815547642 [Eh]
	 SCS Opposite-Spin Energy  =      -1.6668673572174029 [Eh]
	 SCS Correlation Energy    =      -1.8209260387721671 [Eh]
	 SCS Total Energy          =    -453.4266562138989798 [Eh]
	-----------------------------------------------------------

  Dipole Moment: [D]
     X:     1.0583      Y:    -2.4582      Z:     0.0000     Total:     2.6764

*** Psi4 exiting successfully. Buy a developer a beer!
