                               Psi4 1.3.2 release

  ==> Input File <==

--------------------------------------------------------------------------
#psi4
#
memory 32 gb

molecule  {
0 1
  O        1.5255286     1.1422107    -0.0000044
  O       -1.2728880     1.6029860     0.0000050
  N       -1.7320990    -0.6616920    -0.0000100
  N        1.0253160    -1.1826400     0.0000030
  C        0.5211730     0.0320620    -0.0000010
  C       -0.9157640     0.4229260    -0.0000010
  C       -3.1757780    -0.5360000     0.0000030
  C        2.6470610     0.3608020    -0.0000010
  C        2.3925880    -0.9806700     0.0000040
  H       -1.2896900    -1.5740920    -0.0000030
  H       -3.6075680    -0.9997290     0.8912900
  H       -3.6075830    -0.9997540    -0.8912630
  H       -3.4076560     0.5288570    -0.0000100
  H        3.5343540     0.9743460    -0.0000030
  H        3.0931030    -1.8035030     0.0000080
units angstrom
no_reorient  #important for SAPT in psi4, default
symmetry c1  #important for SAPT in psi4, default
}

set PROPERTIES_ORIGIN ["COM"]
properties('MP2/aug-cc-pvtz', properties = ['dipole'])
--------------------------------------------------------------------------

    Molecular point group: c1
  Charge       = 0
  Multiplicity = 1
  Basis Set: AUG-CC-PVTZ
    Blend: AUG-CC-PVTZ
  Basis Set: (AUG-CC-PVTZ AUX)
    Blend: AUG-CC-PVTZ-JKFIT

    Orbital Energies [Eh]
    ---------------------

    Doubly Occupied:

       1A    -20.656745     2A    -20.533456     3A    -15.615088
       4A    -15.598458     5A    -11.376983     6A    -11.368193
       7A    -11.320481     8A    -11.281372     9A    -11.266810
      10A     -1.461035    11A     -1.385338    12A     -1.271918
      13A     -1.238839    14A     -1.048996    15A     -0.969855
      16A     -0.874412    17A     -0.840435    18A     -0.792102
      19A     -0.766161    20A     -0.671096    21A     -0.659028
      22A     -0.656118    23A     -0.626657    24A     -0.614678
      25A     -0.603392    26A     -0.580795    27A     -0.555367
      28A     -0.548177    29A     -0.502434    30A     -0.482943
      31A     -0.447753    32A     -0.400901    33A     -0.350340

  @DF-RHF Final Energy:  -451.58507382129926

   => Energetics <=

    Nuclear Repulsion Energy =            429.1462550003546994
    One-Electron Energy =               -1466.7299475822962904
    Two-Electron Energy =                 585.9986187606424437
    Total Energy =                       -451.5850738212992610
  Basis Set: (AUG-CC-PVTZ AUX)
    Blend: AUG-CC-PVTZ-RI
    Molecular point group: c1

    Geometry (in Angstrom), charge = 0, multiplicity = 1:

       Center              X                  Y                   Z               Mass
    ------------   -----------------  -----------------  -----------------  -----------------
         O            1.474365121851     1.096447551952    -0.000004231201    15.994914619570
         O           -1.324051478149     1.557222851952     0.000005168799    15.994914619570
         N           -1.783262478149    -0.707455148048    -0.000009831201    14.003074004430
         N            0.974152521851    -1.228403148048     0.000003168799    14.003074004430
         C            0.470009521851    -0.013701148048    -0.000000831201    12.000000000000
         C           -0.966927478149     0.377162851952    -0.000000831201    12.000000000000
         C           -3.226941478149    -0.581763148048     0.000003168799    12.000000000000
         C            2.595897521851     0.315038851952    -0.000000831201    12.000000000000
         C            2.341424521851    -1.026433148048     0.000004168799    12.000000000000
         H           -1.340853478149    -1.619855148048    -0.000002831201     1.007825032230
         H           -3.658731478149    -1.045492148048     0.891290168799     1.007825032230
         H           -3.658746478149    -1.045517148048    -0.891262831201     1.007825032230
         H           -3.458819478149     0.483093851952    -0.000009831201     1.007825032230
         H            3.483190521851     0.928582851952    -0.000002831201     1.007825032230
         H            3.041939521851    -1.849266148048     0.000008168799     1.007825032230

  Basis Set: AUG-CC-PVTZ
    Blend: AUG-CC-PVTZ
  Basis Set: (AUG-CC-PVTZ AUX)
    Blend: AUG-CC-PVTZ-JKFIT
	 Reference Energy          =    -451.5850738212992610 [Eh]
	 Singles Energy            =      -0.0000000000000000 [Eh]
	 Same-Spin Energy          =      -0.4642409490975523 [Eh]
	 Opposite-Spin Energy      =      -1.3987416744447232 [Eh]
	 Correlation Energy        =      -1.8629826235422755 [Eh]
	 Total Energy              =    -453.4480564448415407 [Eh]

	 ================> DF-SCS-MP2 Energies <==================
	-----------------------------------------------------------
	 SCS Same-Spin Scale       =       0.3333333333333333 [-]
	 SCS Opposite-Spin Scale   =       1.2000000000000000 [-]
	 SCS Same-Spin Energy      =      -0.1547469830325174 [Eh]
	 SCS Opposite-Spin Energy  =      -1.6784900093336679 [Eh]
	 SCS Correlation Energy    =      -1.8332369923661853 [Eh]
	 SCS Total Energy          =    -453.4183108136654710 [Eh]
	-----------------------------------------------------------

  Dipole Moment: [D]
     X:     0.9166      Y:    -3.0443      Z:     0.0000     Total:     3.1793

*** Psi4 exiting successfully. Buy a developer a beer!
