                               Psi4 1.3.2 release

  ==> Input File <==

--------------------------------------------------------------------------
#psi4
#
memory 32 gb

molecule  {
0 1
  O        1.4499930     1.0206980    -0.0000040
  O       -1.2728880     1.6029860     0.0000050
  N       -1.7320990    -0.6616920    -0.0000100
  N        1.0253160    -1.1826400     0.0000030
  C        0.5923993    -0.0303209    -0.0000007
  C       -0.9157640     0.4229260    -0.0000010
  C       -3.1757780    -0.5360000     0.0000030
  C        2.6470610     0.3608020    -0.0000010
  C        2.3925880    -0.9806700     0.0000040
  H       -1.2896900    -1.5740920    -0.0000030
  H       -3.6075680    -0.9997290     0.8912900
  H       -3.6075830    -0.9997540    -0.8912630
  H       -3.4076560     0.5288570    -0.0000100
  H        3.5343540     0.9743460    -0.0000030
  H        3.0931030    -1.8035030     0.0000080
units angstrom
no_reorient  #important for SAPT in psi4, default
symmetry c1  #important for SAPT in psi4, default
}

set PROPERTIES_ORIGIN ["COM"]
properties('MP2/aug-cc-pvtz', properties = ['dipole'])
--------------------------------------------------------------------------

    Molecular point group: c1
  Charge       = 0
  Multiplicity = 1
  Basis Set: AUG-CC-PVTZ
    Blend: AUG-CC-PVTZ
  Basis Set: (AUG-CC-PVTZ AUX)
    Blend: AUG-CC-PVTZ-JKFIT

    Orbital Energies [Eh]
    ---------------------

    Doubly Occupied:

       1A    -20.654804     2A    -20.533101     3A    -15.596448
       4A    -15.588881     5A    -11.376008     6A    -11.352516
       7A    -11.314639     8A    -11.281769     9A    -11.265066
      10A     -1.508690    11A     -1.381547    12A     -1.290242
      13A     -1.238297    14A     -1.054659    15A     -0.967315
      16A     -0.867973    17A     -0.847837    18A     -0.793588
      19A     -0.773066    20A     -0.684929    21A     -0.673507
      22A     -0.654148    23A     -0.627027    24A     -0.625865
      25A     -0.595223    26A     -0.584698    27A     -0.553855
      28A     -0.543441    29A     -0.504647    30A     -0.487921
      31A     -0.438103    32A     -0.399030    33A     -0.360199

  @DF-RHF Final Energy:  -451.60306621481715

   => Energetics <=

    Nuclear Repulsion Energy =            433.5742296121421191
    One-Electron Energy =               -1475.5165136363661986
    Two-Electron Energy =                 590.3392178094070459
    Total Energy =                       -451.6030662148170904
  Basis Set: (AUG-CC-PVTZ AUX)
    Blend: AUG-CC-PVTZ-RI
    Molecular point group: c1

    Geometry (in Angstrom), charge = 0, multiplicity = 1:

       Center              X                  Y                   Z               Mass
    ------------   -----------------  -----------------  -----------------  -----------------
         O            1.401633882872     0.996294083416    -0.000003910523    15.994914619570
         O           -1.321247117128     1.578582083416     0.000005089477    15.994914619570
         N           -1.780458117128    -0.686095916584    -0.000009910523    14.003074004430
         N            0.976956882872    -1.207043916584     0.000003089477    14.003074004430
         C            0.544040182872    -0.054724816584    -0.000000610523    12.000000000000
         C           -0.964123117128     0.398522083416    -0.000000910523    12.000000000000
         C           -3.224137117128    -0.560403916584     0.000003089477    12.000000000000
         C            2.598701882872     0.336398083416    -0.000000910523    12.000000000000
         C            2.344228882872    -1.005073916584     0.000004089477    12.000000000000
         H           -1.338049117128    -1.598495916584    -0.000002910523     1.007825032230
         H           -3.655927117128    -1.024132916584     0.891290089477     1.007825032230
         H           -3.655942117128    -1.024157916584    -0.891262910523     1.007825032230
         H           -3.456015117128     0.504453083416    -0.000009910523     1.007825032230
         H            3.485994882872     0.949942083416    -0.000002910523     1.007825032230
         H            3.044743882872    -1.827906916584     0.000008089477     1.007825032230

  Basis Set: AUG-CC-PVTZ
    Blend: AUG-CC-PVTZ
  Basis Set: (AUG-CC-PVTZ AUX)
    Blend: AUG-CC-PVTZ-JKFIT
	 Reference Energy          =    -451.6030662148171473 [Eh]
	 Singles Energy            =      -0.0000000000000000 [Eh]
	 Same-Spin Energy          =      -0.4598018560988462 [Eh]
	 Opposite-Spin Energy      =      -1.3884609755413713 [Eh]
	 Correlation Energy        =      -1.8482628316402174 [Eh]
	 Total Energy              =    -453.4513290464573743 [Eh]

	 ================> DF-SCS-MP2 Energies <==================
	-----------------------------------------------------------
	 SCS Same-Spin Scale       =       0.3333333333333333 [-]
	 SCS Opposite-Spin Scale   =       1.2000000000000000 [-]
	 SCS Same-Spin Energy      =      -0.1532672853662821 [Eh]
	 SCS Opposite-Spin Energy  =      -1.6661531706496455 [Eh]
	 SCS Correlation Energy    =      -1.8194204560159275 [Eh]
	 SCS Total Energy          =    -453.4224866708330524 [Eh]
	-----------------------------------------------------------

  Dipole Moment: [D]
     X:     1.0345      Y:    -2.8071      Z:     0.0000     Total:     2.9916

*** Psi4 exiting successfully. Buy a developer a beer!
