                               Psi4 1.4a3.dev225

  ==> Input File <==

--------------------------------------------------------------------------
#psi4
#
memory 32 gb

molecule  {
0 1
  O        1.4499930     1.0206980    -0.0000040
  O       -1.2728880     1.6029860     0.0000050
  N       -1.7320990    -0.6616920    -0.0000100
  N        1.0253160    -1.1826400     0.0000030
  C        0.5211730     0.0320620    -0.0000010
  C       -0.9157640     0.4229260    -0.0000010
  C       -3.1757780    -0.5360000     0.0000030
  C        2.6908485     0.3366637    -0.0000009
  C        2.3925880    -0.9806700     0.0000040
  H       -1.2896900    -1.5740920    -0.0000030
  H       -3.6075680    -0.9997290     0.8912900
  H       -3.6075830    -0.9997540    -0.8912630
  H       -3.4076560     0.5288570    -0.0000100
  H        3.5343540     0.9743460    -0.0000030
  H        3.0931030    -1.8035030     0.0000080
units angstrom
no_reorient  #important for SAPT in psi4, default
symmetry c1  #important for SAPT in psi4, default
}

set PROPERTIES_ORIGIN ["COM"]
properties('MP2/aug-cc-pvtz', properties = ['dipole'])
--------------------------------------------------------------------------

    Molecular point group: c1
  Charge       = 0
  Multiplicity = 1
  Basis Set: AUG-CC-PVTZ
    Blend: AUG-CC-PVTZ
  Basis Set: (AUG-CC-PVTZ AUX)
    Blend: AUG-CC-PVTZ-JKFIT

    Orbital Energies [Eh]
    ---------------------

    Doubly Occupied:

       1A    -20.651740     2A    -20.534409     3A    -15.598244
       4A    -15.594210     5A    -11.375559     6A    -11.360084
       7A    -11.314010     8A    -11.283771     9A    -11.266414
      10A     -1.485738    11A     -1.385547    12A     -1.259318
      13A     -1.234235    14A     -1.062895    15A     -0.973046
      16A     -0.873199    17A     -0.847682    18A     -0.791818
      19A     -0.771164    20A     -0.678212    21A     -0.671442
      22A     -0.658731    23A     -0.627205    24A     -0.622272
      25A     -0.599003    26A     -0.586010    27A     -0.554816
      28A     -0.545993    29A     -0.490519    30A     -0.469696
      31A     -0.448116    32A     -0.400535    33A     -0.360149

  @DF-RHF Final Energy:  -451.60657792813794

   => Energetics <=

    Nuclear Repulsion Energy =            432.2719955616673246
    One-Electron Energy =               -1473.0055812601565322
    Two-Electron Energy =                 589.1270077703511561
    Total Energy =                       -451.6065779281379946
  Basis Set: (AUG-CC-PVTZ AUX)
    Blend: AUG-CC-PVTZ-RI
    Molecular point group: c1

    Geometry (in Angstrom), charge = 0, multiplicity = 1:

       Center              X                  Y                   Z               Mass
    ------------   -----------------  -----------------  -----------------  -----------------
         O            1.404246211915     0.992652981061    -0.000003891482    15.994914619570
         O           -1.318634788085     1.574940981061     0.000005108518    15.994914619570
         N           -1.777845788085    -0.689737018939    -0.000009891482    14.003074004430
         N            0.979569211915    -1.210685018939     0.000003108518    14.003074004430
         C            0.475426211915     0.004016981061    -0.000000891482    12.000000000000
         C           -0.961510788085     0.394880981061    -0.000000891482    12.000000000000
         C           -3.221524788085    -0.564045018939     0.000003108518    12.000000000000
         C            2.645101711915     0.308618681061    -0.000000791482    12.000000000000
         C            2.346841211915    -1.008715018939     0.000004108518    12.000000000000
         H           -1.335436788085    -1.602137018939    -0.000002891482     1.007825032230
         H           -3.653314788085    -1.027774018939     0.891290108518     1.007825032230
         H           -3.653329788085    -1.027799018939    -0.891262891482     1.007825032230
         H           -3.453402788085     0.500811981061    -0.000009891482     1.007825032230
         H            3.488607211915     0.946300981061    -0.000002891482     1.007825032230
         H            3.047356211915    -1.831548018939     0.000008108518     1.007825032230

  Basis Set: AUG-CC-PVTZ
    Blend: AUG-CC-PVTZ
  Basis Set: (AUG-CC-PVTZ AUX)
    Blend: AUG-CC-PVTZ-JKFIT
	 Reference Energy          =    -451.6065779281379378 [Eh]
	 Singles Energy            =      -0.0000000000000000 [Eh]
	 Same-Spin Energy          =      -0.4618956560740034 [Eh]
	 Opposite-Spin Energy      =      -1.3925664421686286 [Eh]
	 Correlation Energy        =      -1.8544620982426321 [Eh]
	 Total Energy              =    -453.4610400263805445 [Eh]

	 ================> DF-SCS-MP2 Energies <==================
	-----------------------------------------------------------
	 SCS Same-Spin Scale       =       0.3333333333333333 [-]
	 SCS Opposite-Spin Scale   =       1.2000000000000000 [-]
	 SCS Same-Spin Energy      =      -0.1539652186913344 [Eh]
	 SCS Opposite-Spin Energy  =      -1.6710797306023542 [Eh]
	 SCS Correlation Energy    =      -1.8250449492936887 [Eh]
	 SCS Total Energy          =    -453.4316228774316073 [Eh]
	-----------------------------------------------------------

  Dipole Moment: [D]
     X:     1.1580      Y:    -2.7406      Z:     0.0000     Total:     2.9752

*** Psi4 exiting successfully. Buy a developer a beer!
