                               Psi4 1.3.2 release

  ==> Input File <==

--------------------------------------------------------------------------
#psi4
#
memory 32 gb

molecule  {
0 1
  O        1.4499930     1.0206980    -0.0000040
  O       -1.2728880     1.6029860     0.0000050
  N       -1.7320990    -0.6616920    -0.0000100
  N        1.0253160    -1.1826400     0.0000030
  C        0.5211730     0.0320620    -0.0000010
  C       -0.9157640     0.4229260    -0.0000010
  C       -3.1757780    -0.5360000     0.0000030
  C        2.6236103     0.3650389    -0.0000010
  C        2.3925880    -0.9806700     0.0000040
  H       -1.2896900    -1.5740920    -0.0000030
  H       -3.6075680    -0.9997290     0.8912900
  H       -3.6075830    -0.9997540    -0.8912630
  H       -3.4076560     0.5288570    -0.0000100
  H        3.5343540     0.9743460    -0.0000030
  H        3.0931030    -1.8035030     0.0000080
units angstrom
no_reorient  #important for SAPT in psi4, default
symmetry c1  #important for SAPT in psi4, default
}

set PROPERTIES_ORIGIN ["COM"]
properties('MP2/aug-cc-pvtz', properties = ['dipole'])
--------------------------------------------------------------------------

    Molecular point group: c1
  Charge       = 0
  Multiplicity = 1
  Basis Set: AUG-CC-PVTZ
    Blend: AUG-CC-PVTZ
  Basis Set: (AUG-CC-PVTZ AUX)
    Blend: AUG-CC-PVTZ-JKFIT

    Orbital Energies [Eh]
    ---------------------

    Doubly Occupied:

       1A    -20.662419     2A    -20.532903     3A    -15.596928
       4A    -15.596756     5A    -11.374469     6A    -11.356171
       7A    -11.316900     8A    -11.279849     9A    -11.265617
      10A     -1.512957    11A     -1.385138    12A     -1.262386
      13A     -1.235055    14A     -1.061683    15A     -0.970273
      16A     -0.875610    17A     -0.849270    18A     -0.795351
      19A     -0.775031    20A     -0.684792    21A     -0.680679
      22A     -0.655779    23A     -0.628118    24A     -0.620888
      25A     -0.597040    26A     -0.592379    27A     -0.554035
      28A     -0.546760    29A     -0.490902    30A     -0.472718
      31A     -0.447096    32A     -0.399725    33A     -0.353255

  @DF-RHF Final Energy:  -451.60971463689020

   => Energetics <=

    Nuclear Repulsion Energy =            433.6721856058421167
    One-Electron Energy =               -1475.7059344225692712
    Two-Electron Energy =                 590.4240341798370082
    Total Energy =                       -451.6097146368902031
  Basis Set: (AUG-CC-PVTZ AUX)
    Blend: AUG-CC-PVTZ-RI
    Molecular point group: c1

    Geometry (in Angstrom), charge = 0, multiplicity = 1:

       Center              X                  Y                   Z               Mass
    ------------   -----------------  -----------------  -----------------  -----------------
         O            1.410647669072     0.989951501439    -0.000003881961    15.994914619570
         O           -1.312233330928     1.572239501439     0.000005118039    15.994914619570
         N           -1.771444330928    -0.692438498561    -0.000009881961    14.003074004430
         N            0.985970669072    -1.213386498561     0.000003118039    14.003074004430
         C            0.481827669072     0.001315501439    -0.000000881961    12.000000000000
         C           -0.955109330928     0.392179501439    -0.000000881961    12.000000000000
         C           -3.215123330928    -0.566746498561     0.000003118039    12.000000000000
         C            2.584264969072     0.334292401439    -0.000000881961    12.000000000000
         C            2.353242669072    -1.011416498561     0.000004118039    12.000000000000
         H           -1.329035330928    -1.604838498561    -0.000002881961     1.007825032230
         H           -3.646913330928    -1.030475498561     0.891290118039     1.007825032230
         H           -3.646928330928    -1.030500498561    -0.891262881961     1.007825032230
         H           -3.447001330928     0.498110501439    -0.000009881961     1.007825032230
         H            3.495008669072     0.943599501439    -0.000002881961     1.007825032230
         H            3.053757669072    -1.834249498561     0.000008118039     1.007825032230

  Basis Set: AUG-CC-PVTZ
    Blend: AUG-CC-PVTZ
  Basis Set: (AUG-CC-PVTZ AUX)
    Blend: AUG-CC-PVTZ-JKFIT
	 Reference Energy          =    -451.6097146368902031 [Eh]
	 Singles Energy            =      -0.0000000000000000 [Eh]
	 Same-Spin Energy          =      -0.4622491796261959 [Eh]
	 Opposite-Spin Energy      =      -1.3915041683993494 [Eh]
	 Correlation Energy        =      -1.8537533480255455 [Eh]
	 Total Energy              =    -453.4634679849157237 [Eh]

	 ================> DF-SCS-MP2 Energies <==================
	-----------------------------------------------------------
	 SCS Same-Spin Scale       =       0.3333333333333333 [-]
	 SCS Opposite-Spin Scale   =       1.2000000000000000 [-]
	 SCS Same-Spin Energy      =      -0.1540830598753986 [Eh]
	 SCS Opposite-Spin Energy  =      -1.6698050020792192 [Eh]
	 SCS Correlation Energy    =      -1.8238880619546178 [Eh]
	 SCS Total Energy          =    -453.4336026988448225 [Eh]
	-----------------------------------------------------------

  Dipole Moment: [D]
     X:     1.1398      Y:    -2.6809      Z:     0.0000     Total:     2.9131

*** Psi4 exiting successfully. Buy a developer a beer!
