                               Psi4 1.3.2 release

  ==> Input File <==

--------------------------------------------------------------------------
#psi4
#
memory 32 gb

molecule  {
0 1
  O        1.4616921     1.0414892    -0.0000041
  O       -1.2728880     1.6029860     0.0000050
  N       -1.7320990    -0.6616920    -0.0000100
  N        1.0253160    -1.1826400     0.0000030
  C        0.5211730     0.0320620    -0.0000010
  C       -0.9157640     0.4229260    -0.0000010
  C       -3.1757780    -0.5360000     0.0000030
  C        2.6470610     0.3608020    -0.0000010
  C        2.3925880    -0.9806700     0.0000040
  H       -1.2896900    -1.5740920    -0.0000030
  H       -3.6075680    -0.9997290     0.8912900
  H       -3.6075830    -0.9997540    -0.8912630
  H       -3.4076560     0.5288570    -0.0000100
  H        3.5343540     0.9743460    -0.0000030
  H        3.0931030    -1.8035030     0.0000080
units angstrom
no_reorient  #important for SAPT in psi4, default
symmetry c1  #important for SAPT in psi4, default
}

set PROPERTIES_ORIGIN ["COM"]
properties('MP2/aug-cc-pvtz', properties = ['dipole'])
--------------------------------------------------------------------------

    Molecular point group: c1
  Charge       = 0
  Multiplicity = 1
  Basis Set: AUG-CC-PVTZ
    Blend: AUG-CC-PVTZ
  Basis Set: (AUG-CC-PVTZ AUX)
    Blend: AUG-CC-PVTZ-JKFIT

    Orbital Energies [Eh]
    ---------------------

    Doubly Occupied:

       1A    -20.658941     2A    -20.533317     3A    -15.599542
       4A    -15.597390     5A    -11.375125     6A    -11.359314
       7A    -11.316860     8A    -11.281652     9A    -11.266001
      10A     -1.495495    11A     -1.385241    12A     -1.262943
      13A     -1.235587    14A     -1.058877    15A     -0.970722
      16A     -0.873498    17A     -0.848259    18A     -0.793432
      19A     -0.772583    20A     -0.678137    21A     -0.675851
      22A     -0.656897    23A     -0.627767    24A     -0.620067
      25A     -0.596664    26A     -0.592636    27A     -0.554472
      28A     -0.546724    29A     -0.493154    30A     -0.473589
      31A     -0.447435    32A     -0.400070    33A     -0.353970

  @DF-RHF Final Energy:  -451.60743012061494

   => Energetics <=

    Nuclear Repulsion Energy =            432.4473353960485724
    One-Electron Energy =               -1473.3051088487338802
    Two-Electron Energy =                 589.2503433320703152
    Total Energy =                       -451.6074301206149357
  Basis Set: (AUG-CC-PVTZ AUX)
    Blend: AUG-CC-PVTZ-RI
    Molecular point group: c1

    Geometry (in Angstrom), charge = 0, multiplicity = 1:

       Center              X                  Y                   Z               Mass
    ------------   -----------------  -----------------  -----------------  -----------------
         O            1.418629507698     1.008507663943    -0.000003969271    15.994914619570
         O           -1.315950592302     1.570004463943     0.000005130729    15.994914619570
         N           -1.775161592302    -0.694673536057    -0.000009869271    14.003074004430
         N            0.982253407698    -1.215621536057     0.000003130729    14.003074004430
         C            0.478110407698    -0.000919536057    -0.000000869271    12.000000000000
         C           -0.958826592302     0.389944463943    -0.000000869271    12.000000000000
         C           -3.218840592302    -0.568981536057     0.000003130729    12.000000000000
         C            2.603998407698     0.327820463943    -0.000000869271    12.000000000000
         C            2.349525407698    -1.013651536057     0.000004130729    12.000000000000
         H           -1.332752592302    -1.607073536057    -0.000002869271     1.007825032230
         H           -3.650630592302    -1.032710536057     0.891290130729     1.007825032230
         H           -3.650645592302    -1.032735536057    -0.891262869271     1.007825032230
         H           -3.450718592302     0.495875463943    -0.000009869271     1.007825032230
         H            3.491291407698     0.941364463943    -0.000002869271     1.007825032230
         H            3.050040407698    -1.836484536057     0.000008130729     1.007825032230

  Basis Set: AUG-CC-PVTZ
    Blend: AUG-CC-PVTZ
  Basis Set: (AUG-CC-PVTZ AUX)
    Blend: AUG-CC-PVTZ-JKFIT
	 Reference Energy          =    -451.6074301206149357 [Eh]
	 Singles Energy            =      -0.0000000000000000 [Eh]
	 Same-Spin Energy          =      -0.4624785525948704 [Eh]
	 Opposite-Spin Energy      =      -1.3929595234343242 [Eh]
	 Correlation Energy        =      -1.8554380760291944 [Eh]
	 Total Energy              =    -453.4628681966441377 [Eh]

	 ================> DF-SCS-MP2 Energies <==================
	-----------------------------------------------------------
	 SCS Same-Spin Scale       =       0.3333333333333333 [-]
	 SCS Opposite-Spin Scale   =       1.2000000000000000 [-]
	 SCS Same-Spin Energy      =      -0.1541595175316234 [Eh]
	 SCS Opposite-Spin Energy  =      -1.6715514281211890 [Eh]
	 SCS Correlation Energy    =      -1.8257109456528124 [Eh]
	 SCS Total Energy          =    -453.4331410662677513 [Eh]
	-----------------------------------------------------------

  Dipole Moment: [D]
     X:     1.1159      Y:    -2.7561      Z:     0.0000     Total:     2.9734

*** Psi4 exiting successfully. Buy a developer a beer!
