                               Psi4 1.3.2 release

  ==> Input File <==

--------------------------------------------------------------------------
#psi4
#
memory 32 gb

molecule  {
0 1
  O        1.4499930     1.0206980    -0.0000040
  O       -1.2728880     1.6029860     0.0000050
  N       -1.7320990    -0.6616920    -0.0000100
  N        1.0253160    -1.1826400     0.0000030
  C        0.5211730     0.0320620    -0.0000010
  C       -0.9157640     0.4229260    -0.0000010
  C       -3.1757780    -0.5360000     0.0000030
  C        2.8222109     0.2642488    -0.0000006
  C        2.3925880    -0.9806700     0.0000040
  H       -1.2896900    -1.5740920    -0.0000030
  H       -3.6075680    -0.9997290     0.8912900
  H       -3.6075830    -0.9997540    -0.8912630
  H       -3.4076560     0.5288570    -0.0000100
  H        3.5343540     0.9743460    -0.0000030
  H        3.0931030    -1.8035030     0.0000080
units angstrom
no_reorient  #important for SAPT in psi4, default
symmetry c1  #important for SAPT in psi4, default
}

set PROPERTIES_ORIGIN ["COM"]
properties('MP2/aug-cc-pvtz', properties = ['dipole'])
--------------------------------------------------------------------------

    Molecular point group: c1
  Charge       = 0
  Multiplicity = 1
  Basis Set: AUG-CC-PVTZ
    Blend: AUG-CC-PVTZ
  Basis Set: (AUG-CC-PVTZ AUX)
    Blend: AUG-CC-PVTZ-JKFIT

    Orbital Energies [Eh]
    ---------------------

    Doubly Occupied:

       1A    -20.628526     2A    -20.536065     3A    -15.600116
       4A    -15.589124     5A    -11.376439     6A    -11.365330
       7A    -11.314325     8A    -11.291931     9A    -11.267275
      10A     -1.445459    11A     -1.384407    12A     -1.255115
      13A     -1.230841    14A     -1.069029    15A     -0.978691
      16A     -0.875646    17A     -0.845483    18A     -0.789155
      19A     -0.763203    20A     -0.677957    21A     -0.662321
      22A     -0.653965    23A     -0.630652    24A     -0.622424
      25A     -0.599729    26A     -0.557846    27A     -0.549262
      28A     -0.543883    29A     -0.486718    30A     -0.464673
      31A     -0.448902    32A     -0.401743    33A     -0.374111

  @DF-RHF Final Energy:  -451.57631069385548

   => Energetics <=

    Nuclear Repulsion Energy =            429.8306364235526758
    One-Electron Energy =               -1468.2531978556589820
    Two-Electron Energy =                 586.8462507382507738
    Total Energy =                       -451.5763106938554756
  Basis Set: (AUG-CC-PVTZ AUX)
    Blend: AUG-CC-PVTZ-RI
    Molecular point group: c1

    Geometry (in Angstrom), charge = 0, multiplicity = 1:

       Center              X                  Y                   Z               Mass
    ------------   -----------------  -----------------  -----------------  -----------------
         O            1.391739768023     0.999547289354    -0.000003920044    15.994914619570
         O           -1.331141231977     1.581835289354     0.000005079956    15.994914619570
         N           -1.790352231977    -0.682842710646    -0.000009920044    14.003074004430
         N            0.967062768023    -1.203790710646     0.000003079956    14.003074004430
         C            0.462919768023     0.010911289354    -0.000000920044    12.000000000000
         C           -0.974017231977     0.401775289354    -0.000000920044    12.000000000000
         C           -3.234031231977    -0.557150710646     0.000003079956    12.000000000000
         C            2.763957668023     0.243098089354    -0.000000520044    12.000000000000
         C            2.334334768023    -1.001820710646     0.000004079956    12.000000000000
         H           -1.347943231977    -1.595242710646    -0.000002920044     1.007825032230
         H           -3.665821231977    -1.020879710646     0.891290079956     1.007825032230
         H           -3.665836231977    -1.020904710646    -0.891262920044     1.007825032230
         H           -3.465909231977     0.507706289354    -0.000009920044     1.007825032230
         H            3.476100768023     0.953195289354    -0.000002920044     1.007825032230
         H            3.034849768023    -1.824653710646     0.000008079956     1.007825032230

  Basis Set: AUG-CC-PVTZ
    Blend: AUG-CC-PVTZ
  Basis Set: (AUG-CC-PVTZ AUX)
    Blend: AUG-CC-PVTZ-JKFIT
	 Reference Energy          =    -451.5763106938554756 [Eh]
	 Singles Energy            =      -0.0000000000000000 [Eh]
	 Same-Spin Energy          =      -0.4615872292818409 [Eh]
	 Opposite-Spin Energy      =      -1.3950024500409519 [Eh]
	 Correlation Energy        =      -1.8565896793227927 [Eh]
	 Total Energy              =    -453.4329003731782564 [Eh]

	 ================> DF-SCS-MP2 Energies <==================
	-----------------------------------------------------------
	 SCS Same-Spin Scale       =       0.3333333333333333 [-]
	 SCS Opposite-Spin Scale   =       1.2000000000000000 [-]
	 SCS Same-Spin Energy      =      -0.1538624097606136 [Eh]
	 SCS Opposite-Spin Energy  =      -1.6740029400491423 [Eh]
	 SCS Correlation Energy    =      -1.8278653498097559 [Eh]
	 SCS Total Energy          =    -453.4041760436652453 [Eh]
	-----------------------------------------------------------

  Dipole Moment: [D]
     X:     1.2134      Y:    -2.8531      Z:     0.0000     Total:     3.1004

*** Psi4 exiting successfully. Buy a developer a beer!
