                               Psi4 1.3.2 release

  ==> Input File <==

--------------------------------------------------------------------------
#psi4
#
memory 32 gb

molecule  {
0 1
  O        1.4499930     1.0206980    -0.0000040
  O       -1.2728880     1.6029860     0.0000050
  N       -1.7320990    -0.6616920    -0.0000100
  N        1.0253160    -1.1826400     0.0000030
  C        0.6296018    -0.0596103    -0.0000006
  C       -0.9157640     0.4229260    -0.0000010
  C       -3.1757780    -0.5360000     0.0000030
  C        2.6470610     0.3608020    -0.0000010
  C        2.3925880    -0.9806700     0.0000040
  H       -1.2896900    -1.5740920    -0.0000030
  H       -3.6075680    -0.9997290     0.8912900
  H       -3.6075830    -0.9997540    -0.8912630
  H       -3.4076560     0.5288570    -0.0000100
  H        3.5343540     0.9743460    -0.0000030
  H        3.0931030    -1.8035030     0.0000080
units angstrom
no_reorient  #important for SAPT in psi4, default
symmetry c1  #important for SAPT in psi4, default
}

set PROPERTIES_ORIGIN ["COM"]
properties('MP2/aug-cc-pvtz', properties = ['dipole'])
--------------------------------------------------------------------------

    Molecular point group: c1
  Charge       = 0
  Multiplicity = 1
  Basis Set: AUG-CC-PVTZ
    Blend: AUG-CC-PVTZ
  Basis Set: (AUG-CC-PVTZ AUX)
    Blend: AUG-CC-PVTZ-JKFIT

    Orbital Energies [Eh]
    ---------------------

    Doubly Occupied:

       1A    -20.653184     2A    -20.532068     3A    -15.595379
       4A    -15.585501     5A    -11.374739     6A    -11.350044
       7A    -11.314903     8A    -11.282807     9A    -11.264234
      10A     -1.512273    11A     -1.379112    12A     -1.308782
      13A     -1.237501    14A     -1.052321    15A     -0.965208
      16A     -0.869318    17A     -0.843500    18A     -0.793265
      19A     -0.772719    20A     -0.688868    21A     -0.670535
      22A     -0.652609    23A     -0.628125    24A     -0.626066
      25A     -0.596942    26A     -0.577165    27A     -0.553323
      28A     -0.541496    29A     -0.511617    30A     -0.497378
      31A     -0.430997    32A     -0.398008    33A     -0.362849

  @DF-RHF Final Energy:  -451.58762355408021

   => Energetics <=

    Nuclear Repulsion Energy =            433.8682397686836225
    One-Electron Energy =               -1476.0660557274643452
    Two-Electron Energy =                 590.6101924047004559
    Total Energy =                       -451.5876235540802099
  Basis Set: (AUG-CC-PVTZ AUX)
    Blend: AUG-CC-PVTZ-RI
    Molecular point group: c1

    Geometry (in Angstrom), charge = 0, multiplicity = 1:

       Center              X                  Y                   Z               Mass
    ------------   -----------------  -----------------  -----------------  -----------------
         O            1.398091994334     0.999082600052    -0.000003920044    15.994914619570
         O           -1.324789005666     1.581370600052     0.000005079956    15.994914619570
         N           -1.784000005666    -0.683307399948    -0.000009920044    14.003074004430
         N            0.973414994334    -1.204255399948     0.000003079956    14.003074004430
         C            0.577700794334    -0.081225699948    -0.000000520044    12.000000000000
         C           -0.967665005666     0.401310600052    -0.000000920044    12.000000000000
         C           -3.227679005666    -0.557615399948     0.000003079956    12.000000000000
         C            2.595159994334     0.339186600052    -0.000000920044    12.000000000000
         C            2.340686994334    -1.002285399948     0.000004079956    12.000000000000
         H           -1.341591005666    -1.595707399948    -0.000002920044     1.007825032230
         H           -3.659469005666    -1.021344399948     0.891290079956     1.007825032230
         H           -3.659484005666    -1.021369399948    -0.891262920044     1.007825032230
         H           -3.459557005666     0.507241600052    -0.000009920044     1.007825032230
         H            3.482452994334     0.952730600052    -0.000002920044     1.007825032230
         H            3.041201994334    -1.825118399948     0.000008079956     1.007825032230

  Basis Set: AUG-CC-PVTZ
    Blend: AUG-CC-PVTZ
  Basis Set: (AUG-CC-PVTZ AUX)
    Blend: AUG-CC-PVTZ-JKFIT
	 Reference Energy          =    -451.5876235540802099 [Eh]
	 Singles Energy            =      -0.0000000000000000 [Eh]
	 Same-Spin Energy          =      -0.4590492248464831 [Eh]
	 Opposite-Spin Energy      =      -1.3875208560783441 [Eh]
	 Correlation Energy        =      -1.8465700809248271 [Eh]
	 Total Energy              =    -453.4341936350050446 [Eh]

	 ================> DF-SCS-MP2 Energies <==================
	-----------------------------------------------------------
	 SCS Same-Spin Scale       =       0.3333333333333333 [-]
	 SCS Opposite-Spin Scale   =       1.2000000000000000 [-]
	 SCS Same-Spin Energy      =      -0.1530164082821610 [Eh]
	 SCS Opposite-Spin Energy  =      -1.6650250272940128 [Eh]
	 SCS Correlation Energy    =      -1.8180414355761738 [Eh]
	 SCS Total Energy          =    -453.4056649896563727 [Eh]
	-----------------------------------------------------------

  Dipole Moment: [D]
     X:     1.0322      Y:    -2.8760      Z:     0.0000     Total:     3.0556

*** Psi4 exiting successfully. Buy a developer a beer!
