                               Psi4 1.3.2 release

  ==> Input File <==

--------------------------------------------------------------------------
#psi4
#
memory 32 gb

molecule  {
0 1
  O        1.4499930     1.0206980    -0.0000040
  O       -1.2728880     1.6029860     0.0000050
  N       -1.7320990    -0.6616920    -0.0000100
  N        1.0253160    -1.1826400     0.0000030
  C        0.5211730     0.0320620    -0.0000010
  C       -0.9157640     0.4229260    -0.0000010
  C       -3.1757780    -0.5360000     0.0000030
  C        2.5594861     0.4090786    -0.0000012
  C        2.3925880    -0.9806700     0.0000040
  H       -1.2896900    -1.5740920    -0.0000030
  H       -3.6075680    -0.9997290     0.8912900
  H       -3.6075830    -0.9997540    -0.8912630
  H       -3.4076560     0.5288570    -0.0000100
  H        3.5343540     0.9743460    -0.0000030
  H        3.0931030    -1.8035030     0.0000080
units angstrom
no_reorient  #important for SAPT in psi4, default
symmetry c1  #important for SAPT in psi4, default
}

set PROPERTIES_ORIGIN ["COM"]
properties('MP2/aug-cc-pvtz', properties = ['dipole'])
--------------------------------------------------------------------------

    Molecular point group: c1
  Charge       = 0
  Multiplicity = 1
  Basis Set: AUG-CC-PVTZ
    Blend: AUG-CC-PVTZ
  Basis Set: (AUG-CC-PVTZ AUX)
    Blend: AUG-CC-PVTZ-JKFIT

    Orbital Energies [Eh]
    ---------------------

    Doubly Occupied:

       1A    -20.674560     2A    -20.530631     3A    -15.600687
       4A    -15.594759     5A    -11.372899     6A    -11.350902
       7A    -11.323642     8A    -11.278096     9A    -11.264507
      10A     -1.548700    11A     -1.384026    12A     -1.266196
      13A     -1.234946    14A     -1.060224    15A     -0.967527
      16A     -0.881857    17A     -0.850077    18A     -0.801997
      19A     -0.777486    20A     -0.702963    21A     -0.689843
      22A     -0.653761    23A     -0.628252    24A     -0.626687
      25A     -0.595512    26A     -0.582196    27A     -0.552709
      28A     -0.547388    29A     -0.490461    30A     -0.476083
      31A     -0.445489    32A     -0.398591    33A     -0.342942

  @DF-RHF Final Energy:  -451.59960387086790

   => Energetics <=

    Nuclear Repulsion Energy =            434.9983043366484026
    One-Electron Energy =               -1478.2026299286176254
    Two-Electron Energy =                 591.6047217211014413
    Total Energy =                       -451.5996038708678952
  Basis Set: (AUG-CC-PVTZ AUX)
    Blend: AUG-CC-PVTZ-RI
    Molecular point group: c1

    Geometry (in Angstrom), charge = 0, multiplicity = 1:

       Center              X                  Y                   Z               Mass
    ------------   -----------------  -----------------  -----------------  -----------------
         O            1.416752655807     0.985758672767    -0.000003862920    15.994914619570
         O           -1.306128344193     1.568046672767     0.000005137080    15.994914619570
         N           -1.765339344193    -0.696631327233    -0.000009862920    14.003074004430
         N            0.992075655807    -1.217579327233     0.000003137080    14.003074004430
         C            0.487932655807    -0.002877327233    -0.000000862920    12.000000000000
         C           -0.949004344193     0.387986672767    -0.000000862920    12.000000000000
         C           -3.209018344193    -0.570939327233     0.000003137080    12.000000000000
         C            2.526245755807     0.374139272767    -0.000001062920    12.000000000000
         C            2.359347655807    -1.015609327233     0.000004137080    12.000000000000
         H           -1.322930344193    -1.609031327233    -0.000002862920     1.007825032230
         H           -3.640808344193    -1.034668327233     0.891290137080     1.007825032230
         H           -3.640823344193    -1.034693327233    -0.891262862920     1.007825032230
         H           -3.440896344193     0.493917672767    -0.000009862920     1.007825032230
         H            3.501113655807     0.939406672767    -0.000002862920     1.007825032230
         H            3.059862655807    -1.838442327233     0.000008137080     1.007825032230

  Basis Set: AUG-CC-PVTZ
    Blend: AUG-CC-PVTZ
  Basis Set: (AUG-CC-PVTZ AUX)
    Blend: AUG-CC-PVTZ-JKFIT
	 Reference Energy          =    -451.5996038708678952 [Eh]
	 Singles Energy            =      -0.0000000000000000 [Eh]
	 Same-Spin Energy          =      -0.4629658286579545 [Eh]
	 Opposite-Spin Energy      =      -1.3908652330039413 [Eh]
	 Correlation Energy        =      -1.8538310616618958 [Eh]
	 Total Energy              =    -453.4534349325297740 [Eh]

	 ================> DF-SCS-MP2 Energies <==================
	-----------------------------------------------------------
	 SCS Same-Spin Scale       =       0.3333333333333333 [-]
	 SCS Opposite-Spin Scale   =       1.2000000000000000 [-]
	 SCS Same-Spin Energy      =      -0.1543219428859848 [Eh]
	 SCS Opposite-Spin Energy  =      -1.6690382796047294 [Eh]
	 SCS Correlation Energy    =      -1.8233602224907142 [Eh]
	 SCS Total Energy          =    -453.4229640933585870 [Eh]
	-----------------------------------------------------------

  Dipole Moment: [D]
     X:     1.1331      Y:    -2.5865      Z:     0.0000     Total:     2.8238

*** Psi4 exiting successfully. Buy a developer a beer!
