                               Psi4 1.3.2 release

  ==> Input File <==

--------------------------------------------------------------------------
#psi4
#
memory 32 gb

molecule  {
0 1
  O        1.4499930     1.0206980    -0.0000040
  O       -1.3543349     1.5751997     0.0000047
  N       -1.7320990    -0.6616920    -0.0000100
  N        1.0253160    -1.1826400     0.0000030
  C        0.5211730     0.0320620    -0.0000010
  C       -0.9157640     0.4229260    -0.0000010
  C       -3.1757780    -0.5360000     0.0000030
  C        2.6470610     0.3608020    -0.0000010
  C        2.3925880    -0.9806700     0.0000040
  H       -1.2896900    -1.5740920    -0.0000030
  H       -3.6075680    -0.9997290     0.8912900
  H       -3.6075830    -0.9997540    -0.8912630
  H       -3.4076560     0.5288570    -0.0000100
  H        3.5343540     0.9743460    -0.0000030
  H        3.0931030    -1.8035030     0.0000080
units angstrom
no_reorient  #important for SAPT in psi4, default
symmetry c1  #important for SAPT in psi4, default
}

set PROPERTIES_ORIGIN ["COM"]
properties('MP2/aug-cc-pvtz', properties = ['dipole'])
--------------------------------------------------------------------------

    Molecular point group: c1
  Charge       = 0
  Multiplicity = 1
  Basis Set: AUG-CC-PVTZ
    Blend: AUG-CC-PVTZ
  Basis Set: (AUG-CC-PVTZ AUX)
    Blend: AUG-CC-PVTZ-JKFIT

    Orbital Energies [Eh]
    ---------------------

    Doubly Occupied:

       1A    -20.662010     2A    -20.531526     3A    -15.599207
       4A    -15.593175     5A    -11.374283     6A    -11.361295
       7A    -11.318537     8A    -11.283983     9A    -11.262444
      10A     -1.506235    11A     -1.385844    12A     -1.261853
      13A     -1.231394    14A     -1.064237    15A     -0.969570
      16A     -0.875819    17A     -0.851218    18A     -0.793513
      19A     -0.773576    20A     -0.682246    21A     -0.681605
      22A     -0.656271    23A     -0.625931    24A     -0.621682
      25A     -0.597825    26A     -0.593976    27A     -0.550000
      28A     -0.545056    29A     -0.493077    30A     -0.473795
      31A     -0.447128    32A     -0.396772    33A     -0.356885

  @DF-RHF Final Energy:  -451.60816356086008

   => Energetics <=

    Nuclear Repulsion Energy =            432.9740133371046795
    One-Electron Energy =               -1474.3204135704527289
    Two-Electron Energy =                 589.7382366724879148
    Total Energy =                       -451.6081635608601346
  Basis Set: (AUG-CC-PVTZ AUX)
    Blend: AUG-CC-PVTZ-RI
    Molecular point group: c1

    Geometry (in Angstrom), charge = 0, multiplicity = 1:

       Center              X                  Y                   Z               Mass
    ------------   -----------------  -----------------  -----------------  -----------------
         O            1.418750684706     0.993880974564    -0.000003843891    15.994914619570
         O           -1.385577215294     1.548382674564     0.000004856109    15.994914619570
         N           -1.763341315294    -0.688509025436    -0.000009843891    14.003074004430
         N            0.994073684706    -1.209457025436     0.000003156109    14.003074004430
         C            0.489930684706     0.005244974564    -0.000000843891    12.000000000000
         C           -0.947006315294     0.396108974564    -0.000000843891    12.000000000000
         C           -3.207020315294    -0.562817025436     0.000003156109    12.000000000000
         C            2.615818684706     0.333984974564    -0.000000843891    12.000000000000
         C            2.361345684706    -1.007487025436     0.000004156109    12.000000000000
         H           -1.320932315294    -1.600909025436    -0.000002843891     1.007825032230
         H           -3.638810315294    -1.026546025436     0.891290156109     1.007825032230
         H           -3.638825315294    -1.026571025436    -0.891262843891     1.007825032230
         H           -3.438898315294     0.502039974564    -0.000009843891     1.007825032230
         H            3.503111684706     0.947528974564    -0.000002843891     1.007825032230
         H            3.061860684706    -1.830320025436     0.000008156109     1.007825032230

  Basis Set: AUG-CC-PVTZ
    Blend: AUG-CC-PVTZ
  Basis Set: (AUG-CC-PVTZ AUX)
    Blend: AUG-CC-PVTZ-JKFIT
	 Reference Energy          =    -451.6081635608600777 [Eh]
	 Singles Energy            =      -0.0000000000000000 [Eh]
	 Same-Spin Energy          =      -0.4624318520886477 [Eh]
	 Opposite-Spin Energy      =      -1.3921866418183568 [Eh]
	 Correlation Energy        =      -1.8546184939070045 [Eh]
	 Total Energy              =    -453.4627820547671035 [Eh]

	 ================> DF-SCS-MP2 Energies <==================
	-----------------------------------------------------------
	 SCS Same-Spin Scale       =       0.3333333333333333 [-]
	 SCS Opposite-Spin Scale   =       1.2000000000000000 [-]
	 SCS Same-Spin Energy      =      -0.1541439506962159 [Eh]
	 SCS Opposite-Spin Energy  =      -1.6706239701820282 [Eh]
	 SCS Correlation Energy    =      -1.8247679208782441 [Eh]
	 SCS Total Energy          =    -453.4329314817383079 [Eh]
	-----------------------------------------------------------

  Dipole Moment: [D]
     X:     1.4307      Y:    -2.6493      Z:     0.0000     Total:     3.0110

*** Psi4 exiting successfully. Buy a developer a beer!
