                               Psi4 1.3.2 release

  ==> Input File <==

--------------------------------------------------------------------------
#psi4
#
memory 32 gb

molecule  {
0 1
  O        1.4499930     1.0206980    -0.0000040
  O       -1.2728880     1.6029860     0.0000050
  N       -1.6937491    -0.6895210    -0.0000101
  N        1.0253160    -1.1826400     0.0000030
  C        0.5211730     0.0320620    -0.0000010
  C       -0.9157640     0.4229260    -0.0000010
  C       -3.1757780    -0.5360000     0.0000030
  C        2.6470610     0.3608020    -0.0000010
  C        2.3925880    -0.9806700     0.0000040
  H       -1.2896900    -1.5740920    -0.0000030
  H       -3.6075680    -0.9997290     0.8912900
  H       -3.6075830    -0.9997540    -0.8912630
  H       -3.4076560     0.5288570    -0.0000100
  H        3.5343540     0.9743460    -0.0000030
  H        3.0931030    -1.8035030     0.0000080
units angstrom
no_reorient  #important for SAPT in psi4, default
symmetry c1  #important for SAPT in psi4, default
}

set PROPERTIES_ORIGIN ["COM"]
properties('MP2/aug-cc-pvtz', properties = ['dipole'])
--------------------------------------------------------------------------

    Molecular point group: c1
  Charge       = 0
  Multiplicity = 1
  Basis Set: AUG-CC-PVTZ
    Blend: AUG-CC-PVTZ
  Basis Set: (AUG-CC-PVTZ AUX)
    Blend: AUG-CC-PVTZ-JKFIT

    Orbital Energies [Eh]
    ---------------------

    Doubly Occupied:

       1A    -20.657561     2A    -20.535504     3A    -15.595806
       4A    -15.594344     5A    -11.375700     6A    -11.355070
       7A    -11.314620     8A    -11.280490     9A    -11.269722
      10A     -1.502144    11A     -1.385300    12A     -1.261190
      13A     -1.233124    14A     -1.059235    15A     -0.967874
      16A     -0.875763    17A     -0.849531    18A     -0.801154
      19A     -0.775039    20A     -0.678662    21A     -0.678344
      22A     -0.655376    23A     -0.624314    24A     -0.617608
      25A     -0.593839    26A     -0.589409    27A     -0.560162
      28A     -0.548258    29A     -0.489669    30A     -0.470403
      31A     -0.447883    32A     -0.403953    33A     -0.353313

  @DF-RHF Final Energy:  -451.60710124255320

   => Energetics <=

    Nuclear Repulsion Energy =            433.0763118282505388
    One-Electron Energy =               -1474.5661014811646510
    Two-Electron Energy =                 589.8826884103609700
    Total Energy =                       -451.6071012425531990
  Basis Set: (AUG-CC-PVTZ AUX)
    Blend: AUG-CC-PVTZ-RI
    Molecular point group: c1

    Geometry (in Angstrom), charge = 0, multiplicity = 1:

       Center              X                  Y                   Z               Mass
    ------------   -----------------  -----------------  -----------------  -----------------
         O            1.404154445657     0.993446615011    -0.000003870852    15.994914619570
         O           -1.318726554343     1.575734615011     0.000005129148    15.994914619570
         N           -1.739587654343    -0.716772384989    -0.000009970852    14.003074004430
         N            0.979477445657    -1.209891384989     0.000003129148    14.003074004430
         C            0.475334445657     0.004810615011    -0.000000870852    12.000000000000
         C           -0.961602554343     0.395674615011    -0.000000870852    12.000000000000
         C           -3.221616554343    -0.563251384989     0.000003129148    12.000000000000
         C            2.601222445657     0.333550615011    -0.000000870852    12.000000000000
         C            2.346749445657    -1.007921384989     0.000004129148    12.000000000000
         H           -1.335528554343    -1.601343384989    -0.000002870852     1.007825032230
         H           -3.653406554343    -1.026980384989     0.891290129148     1.007825032230
         H           -3.653421554343    -1.027005384989    -0.891262870852     1.007825032230
         H           -3.453494554343     0.501605615011    -0.000009870852     1.007825032230
         H            3.488515445657     0.947094615011    -0.000002870852     1.007825032230
         H            3.047264445657    -1.830754384989     0.000008129148     1.007825032230

  Basis Set: AUG-CC-PVTZ
    Blend: AUG-CC-PVTZ
  Basis Set: (AUG-CC-PVTZ AUX)
    Blend: AUG-CC-PVTZ-JKFIT
	 Reference Energy          =    -451.6071012425531990 [Eh]
	 Singles Energy            =      -0.0000000000000000 [Eh]
	 Same-Spin Energy          =      -0.4618588251832274 [Eh]
	 Opposite-Spin Energy      =      -1.3917430901642887 [Eh]
	 Correlation Energy        =      -1.8536019153475161 [Eh]
	 Total Energy              =    -453.4607031579006957 [Eh]

	 ================> DF-SCS-MP2 Energies <==================
	-----------------------------------------------------------
	 SCS Same-Spin Scale       =       0.3333333333333333 [-]
	 SCS Opposite-Spin Scale   =       1.2000000000000000 [-]
	 SCS Same-Spin Energy      =      -0.1539529417277424 [Eh]
	 SCS Opposite-Spin Energy  =      -1.6700917081971463 [Eh]
	 SCS Correlation Energy    =      -1.8240446499248888 [Eh]
	 SCS Total Energy          =    -453.4311458924780709 [Eh]
	-----------------------------------------------------------

  Dipole Moment: [D]
     X:     1.0085      Y:    -2.6530      Z:     0.0000     Total:     2.8382

*** Psi4 exiting successfully. Buy a developer a beer!
