                               Psi4 1.4a3.dev225

  ==> Input File <==

--------------------------------------------------------------------------
#psi4
#
memory 32 gb

molecule  {
0 1
  O        1.4499930     1.0206980    -0.0000040
  O       -1.2728880     1.6029860     0.0000050
  N       -1.7320990    -0.6616920    -0.0000100
  N        1.0253160    -1.1826400     0.0000030
  C        0.5403395    -0.0141186    -0.0000008
  C       -0.9157640     0.4229260    -0.0000010
  C       -3.1757780    -0.5360000     0.0000030
  C        2.6470610     0.3608020    -0.0000010
  C        2.3925880    -0.9806700     0.0000040
  H       -1.2896900    -1.5740920    -0.0000030
  H       -3.6075680    -0.9997290     0.8912900
  H       -3.6075830    -0.9997540    -0.8912630
  H       -3.4076560     0.5288570    -0.0000100
  H        3.5343540     0.9743460    -0.0000030
  H        3.0931030    -1.8035030     0.0000080
units angstrom
no_reorient  #important for SAPT in psi4, default
symmetry c1  #important for SAPT in psi4, default
}

set PROPERTIES_ORIGIN ["COM"]
properties('MP2/aug-cc-pvtz', properties = ['dipole'])
--------------------------------------------------------------------------

    Molecular point group: c1
  Charge       = 0
  Multiplicity = 1
  Basis Set: AUG-CC-PVTZ
    Blend: AUG-CC-PVTZ
  Basis Set: (AUG-CC-PVTZ AUX)
    Blend: AUG-CC-PVTZ-JKFIT

    Orbital Energies [Eh]
    ---------------------

    Doubly Occupied:

       1A    -20.653127     2A    -20.534110     3A    -15.597319
       4A    -15.593750     5A    -11.376250     6A    -11.354510
       7A    -11.315965     8A    -11.280803     9A    -11.265738
      10A     -1.497093    11A     -1.384069    12A     -1.275462
      13A     -1.238460    14A     -1.057797    15A     -0.970256
      16A     -0.869066    17A     -0.850199    18A     -0.792754
      19A     -0.772063    20A     -0.677858    21A     -0.677148
      22A     -0.656425    23A     -0.627575    24A     -0.623382
      25A     -0.593151    26A     -0.590059    27A     -0.554461
      28A     -0.545695    29A     -0.497426    30A     -0.480275
      31A     -0.444527    32A     -0.400075    33A     -0.357466

  @DF-RHF Final Energy:  -451.60915099078244

   => Energetics <=

    Nuclear Repulsion Energy =            433.2497769853189880
    One-Electron Energy =               -1474.9092287069258873
    Two-Electron Energy =                 590.0503007308245742
    Total Energy =                       -451.6091509907823820
  Basis Set: (AUG-CC-PVTZ AUX)
    Blend: AUG-CC-PVTZ-RI
    Molecular point group: c1

    Geometry (in Angstrom), charge = 0, multiplicity = 1:

       Center              X                  Y                   Z               Mass
    ------------   -----------------  -----------------  -----------------  -----------------
         O            1.406590270451     0.994751532763    -0.000003901003    15.994914619570
         O           -1.316290729549     1.577039532763     0.000005098997    15.994914619570
         N           -1.775501729549    -0.687638467237    -0.000009901003    14.003074004430
         N            0.981913270451    -1.208586467237     0.000003098997    14.003074004430
         C            0.496936770451    -0.040065067237    -0.000000701003    12.000000000000
         C           -0.959166729549     0.396979532763    -0.000000901003    12.000000000000
         C           -3.219180729549    -0.561946467237     0.000003098997    12.000000000000
         C            2.603658270451     0.334855532763    -0.000000901003    12.000000000000
         C            2.349185270451    -1.006616467237     0.000004098997    12.000000000000
         H           -1.333092729549    -1.600038467237    -0.000002901003     1.007825032230
         H           -3.650970729549    -1.025675467237     0.891290098997     1.007825032230
         H           -3.650985729549    -1.025700467237    -0.891262901003     1.007825032230
         H           -3.451058729549     0.502910532763    -0.000009901003     1.007825032230
         H            3.490951270451     0.948399532763    -0.000002901003     1.007825032230
         H            3.049700270451    -1.829449467237     0.000008098997     1.007825032230

  Basis Set: AUG-CC-PVTZ
    Blend: AUG-CC-PVTZ
  Basis Set: (AUG-CC-PVTZ AUX)
    Blend: AUG-CC-PVTZ-JKFIT
	 Reference Energy          =    -451.6091509907824388 [Eh]
	 Singles Energy            =      -0.0000000000000000 [Eh]
	 Same-Spin Energy          =      -0.4610530144724119 [Eh]
	 Opposite-Spin Energy      =      -1.3904094084735343 [Eh]
	 Correlation Energy        =      -1.8514624229459462 [Eh]
	 Total Energy              =    -453.4606134137283675 [Eh]

	 ================> DF-SCS-MP2 Energies <==================
	-----------------------------------------------------------
	 SCS Same-Spin Scale       =       0.3333333333333333 [-]
	 SCS Opposite-Spin Scale   =       1.2000000000000000 [-]
	 SCS Same-Spin Energy      =      -0.1536843381574706 [Eh]
	 SCS Opposite-Spin Energy  =      -1.6684912901682412 [Eh]
	 SCS Correlation Energy    =      -1.8221756283257118 [Eh]
	 SCS Total Energy          =    -453.4313266191081766 [Eh]
	-----------------------------------------------------------

  Dipole Moment: [D]
     X:     1.0368      Y:    -2.7896      Z:     0.0000     Total:     2.9760

*** Psi4 exiting successfully. Buy a developer a beer!
