                               Psi4 1.3.2 release

  ==> Input File <==

--------------------------------------------------------------------------
#psi4
#
memory 32 gb

molecule  {
0 1
  O        1.4499930     1.0206980    -0.0000040
  O       -1.2728880     1.6029860     0.0000050
  N       -1.7320990    -0.6616920    -0.0000100
  N        1.0253160    -1.1826400     0.0000030
  C        0.6509057     0.0781050    -0.0000010
  C       -0.9157640     0.4229260    -0.0000010
  C       -3.1757780    -0.5360000     0.0000030
  C        2.6470610     0.3608020    -0.0000010
  C        2.3925880    -0.9806700     0.0000040
  H       -1.2896900    -1.5740920    -0.0000030
  H       -3.6075680    -0.9997290     0.8912900
  H       -3.6075830    -0.9997540    -0.8912630
  H       -3.4076560     0.5288570    -0.0000100
  H        3.5343540     0.9743460    -0.0000030
  H        3.0931030    -1.8035030     0.0000080
units angstrom
no_reorient  #important for SAPT in psi4, default
symmetry c1  #important for SAPT in psi4, default
}

set PROPERTIES_ORIGIN ["COM"]
properties('MP2/aug-cc-pvtz', properties = ['dipole'])
--------------------------------------------------------------------------

    Molecular point group: c1
  Charge       = 0
  Multiplicity = 1
  Basis Set: AUG-CC-PVTZ
    Blend: AUG-CC-PVTZ
  Basis Set: (AUG-CC-PVTZ AUX)
    Blend: AUG-CC-PVTZ-JKFIT

    Orbital Energies [Eh]
    ---------------------

    Doubly Occupied:

       1A    -20.677271     2A    -20.530289     3A    -15.595840
       4A    -15.584624     5A    -11.374499     6A    -11.360244
       7A    -11.309015     8A    -11.285658     9A    -11.264934
      10A     -1.567021    11A     -1.380484    12A     -1.266324
      13A     -1.234578    14A     -1.060150    15A     -0.964726
      16A     -0.881389    17A     -0.841756    18A     -0.804869
      19A     -0.778179    20A     -0.713671    21A     -0.675295
      22A     -0.650546    23A     -0.626945    24A     -0.625251
      25A     -0.614400    26A     -0.573872    27A     -0.552678
      28A     -0.541588    29A     -0.497171    30A     -0.475396
      31A     -0.434491    32A     -0.397606    33A     -0.356335

  @DF-RHF Final Energy:  -451.59270232221786

   => Energetics <=

    Nuclear Repulsion Energy =            433.9741736069453282
    One-Electron Energy =               -1476.1395616532981876
    Two-Electron Energy =                 590.5726857241348853
    Total Energy =                       -451.5927023222178605
  Basis Set: (AUG-CC-PVTZ AUX)
    Blend: AUG-CC-PVTZ-RI
    Molecular point group: c1

    Geometry (in Angstrom), charge = 0, multiplicity = 1:

       Center              X                  Y                   Z               Mass
    ------------   -----------------  -----------------  -----------------  -----------------
         O            1.396063742490     0.985971324128    -0.000003881961    15.994914619570
         O           -1.326817257510     1.568259324128     0.000005118039    15.994914619570
         N           -1.786028257510    -0.696418675872    -0.000009881961    14.003074004430
         N            0.971386742490    -1.217366675872     0.000003118039    14.003074004430
         C            0.596976442490     0.043378324128    -0.000000881961    12.000000000000
         C           -0.969693257510     0.388199324128    -0.000000881961    12.000000000000
         C           -3.229707257510    -0.570726675872     0.000003118039    12.000000000000
         C            2.593131742490     0.326075324128    -0.000000881961    12.000000000000
         C            2.338658742490    -1.015396675872     0.000004118039    12.000000000000
         H           -1.343619257510    -1.608818675872    -0.000002881961     1.007825032230
         H           -3.661497257510    -1.034455675872     0.891290118039     1.007825032230
         H           -3.661512257510    -1.034480675872    -0.891262881961     1.007825032230
         H           -3.461585257510     0.494130324128    -0.000009881961     1.007825032230
         H            3.480424742490     0.939619324128    -0.000002881961     1.007825032230
         H            3.039173742490    -1.838229675872     0.000008118039     1.007825032230

  Basis Set: AUG-CC-PVTZ
    Blend: AUG-CC-PVTZ
  Basis Set: (AUG-CC-PVTZ AUX)
    Blend: AUG-CC-PVTZ-JKFIT
	 Reference Energy          =    -451.5927023222178605 [Eh]
	 Singles Energy            =      -0.0000000000000000 [Eh]
	 Same-Spin Energy          =      -0.4601166919992667 [Eh]
	 Opposite-Spin Energy      =      -1.3878630667639102 [Eh]
	 Correlation Energy        =      -1.8479797587631770 [Eh]
	 Total Energy              =    -453.4406820809810483 [Eh]

	 ================> DF-SCS-MP2 Energies <==================
	-----------------------------------------------------------
	 SCS Same-Spin Scale       =       0.3333333333333333 [-]
	 SCS Opposite-Spin Scale   =       1.2000000000000000 [-]
	 SCS Same-Spin Energy      =      -0.1533722306664222 [Eh]
	 SCS Opposite-Spin Energy  =      -1.6654356801166923 [Eh]
	 SCS Correlation Energy    =      -1.8188079107831145 [Eh]
	 SCS Total Energy          =    -453.4115102330009677 [Eh]
	-----------------------------------------------------------

  Dipole Moment: [D]
     X:     1.2480      Y:    -2.5120      Z:     0.0000     Total:     2.8049

*** Psi4 exiting successfully. Buy a developer a beer!
