                               Psi4 1.3.2 release

  ==> Input File <==

--------------------------------------------------------------------------
#psi4
#
memory 32 gb

molecule  {
0 1
  O        1.4499930     1.0206980    -0.0000040
  O       -1.2728880     1.6029860     0.0000050
  N       -1.7320990    -0.6616920    -0.0000100
  N        1.0253160    -1.1826400     0.0000030
  C        0.5040604     0.0484227    -0.0000011
  C       -0.9157640     0.4229260    -0.0000010
  C       -3.1757780    -0.5360000     0.0000030
  C        2.6470610     0.3608020    -0.0000010
  C        2.3925880    -0.9806700     0.0000040
  H       -1.2896900    -1.5740920    -0.0000030
  H       -3.6075680    -0.9997290     0.8912900
  H       -3.6075830    -0.9997540    -0.8912630
  H       -3.4076560     0.5288570    -0.0000100
  H        3.5343540     0.9743460    -0.0000030
  H        3.0931030    -1.8035030     0.0000080
units angstrom
no_reorient  #important for SAPT in psi4, default
symmetry c1  #important for SAPT in psi4, default
}

set PROPERTIES_ORIGIN ["COM"]
properties('MP2/aug-cc-pvtz', properties = ['dipole'])
--------------------------------------------------------------------------

    Molecular point group: c1
  Charge       = 0
  Multiplicity = 1
  Basis Set: AUG-CC-PVTZ
    Blend: AUG-CC-PVTZ
  Basis Set: (AUG-CC-PVTZ AUX)
    Blend: AUG-CC-PVTZ-JKFIT

    Orbital Energies [Eh]
    ---------------------

    Doubly Occupied:

       1A    -20.660477     2A    -20.533132     3A    -15.598009
       4A    -15.597211     5A    -11.373897     6A    -11.358524
       7A    -11.316862     8A    -11.282029     9A    -11.265939
      10A     -1.502700    11A     -1.386072    12A     -1.256823
      13A     -1.231921    14A     -1.063577    15A     -0.971946
      16A     -0.877025    17A     -0.848514    18A     -0.793713
      19A     -0.774297    20A     -0.682421    21A     -0.679342
      22A     -0.657390    23A     -0.627929    24A     -0.619895
      25A     -0.600103    26A     -0.590176    27A     -0.554312
      28A     -0.547152    29A     -0.487789    30A     -0.468176
      31A     -0.448867    32A     -0.400008    33A     -0.353212

  @DF-RHF Final Energy:  -451.60684285638297

   => Energetics <=

    Nuclear Repulsion Energy =            433.0619415753956218
    One-Electron Energy =               -1474.5186910549141430
    Two-Electron Energy =                 589.8499066231355528
    Total Energy =                       -451.6068428563829684
  Basis Set: (AUG-CC-PVTZ AUX)
    Blend: AUG-CC-PVTZ-RI
    Molecular point group: c1

    Geometry (in Angstrom), charge = 0, multiplicity = 1:

       Center              X                  Y                   Z               Mass
    ------------   -----------------  -----------------  -----------------  -----------------
         O            1.410044246083     0.988797247067    -0.000003872441    15.994914619570
         O           -1.312836753917     1.571085247067     0.000005127559    15.994914619570
         N           -1.772047753917    -0.693592752933    -0.000009872441    14.003074004430
         N            0.985367246083    -1.214540752933     0.000003127559    14.003074004430
         C            0.464111646083     0.016521947067    -0.000000972441    12.000000000000
         C           -0.955712753917     0.391025247067    -0.000000872441    12.000000000000
         C           -3.215726753917    -0.567900752933     0.000003127559    12.000000000000
         C            2.607112246083     0.328901247067    -0.000000872441    12.000000000000
         C            2.352639246083    -1.012570752933     0.000004127559    12.000000000000
         H           -1.329638753917    -1.605992752933    -0.000002872441     1.007825032230
         H           -3.647516753917    -1.031629752933     0.891290127559     1.007825032230
         H           -3.647531753917    -1.031654752933    -0.891262872441     1.007825032230
         H           -3.447604753917     0.496956247067    -0.000009872441     1.007825032230
         H            3.494405246083     0.942445247067    -0.000002872441     1.007825032230
         H            3.053154246083    -1.835403752933     0.000008127559     1.007825032230

  Basis Set: AUG-CC-PVTZ
    Blend: AUG-CC-PVTZ
  Basis Set: (AUG-CC-PVTZ AUX)
    Blend: AUG-CC-PVTZ-JKFIT
	 Reference Energy          =    -451.6068428563829684 [Eh]
	 Singles Energy            =      -0.0000000000000000 [Eh]
	 Same-Spin Energy          =      -0.4629660841442468 [Eh]
	 Opposite-Spin Energy      =      -1.3931257552690977 [Eh]
	 Correlation Energy        =      -1.8560918394133443 [Eh]
	 Total Energy              =    -453.4629346957963207 [Eh]

	 ================> DF-SCS-MP2 Energies <==================
	-----------------------------------------------------------
	 SCS Same-Spin Scale       =       0.3333333333333333 [-]
	 SCS Opposite-Spin Scale   =       1.2000000000000000 [-]
	 SCS Same-Spin Energy      =      -0.1543220280480823 [Eh]
	 SCS Opposite-Spin Energy  =      -1.6717509063229172 [Eh]
	 SCS Correlation Energy    =      -1.8260729343709996 [Eh]
	 SCS Total Energy          =    -453.4329157907539525 [Eh]
	-----------------------------------------------------------

  Dipole Moment: [D]
     X:     1.1929      Y:    -2.6716      Z:     0.0000     Total:     2.9259

*** Psi4 exiting successfully. Buy a developer a beer!
