                               Psi4 1.3.2 release

  ==> Input File <==

--------------------------------------------------------------------------
#psi4
#
memory 32 gb

molecule  {
0 1
  O        1.4499930     1.0206980    -0.0000040
  O       -1.2728880     1.6029860     0.0000050
  N       -1.7320990    -0.6616920    -0.0000100
  N        1.0253160    -1.1826400     0.0000030
  C        0.5211730     0.0320620    -0.0000010
  C       -1.0122579     0.4491735    -0.0000010
  C       -3.1757780    -0.5360000     0.0000030
  C        2.6470610     0.3608020    -0.0000010
  C        2.3925880    -0.9806700     0.0000040
  H       -1.2896900    -1.5740920    -0.0000030
  H       -3.6075680    -0.9997290     0.8912900
  H       -3.6075830    -0.9997540    -0.8912630
  H       -3.4076560     0.5288570    -0.0000100
  H        3.5343540     0.9743460    -0.0000030
  H        3.0931030    -1.8035030     0.0000080
units angstrom
no_reorient  #important for SAPT in psi4, default
symmetry c1  #important for SAPT in psi4, default
}

set PROPERTIES_ORIGIN ["COM"]
properties('MP2/aug-cc-pvtz', properties = ['dipole'])
--------------------------------------------------------------------------

    Molecular point group: c1
  Charge       = 0
  Multiplicity = 1
  Basis Set: AUG-CC-PVTZ
    Blend: AUG-CC-PVTZ
  Basis Set: (AUG-CC-PVTZ AUX)
    Blend: AUG-CC-PVTZ-JKFIT

    Orbital Energies [Eh]
    ---------------------

    Doubly Occupied:

       1A    -20.650739     2A    -20.540740     3A    -15.601892
       4A    -15.584126     5A    -11.376661     6A    -11.349906
       7A    -11.306234     8A    -11.274108     9A    -11.269491
      10A     -1.494752    11A     -1.420587    12A     -1.269193
      13A     -1.238180    14A     -1.045443    15A     -0.972617
      16A     -0.855258    17A     -0.838007    18A     -0.805420
      19A     -0.769487    20A     -0.679879    21A     -0.672354
      22A     -0.667075    23A     -0.638141    24A     -0.617132
      25A     -0.597775    26A     -0.583667    27A     -0.562633
      28A     -0.562161    29A     -0.482970    30A     -0.465135
      31A     -0.443554    32A     -0.412390    33A     -0.347037

  @DF-RHF Final Energy:  -451.60462039538476

   => Energetics <=

    Nuclear Repulsion Energy =            432.9837202265671863
    One-Electron Energy =               -1474.3871975537106209
    Two-Electron Energy =                 589.7988569317586780
    Total Energy =                       -451.6046203953848135
  Basis Set: (AUG-CC-PVTZ AUX)
    Blend: AUG-CC-PVTZ-RI
    Molecular point group: c1

    Geometry (in Angstrom), charge = 0, multiplicity = 1:

       Center              X                  Y                   Z               Mass
    ------------   -----------------  -----------------  -----------------  -----------------
         O            1.417601795081     0.987855967755    -0.000003881961    15.994914619570
         O           -1.305279204919     1.570143967755     0.000005118039    15.994914619570
         N           -1.764490204919    -0.694534032245    -0.000009881961    14.003074004430
         N            0.992924795081    -1.215482032245     0.000003118039    14.003074004430
         C            0.488781795081    -0.000780032245    -0.000000881961    12.000000000000
         C           -1.044649104919     0.416331467755    -0.000000881961    12.000000000000
         C           -3.208169204919    -0.568842032245     0.000003118039    12.000000000000
         C            2.614669795081     0.327959967755    -0.000000881961    12.000000000000
         C            2.360196795081    -1.013512032245     0.000004118039    12.000000000000
         H           -1.322081204919    -1.606934032245    -0.000002881961     1.007825032230
         H           -3.639959204919    -1.032571032245     0.891290118039     1.007825032230
         H           -3.639974204919    -1.032596032245    -0.891262881961     1.007825032230
         H           -3.440047204919     0.496014967755    -0.000009881961     1.007825032230
         H            3.501962795081     0.941503967755    -0.000002881961     1.007825032230
         H            3.060711795081    -1.836345032245     0.000008118039     1.007825032230

  Basis Set: AUG-CC-PVTZ
    Blend: AUG-CC-PVTZ
  Basis Set: (AUG-CC-PVTZ AUX)
    Blend: AUG-CC-PVTZ-JKFIT
	 Reference Energy          =    -451.6046203953847566 [Eh]
	 Singles Energy            =      -0.0000000000000000 [Eh]
	 Same-Spin Energy          =      -0.4604555390770576 [Eh]
	 Opposite-Spin Energy      =      -1.3885830865881512 [Eh]
	 Correlation Energy        =      -1.8490386256652087 [Eh]
	 Total Energy              =    -453.4536590210499867 [Eh]

	 ================> DF-SCS-MP2 Energies <==================
	-----------------------------------------------------------
	 SCS Same-Spin Scale       =       0.3333333333333333 [-]
	 SCS Opposite-Spin Scale   =       1.2000000000000000 [-]
	 SCS Same-Spin Energy      =      -0.1534851796923525 [Eh]
	 SCS Opposite-Spin Energy  =      -1.6662997039057814 [Eh]
	 SCS Correlation Energy    =      -1.8197848835981341 [Eh]
	 SCS Total Energy          =    -453.4244052789828743 [Eh]
	-----------------------------------------------------------

  Dipole Moment: [D]
     X:     0.4249      Y:    -2.5126      Z:     0.0000     Total:     2.5482

*** Psi4 exiting successfully. Buy a developer a beer!
