                               Psi4 1.4a3.dev225

  ==> Input File <==

--------------------------------------------------------------------------
#psi4
#
memory 32 gb

molecule  {
0 1
  O        1.4499930     1.0206980    -0.0000040
  O       -1.2728880     1.6029860     0.0000050
  N       -1.7320990    -0.6616920    -0.0000100
  N        1.0253160    -1.1826400     0.0000030
  C        0.5020065     0.0782426    -0.0000012
  C       -0.9157640     0.4229260    -0.0000010
  C       -3.1757780    -0.5360000     0.0000030
  C        2.6470610     0.3608020    -0.0000010
  C        2.3925880    -0.9806700     0.0000040
  H       -1.2896900    -1.5740920    -0.0000030
  H       -3.6075680    -0.9997290     0.8912900
  H       -3.6075830    -0.9997540    -0.8912630
  H       -3.4076560     0.5288570    -0.0000100
  H        3.5343540     0.9743460    -0.0000030
  H        3.0931030    -1.8035030     0.0000080
units angstrom
no_reorient  #important for SAPT in psi4, default
symmetry c1  #important for SAPT in psi4, default
}

set PROPERTIES_ORIGIN ["COM"]
properties('MP2/aug-cc-pvtz', properties = ['dipole'])
--------------------------------------------------------------------------

    Molecular point group: c1
  Charge       = 0
  Multiplicity = 1
  Basis Set: AUG-CC-PVTZ
    Blend: AUG-CC-PVTZ
  Basis Set: (AUG-CC-PVTZ AUX)
    Blend: AUG-CC-PVTZ-JKFIT

    Orbital Energies [Eh]
    ---------------------

    Doubly Occupied:

       1A    -20.664938     2A    -20.532582     3A    -15.597940
       4A    -15.597145     5A    -11.373174     6A    -11.359994
       7A    -11.316411     8A    -11.282781     9A    -11.265994
      10A     -1.510364    11A     -1.386636    12A     -1.252518
      13A     -1.227453    14A     -1.065496    15A     -0.972091
      16A     -0.878920    17A     -0.848999    18A     -0.794499
      19A     -0.775986    20A     -0.684250    21A     -0.682846
      22A     -0.657256    23A     -0.628175    24A     -0.619023
      25A     -0.602412    26A     -0.589786    27A     -0.554192
      28A     -0.547348    29A     -0.484510    30A     -0.464459
      31A     -0.449249    32A     -0.399813    33A     -0.351307

  @DF-RHF Final Energy:  -451.60329585054797

   => Energetics <=

    Nuclear Repulsion Energy =            433.0684759622244542
    One-Electron Energy =               -1474.5064468958107682
    Two-Electron Energy =                 589.8346750830382916
    Total Energy =                       -451.6032958505479655
  Basis Set: (AUG-CC-PVTZ AUX)
    Blend: AUG-CC-PVTZ-RI
    Molecular point group: c1

    Geometry (in Angstrom), charge = 0, multiplicity = 1:

       Center              X                  Y                   Z               Mass
    ------------   -----------------  -----------------  -----------------  -----------------
         O            1.410239788987     0.985958223829    -0.000003862920    15.994914619570
         O           -1.312641211013     1.568246223829     0.000005137080    15.994914619570
         N           -1.771852211013    -0.696431776171    -0.000009862920    14.003074004430
         N            0.985562788987    -1.217379776171     0.000003137080    14.003074004430
         C            0.462253288987     0.043502823829    -0.000001062920    12.000000000000
         C           -0.955517211013     0.388186223829    -0.000000862920    12.000000000000
         C           -3.215531211013    -0.570739776171     0.000003137080    12.000000000000
         C            2.607307788987     0.326062223829    -0.000000862920    12.000000000000
         C            2.352834788987    -1.015409776171     0.000004137080    12.000000000000
         H           -1.329443211013    -1.608831776171    -0.000002862920     1.007825032230
         H           -3.647321211013    -1.034468776171     0.891290137080     1.007825032230
         H           -3.647336211013    -1.034493776171    -0.891262862920     1.007825032230
         H           -3.447409211013     0.494117223829    -0.000009862920     1.007825032230
         H            3.494600788987     0.939606223829    -0.000002862920     1.007825032230
         H            3.053349788987    -1.838242776171     0.000008137080     1.007825032230

  Basis Set: AUG-CC-PVTZ
    Blend: AUG-CC-PVTZ
  Basis Set: (AUG-CC-PVTZ AUX)
    Blend: AUG-CC-PVTZ-JKFIT
	 Reference Energy          =    -451.6032958505479655 [Eh]
	 Singles Energy            =      -0.0000000000000000 [Eh]
	 Same-Spin Energy          =      -0.4635486008426936 [Eh]
	 Opposite-Spin Energy      =      -1.3938681711723619 [Eh]
	 Correlation Energy        =      -1.8574167720150556 [Eh]
	 Total Energy              =    -453.4607126225629941 [Eh]

	 ================> DF-SCS-MP2 Energies <==================
	-----------------------------------------------------------
	 SCS Same-Spin Scale       =       0.3333333333333333 [-]
	 SCS Opposite-Spin Scale   =       1.2000000000000000 [-]
	 SCS Same-Spin Energy      =      -0.1545162002808979 [Eh]
	 SCS Opposite-Spin Energy  =      -1.6726418054068344 [Eh]
	 SCS Correlation Energy    =      -1.8271580056877323 [Eh]
	 SCS Total Energy          =    -453.4304538562357152 [Eh]
	-----------------------------------------------------------

  Dipole Moment: [D]
     X:     1.2623      Y:    -2.6132      Z:     0.0000     Total:     2.9021

*** Psi4 exiting successfully. Buy a developer a beer!
