                               Psi4 1.3.2 release

  ==> Input File <==

--------------------------------------------------------------------------
#psi4
#
memory 32 gb

molecule  {
0 1
  O        1.4499930     1.0206980    -0.0000040
  O       -1.2728880     1.6029860     0.0000050
  N       -1.7320990    -0.6616920    -0.0000100
  N        1.0253160    -1.1826400     0.0000030
  C        0.5211730     0.0320620    -0.0000010
  C       -1.1087518     0.4754210    -0.0000010
  C       -3.1757780    -0.5360000     0.0000030
  C        2.6470610     0.3608020    -0.0000010
  C        2.3925880    -0.9806700     0.0000040
  H       -1.2896900    -1.5740920    -0.0000030
  H       -3.6075680    -0.9997290     0.8912900
  H       -3.6075830    -0.9997540    -0.8912630
  H       -3.4076560     0.5288570    -0.0000100
  H        3.5343540     0.9743460    -0.0000030
  H        3.0931030    -1.8035030     0.0000080
units angstrom
no_reorient  #important for SAPT in psi4, default
symmetry c1  #important for SAPT in psi4, default
}

set PROPERTIES_ORIGIN ["COM"]
properties('MP2/aug-cc-pvtz', properties = ['dipole'])
--------------------------------------------------------------------------

    Molecular point group: c1
  Charge       = 0
  Multiplicity = 1
  Basis Set: AUG-CC-PVTZ
    Blend: AUG-CC-PVTZ
  Basis Set: (AUG-CC-PVTZ AUX)
    Blend: AUG-CC-PVTZ-JKFIT

    Orbital Energies [Eh]
    ---------------------

    Doubly Occupied:

       1A    -20.640478     2A    -20.552328     3A    -15.608681
       4A    -15.570802     5A    -11.382599     6A    -11.335024
       7A    -11.295737     8A    -11.274432     9A    -11.265514
      10A     -1.485428    11A     -1.456594    12A     -1.287905
      13A     -1.229545    14A     -1.031228    15A     -0.975130
      16A     -0.843332    17A     -0.831312    18A     -0.812377
      19A     -0.759701    20A     -0.691425    21A     -0.670840
      22A     -0.669949    23A     -0.645341    24A     -0.611971
      25A     -0.601882    26A     -0.579972    27A     -0.575393
      28A     -0.568298    29A     -0.473431    30A     -0.457061
      31A     -0.428453    32A     -0.424997    33A     -0.337439

  @DF-RHF Final Energy:  -451.57753124370015

   => Energetics <=

    Nuclear Repulsion Energy =            432.8693839986460716
    One-Electron Energy =               -1474.1446314827569495
    Two-Electron Energy =                 589.6977162404107276
    Total Energy =                       -451.5775312437001503
  Basis Set: (AUG-CC-PVTZ AUX)
    Blend: AUG-CC-PVTZ-RI
    Molecular point group: c1

    Geometry (in Angstrom), charge = 0, multiplicity = 1:

       Center              X                  Y                   Z               Mass
    ------------   -----------------  -----------------  -----------------  -----------------
         O            1.426788560444     0.985357057214    -0.000003881961    15.994914619570
         O           -1.296092439556     1.567645057214     0.000005118039    15.994914619570
         N           -1.755303439556    -0.697032942786    -0.000009881961    14.003074004430
         N            1.002111560444    -1.217980942786     0.000003118039    14.003074004430
         C            0.497968560444    -0.003278942786    -0.000000881961    12.000000000000
         C           -1.131956239556     0.440080057214    -0.000000881961    12.000000000000
         C           -3.198982439556    -0.571340942786     0.000003118039    12.000000000000
         C            2.623856560444     0.325461057214    -0.000000881961    12.000000000000
         C            2.369383560444    -1.016010942786     0.000004118039    12.000000000000
         H           -1.312894439556    -1.609432942786    -0.000002881961     1.007825032230
         H           -3.630772439556    -1.035069942786     0.891290118039     1.007825032230
         H           -3.630787439556    -1.035094942786    -0.891262881961     1.007825032230
         H           -3.430860439556     0.493516057214    -0.000009881961     1.007825032230
         H            3.511149560444     0.939005057214    -0.000002881961     1.007825032230
         H            3.069898560444    -1.838843942786     0.000008118039     1.007825032230

  Basis Set: AUG-CC-PVTZ
    Blend: AUG-CC-PVTZ
  Basis Set: (AUG-CC-PVTZ AUX)
    Blend: AUG-CC-PVTZ-JKFIT
	 Reference Energy          =    -451.5775312437001503 [Eh]
	 Singles Energy            =      -0.0000000000000000 [Eh]
	 Same-Spin Energy          =      -0.4599041252011947 [Eh]
	 Opposite-Spin Energy      =      -1.3874148813833442 [Eh]
	 Correlation Energy        =      -1.8473190065845388 [Eh]
	 Total Energy              =    -453.4248502502846918 [Eh]

	 ================> DF-SCS-MP2 Energies <==================
	-----------------------------------------------------------
	 SCS Same-Spin Scale       =       0.3333333333333333 [-]
	 SCS Opposite-Spin Scale   =       1.2000000000000000 [-]
	 SCS Same-Spin Energy      =      -0.1533013750670649 [Eh]
	 SCS Opposite-Spin Energy  =      -1.6648978576600131 [Eh]
	 SCS Correlation Energy    =      -1.8181992327270780 [Eh]
	 SCS Total Energy          =    -453.3957304764272180 [Eh]
	-----------------------------------------------------------

  Dipole Moment: [D]
     X:    -0.4410      Y:    -2.2658      Z:     0.0000     Total:     2.3084

*** Psi4 exiting successfully. Buy a developer a beer!
