                               Psi4 1.4a3.dev225

  ==> Input File <==

--------------------------------------------------------------------------
#psi4
#
memory 32 gb

molecule  {
0 1
  O        1.4499930     1.0206980    -0.0000040
  O       -1.2728880     1.6029860     0.0000050
  N       -1.7320990    -0.6616920    -0.0000100
  N        1.0253160    -1.1826400     0.0000030
  C        0.5554088     0.0685025    -0.0000011
  C       -0.9157640     0.4229260    -0.0000010
  C       -3.1757780    -0.5360000     0.0000030
  C        2.6470610     0.3608020    -0.0000010
  C        2.3925880    -0.9806700     0.0000040
  H       -1.2896900    -1.5740920    -0.0000030
  H       -3.6075680    -0.9997290     0.8912900
  H       -3.6075830    -0.9997540    -0.8912630
  H       -3.4076560     0.5288570    -0.0000100
  H        3.5343540     0.9743460    -0.0000030
  H        3.0931030    -1.8035030     0.0000080
units angstrom
no_reorient  #important for SAPT in psi4, default
symmetry c1  #important for SAPT in psi4, default
}

set PROPERTIES_ORIGIN ["COM"]
properties('MP2/aug-cc-pvtz', properties = ['dipole'])
--------------------------------------------------------------------------

    Molecular point group: c1
  Charge       = 0
  Multiplicity = 1
  Basis Set: AUG-CC-PVTZ
    Blend: AUG-CC-PVTZ
  Basis Set: (AUG-CC-PVTZ AUX)
    Blend: AUG-CC-PVTZ-JKFIT

    Orbital Energies [Eh]
    ---------------------

    Doubly Occupied:

       1A    -20.667637     2A    -20.532465     3A    -15.597149
       4A    -15.592503     5A    -11.375094     6A    -11.359174
       7A    -11.313276     8A    -11.282923     9A    -11.265885
      10A     -1.526060    11A     -1.384676    12A     -1.256838
      13A     -1.232976    14A     -1.061932    15A     -0.969351
      16A     -0.873667    17A     -0.850757    18A     -0.796951
      19A     -0.777180    20A     -0.691062    21A     -0.680297
      22A     -0.655125    23A     -0.628202    24A     -0.621035
      25A     -0.603411    26A     -0.588605    27A     -0.553991
      28A     -0.545475    29A     -0.490053    30A     -0.469253
      31A     -0.445371    32A     -0.399389    33A     -0.353735

  @DF-RHF Final Energy:  -451.60862661227748

   => Energetics <=

    Nuclear Repulsion Energy =            433.3341956538388331
    One-Electron Energy =               -1475.0026453032717200
    Two-Electron Energy =                 590.0598230371554109
    Total Energy =                       -451.6086266122774759
  Basis Set: (AUG-CC-PVTZ AUX)
    Blend: AUG-CC-PVTZ-RI
    Molecular point group: c1

    Geometry (in Angstrom), charge = 0, multiplicity = 1:

       Center              X                  Y                   Z               Mass
    ------------   -----------------  -----------------  -----------------  -----------------
         O            1.405155587810     0.986885536470    -0.000003872441    15.994914619570
         O           -1.317725412190     1.569173536470     0.000005127559    15.994914619570
         N           -1.776936412190    -0.695504463530    -0.000009872441    14.003074004430
         N            0.980478587810    -1.216452463530     0.000003127559    14.003074004430
         C            0.510571387810     0.034690036470    -0.000000972441    12.000000000000
         C           -0.960601412190     0.389113536470    -0.000000872441    12.000000000000
         C           -3.220615412190    -0.569812463530     0.000003127559    12.000000000000
         C            2.602223587810     0.326989536470    -0.000000872441    12.000000000000
         C            2.347750587810    -1.014482463530     0.000004127559    12.000000000000
         H           -1.334527412190    -1.607904463530    -0.000002872441     1.007825032230
         H           -3.652405412190    -1.033541463530     0.891290127559     1.007825032230
         H           -3.652420412190    -1.033566463530    -0.891262872441     1.007825032230
         H           -3.452493412190     0.495044536470    -0.000009872441     1.007825032230
         H            3.489516587810     0.940533536470    -0.000002872441     1.007825032230
         H            3.048265587810    -1.837315463530     0.000008127559     1.007825032230

  Basis Set: AUG-CC-PVTZ
    Blend: AUG-CC-PVTZ
  Basis Set: (AUG-CC-PVTZ AUX)
    Blend: AUG-CC-PVTZ-JKFIT
	 Reference Energy          =    -451.6086266122774759 [Eh]
	 Singles Energy            =      -0.0000000000000000 [Eh]
	 Same-Spin Energy          =      -0.4618205114300681 [Eh]
	 Opposite-Spin Energy      =      -1.3909046580199040 [Eh]
	 Correlation Energy        =      -1.8527251694499722 [Eh]
	 Total Energy              =    -453.4613517817274442 [Eh]

	 ================> DF-SCS-MP2 Energies <==================
	-----------------------------------------------------------
	 SCS Same-Spin Scale       =       0.3333333333333333 [-]
	 SCS Opposite-Spin Scale   =       1.2000000000000000 [-]
	 SCS Same-Spin Energy      =      -0.1539401704766894 [Eh]
	 SCS Opposite-Spin Energy  =      -1.6690855896238848 [Eh]
	 SCS Correlation Energy    =      -1.8230257601005742 [Eh]
	 SCS Total Energy          =    -453.4316523723780392 [Eh]
	-----------------------------------------------------------

  Dipole Moment: [D]
     X:     1.2142      Y:    -2.5952      Z:     0.0000     Total:     2.8652

*** Psi4 exiting successfully. Buy a developer a beer!
