                               Psi4 1.4a3.dev225

  ==> Input File <==

--------------------------------------------------------------------------
#psi4
#
memory 32 gb

molecule  {
0 1
  O        1.4499930     1.0206980    -0.0000040
  O       -1.2728880     1.6029860     0.0000050
  N       -1.7320990    -0.6616920    -0.0000100
  N        1.0253160    -1.1826400     0.0000030
  C        0.5211730     0.0320620    -0.0000010
  C       -0.9157640     0.4229260    -0.0000010
  C       -3.1757780    -0.5360000     0.0000030
  C        2.6470610     0.3608020    -0.0000010
  C        2.3925880    -0.9806700     0.0000040
  H       -1.2896900    -1.5740920    -0.0000030
  H       -3.6075680    -0.9997290     0.8912900
  H       -3.6075830    -0.9997540    -0.8912630
  H       -3.4076560     0.5288570    -0.0000100
  H        3.5343540     0.9743460    -0.0000030
  H        3.0606909    -1.7654313     0.0000078
units angstrom
no_reorient  #important for SAPT in psi4, default
symmetry c1  #important for SAPT in psi4, default
}

set PROPERTIES_ORIGIN ["COM"]
properties('MP2/aug-cc-pvtz', properties = ['dipole'])
--------------------------------------------------------------------------

    Molecular point group: c1
  Charge       = 0
  Multiplicity = 1
  Basis Set: AUG-CC-PVTZ
    Blend: AUG-CC-PVTZ
  Basis Set: (AUG-CC-PVTZ AUX)
    Blend: AUG-CC-PVTZ-JKFIT

    Orbital Energies [Eh]
    ---------------------

    Doubly Occupied:

       1A    -20.659028     2A    -20.533278     3A    -15.597173
       4A    -15.595822     5A    -11.374729     6A    -11.357209
       7A    -11.315992     8A    -11.276213     9A    -11.265835
      10A     -1.503436    11A     -1.385199    12A     -1.261158
      13A     -1.234752    14A     -1.062456    15A     -0.971234
      16A     -0.875781    17A     -0.852414    18A     -0.794649
      19A     -0.775609    20A     -0.680906    21A     -0.679874
      22A     -0.658926    23A     -0.627825    24A     -0.626172
      25A     -0.599183    26A     -0.591924    27A     -0.554277
      28A     -0.546429    29A     -0.491116    30A     -0.471430
      31A     -0.447349    32A     -0.399895    33A     -0.354649

  @DF-RHF Final Energy:  -451.60887544690394

   => Energetics <=

    Nuclear Repulsion Energy =            433.4079052628081854
    One-Electron Energy =               -1475.1897154645030241
    Two-Electron Energy =                 590.1729347547909583
    Total Energy =                       -451.6088754469039941
  Basis Set: (AUG-CC-PVTZ AUX)
    Blend: AUG-CC-PVTZ-RI
    Molecular point group: c1

    Geometry (in Angstrom), charge = 0, multiplicity = 1:

       Center              X                  Y                   Z               Mass
    ------------   -----------------  -----------------  -----------------  -----------------
         O            1.408674193215     0.990050461277    -0.000003880362    15.994914619570
         O           -1.314206806785     1.572338461277     0.000005119638    15.994914619570
         N           -1.773417806785    -0.692339538723    -0.000009880362    14.003074004430
         N            0.983997193215    -1.213287538723     0.000003119638    14.003074004430
         C            0.479854193215     0.001414461277    -0.000000880362    12.000000000000
         C           -0.957082806785     0.392278461277    -0.000000880362    12.000000000000
         C           -3.217096806785    -0.566647538723     0.000003119638    12.000000000000
         C            2.605742193215     0.330154461277    -0.000000880362    12.000000000000
         C            2.351269193215    -1.011317538723     0.000004119638    12.000000000000
         H           -1.331008806785    -1.604739538723    -0.000002880362     1.007825032230
         H           -3.648886806785    -1.030376538723     0.891290119638     1.007825032230
         H           -3.648901806785    -1.030401538723    -0.891262880362     1.007825032230
         H           -3.448974806785     0.498209461277    -0.000009880362     1.007825032230
         H            3.493035193215     0.943698461277    -0.000002880362     1.007825032230
         H            3.019372093215    -1.796078838723     0.000007919638     1.007825032230

  Basis Set: AUG-CC-PVTZ
    Blend: AUG-CC-PVTZ
  Basis Set: (AUG-CC-PVTZ AUX)
    Blend: AUG-CC-PVTZ-JKFIT
	 Reference Energy          =    -451.6088754469039372 [Eh]
	 Singles Energy            =      -0.0000000000000000 [Eh]
	 Same-Spin Energy          =      -0.4621003862212486 [Eh]
	 Opposite-Spin Energy      =      -1.3916673277357607 [Eh]
	 Correlation Energy        =      -1.8537677139570095 [Eh]
	 Total Energy              =    -453.4626431608609209 [Eh]

	 ================> DF-SCS-MP2 Energies <==================
	-----------------------------------------------------------
	 SCS Same-Spin Scale       =       0.3333333333333333 [-]
	 SCS Opposite-Spin Scale   =       1.2000000000000000 [-]
	 SCS Same-Spin Energy      =      -0.1540334620737495 [Eh]
	 SCS Opposite-Spin Energy  =      -1.6700007932829128 [Eh]
	 SCS Correlation Energy    =      -1.8240342553566624 [Eh]
	 SCS Total Energy          =    -453.4329097022605879 [Eh]
	-----------------------------------------------------------

  Dipole Moment: [D]
     X:     1.1520      Y:    -2.6864      Z:     0.0000     Total:     2.9230

*** Psi4 exiting successfully. Buy a developer a beer!
