                               Psi4 1.3.2 release

  ==> Input File <==

--------------------------------------------------------------------------
#psi4
#
memory 32 gb

molecule  {
0 1
  O        1.4499930     1.0206980    -0.0000040
  O       -1.2728880     1.6029860     0.0000050
  N       -1.8410005    -0.5704201    -0.0000096
  N        1.0253160    -1.1826400     0.0000030
  C        0.5211730     0.0320620    -0.0000010
  C       -0.9157640     0.4229260    -0.0000010
  C       -3.1757780    -0.5360000     0.0000030
  C        2.6470610     0.3608020    -0.0000010
  C        2.3925880    -0.9806700     0.0000040
  H       -1.2896900    -1.5740920    -0.0000030
  H       -3.6075680    -0.9997290     0.8912900
  H       -3.6075830    -0.9997540    -0.8912630
  H       -3.4076560     0.5288570    -0.0000100
  H        3.5343540     0.9743460    -0.0000030
  H        3.0931030    -1.8035030     0.0000080
units angstrom
no_reorient  #important for SAPT in psi4, default
symmetry c1  #important for SAPT in psi4, default
}

set PROPERTIES_ORIGIN ["COM"]
properties('MP2/aug-cc-pvtz', properties = ['dipole'])
--------------------------------------------------------------------------

    Molecular point group: c1
  Charge       = 0
  Multiplicity = 1
  Basis Set: AUG-CC-PVTZ
    Blend: AUG-CC-PVTZ
  Basis Set: (AUG-CC-PVTZ AUX)
    Blend: AUG-CC-PVTZ-JKFIT

    Orbital Energies [Eh]
    ---------------------

    Doubly Occupied:

       1A    -20.664139     2A    -20.528089     3A    -15.601599
       4A    -15.601027     5A    -11.375423     6A    -11.364814
       7A    -11.320602     8A    -11.285314     9A    -11.255421
      10A     -1.508147    11A     -1.387564    12A     -1.264129
      13A     -1.245496    14A     -1.068222    15A     -0.981335
      16A     -0.874485    17A     -0.851659    18A     -0.787958
      19A     -0.758102    20A     -0.687970    21A     -0.684597
      22A     -0.663832    23A     -0.641263    24A     -0.633277
      25A     -0.604055    26A     -0.595290    27A     -0.542774
      28A     -0.527126    29A     -0.493154    30A     -0.475301
      31A     -0.444841    32A     -0.387569    33A     -0.358735

  @DF-RHF Final Energy:  -451.57897681290461

   => Energetics <=

    Nuclear Repulsion Energy =            433.5698991141123315
    One-Electron Energy =               -1475.3711323508568967
    Two-Electron Energy =                 590.2222564238400082
    Total Energy =                       -451.5789768129045569
  Basis Set: (AUG-CC-PVTZ AUX)
    Blend: AUG-CC-PVTZ-RI
    Molecular point group: c1

    Geometry (in Angstrom), charge = 0, multiplicity = 1:

       Center              X                  Y                   Z               Mass
    ------------   -----------------  -----------------  -----------------  -----------------
         O            1.420513731286     0.980214783995    -0.000003926400    15.994914619570
         O           -1.302367268714     1.562502783995     0.000005073600    15.994914619570
         N           -1.870479768714    -0.610903316005    -0.000009526400    14.003074004430
         N            0.995836731286    -1.223123216005     0.000003073600    14.003074004430
         C            0.491693731286    -0.008421216005    -0.000000926400    12.000000000000
         C           -0.945243268714     0.382442783995    -0.000000926400    12.000000000000
         C           -3.205257268714    -0.576483216005     0.000003073600    12.000000000000
         C            2.617581731286     0.320318783995    -0.000000926400    12.000000000000
         C            2.363108731286    -1.021153216005     0.000004073600    12.000000000000
         H           -1.319169268714    -1.614575216005    -0.000002926400     1.007825032230
         H           -3.637047268714    -1.040212216005     0.891290073600     1.007825032230
         H           -3.637062268714    -1.040237216005    -0.891262926400     1.007825032230
         H           -3.437135268714     0.488373783995    -0.000009926400     1.007825032230
         H            3.504874731286     0.933862783995    -0.000002926400     1.007825032230
         H            3.063623731286    -1.843986216005     0.000008073600     1.007825032230

  Basis Set: AUG-CC-PVTZ
    Blend: AUG-CC-PVTZ
  Basis Set: (AUG-CC-PVTZ AUX)
    Blend: AUG-CC-PVTZ-JKFIT
	 Reference Energy          =    -451.5789768129046138 [Eh]
	 Singles Energy            =      -0.0000000000000000 [Eh]
	 Same-Spin Energy          =      -0.4641366845570166 [Eh]
	 Opposite-Spin Energy      =      -1.3948876111925488 [Eh]
	 Correlation Energy        =      -1.8590242957495653 [Eh]
	 Total Energy              =    -453.4380011086541913 [Eh]

	 ================> DF-SCS-MP2 Energies <==================
	-----------------------------------------------------------
	 SCS Same-Spin Scale       =       0.3333333333333333 [-]
	 SCS Opposite-Spin Scale   =       1.2000000000000000 [-]
	 SCS Same-Spin Energy      =      -0.1547122281856722 [Eh]
	 SCS Opposite-Spin Energy  =      -1.6738651334310586 [Eh]
	 SCS Correlation Energy    =      -1.8285773616167307 [Eh]
	 SCS Total Energy          =    -453.4075541745213513 [Eh]
	-----------------------------------------------------------

  Dipole Moment: [D]
     X:     1.5617      Y:    -2.7726      Z:     0.0000     Total:     3.1822

*** Psi4 exiting successfully. Buy a developer a beer!
