                               Psi4 1.3.2 release

  ==> Input File <==

--------------------------------------------------------------------------
#psi4
#
memory 32 gb

molecule  {
0 1
  O        1.4499930     1.0206980    -0.0000040
  O       -1.2728880     1.6029860     0.0000050
  N       -1.7320990    -0.6616920    -0.0000100
  N        1.0253160    -1.1826400     0.0000030
  C        0.5211730     0.0320620    -0.0000010
  C       -0.9157640     0.4229260    -0.0000010
  C       -3.1757780    -0.5360000     0.0000030
  C        2.7858890     0.3268536    -0.0000007
  C        2.3925880    -0.9806700     0.0000040
  H       -1.2896900    -1.5740920    -0.0000030
  H       -3.6075680    -0.9997290     0.8912900
  H       -3.6075830    -0.9997540    -0.8912630
  H       -3.4076560     0.5288570    -0.0000100
  H        3.5343540     0.9743460    -0.0000030
  H        3.0931030    -1.8035030     0.0000080
units angstrom
no_reorient  #important for SAPT in psi4, default
symmetry c1  #important for SAPT in psi4, default
}

set PROPERTIES_ORIGIN ["COM"]
properties('MP2/aug-cc-pvtz', properties = ['dipole'])
--------------------------------------------------------------------------

    Molecular point group: c1
  Charge       = 0
  Multiplicity = 1
  Basis Set: AUG-CC-PVTZ
    Blend: AUG-CC-PVTZ
  Basis Set: (AUG-CC-PVTZ AUX)
    Blend: AUG-CC-PVTZ-JKFIT

    Orbital Energies [Eh]
    ---------------------

    Doubly Occupied:

       1A    -20.639204     2A    -20.535728     3A    -15.599893
       4A    -15.592513     5A    -11.376665     6A    -11.364323
       7A    -11.315336     8A    -11.294516     9A    -11.267278
      10A     -1.458998    11A     -1.385333    12A     -1.256828
      13A     -1.232364    14A     -1.061586    15A     -0.976034
      16A     -0.873423    17A     -0.851048    18A     -0.789378
      19A     -0.766025    20A     -0.684855    21A     -0.661431
      22A     -0.659100    23A     -0.630370    24A     -0.624724
      25A     -0.599523    26A     -0.563845    27A     -0.554939
      28A     -0.544817    29A     -0.489998    30A     -0.465667
      31A     -0.449018    32A     -0.401272    33A     -0.363624

  @DF-RHF Final Energy:  -451.58544199664976

   => Energetics <=

    Nuclear Repulsion Energy =            430.2109418879016971
    One-Electron Energy =               -1468.9334526826351066
    Two-Electron Energy =                 587.1370687980835328
    Total Energy =                       -451.5854419966498199
  Basis Set: (AUG-CC-PVTZ AUX)
    Blend: AUG-CC-PVTZ-RI
    Molecular point group: c1

    Geometry (in Angstrom), charge = 0, multiplicity = 1:

       Center              X                  Y                   Z               Mass
    ------------   -----------------  -----------------  -----------------  -----------------
         O            1.395197818458     0.993586958098    -0.000003910523    15.994914619570
         O           -1.327683181542     1.575874958098     0.000005089477    15.994914619570
         N           -1.786894181542    -0.688803041902    -0.000009910523    14.003074004430
         N            0.970520818458    -1.209751041902     0.000003089477    14.003074004430
         C            0.466377818458     0.004950958098    -0.000000910523    12.000000000000
         C           -0.970559181542     0.395814958098    -0.000000910523    12.000000000000
         C           -3.230573181542    -0.563111041902     0.000003089477    12.000000000000
         C            2.731093818458     0.299742558098    -0.000000610523    12.000000000000
         C            2.337792818458    -1.007781041902     0.000004089477    12.000000000000
         H           -1.344485181542    -1.601203041902    -0.000002910523     1.007825032230
         H           -3.662363181542    -1.026840041902     0.891290089477     1.007825032230
         H           -3.662378181542    -1.026865041902    -0.891262910523     1.007825032230
         H           -3.462451181542     0.501745958098    -0.000009910523     1.007825032230
         H            3.479558818458     0.947234958098    -0.000002910523     1.007825032230
         H            3.038307818458    -1.830614041902     0.000008089477     1.007825032230

  Basis Set: AUG-CC-PVTZ
    Blend: AUG-CC-PVTZ
  Basis Set: (AUG-CC-PVTZ AUX)
    Blend: AUG-CC-PVTZ-JKFIT
	 Reference Energy          =    -451.5854419966497630 [Eh]
	 Singles Energy            =      -0.0000000000000000 [Eh]
	 Same-Spin Energy          =      -0.4621203173693542 [Eh]
	 Opposite-Spin Energy      =      -1.3950606549974545 [Eh]
	 Correlation Energy        =      -1.8571809723668087 [Eh]
	 Total Energy              =    -453.4426229690165542 [Eh]

	 ================> DF-SCS-MP2 Energies <==================
	-----------------------------------------------------------
	 SCS Same-Spin Scale       =       0.3333333333333333 [-]
	 SCS Opposite-Spin Scale   =       1.2000000000000000 [-]
	 SCS Same-Spin Energy      =      -0.1540401057897847 [Eh]
	 SCS Opposite-Spin Energy  =      -1.6740727859969453 [Eh]
	 SCS Correlation Energy    =      -1.8281128917867300 [Eh]
	 SCS Total Energy          =    -453.4135548884364653 [Eh]
	-----------------------------------------------------------

  Dipole Moment: [D]
     X:     1.1763      Y:    -2.7866      Z:     0.0000     Total:     3.0247

*** Psi4 exiting successfully. Buy a developer a beer!
