                               Psi4 1.3.2 release

  ==> Input File <==

--------------------------------------------------------------------------
#psi4
#
memory 32 gb

molecule  {
0 1
  O        1.4499930     1.0206980    -0.0000040
  O       -1.2728880     1.6029860     0.0000050
  N       -1.7320990    -0.6616920    -0.0000100
  N        1.0253160    -1.1826400     0.0000030
  C        0.4790876     0.0137277    -0.0000010
  C       -0.9157640     0.4229260    -0.0000010
  C       -3.1757780    -0.5360000     0.0000030
  C        2.6470610     0.3608020    -0.0000010
  C        2.3925880    -0.9806700     0.0000040
  H       -1.2896900    -1.5740920    -0.0000030
  H       -3.6075680    -0.9997290     0.8912900
  H       -3.6075830    -0.9997540    -0.8912630
  H       -3.4076560     0.5288570    -0.0000100
  H        3.5343540     0.9743460    -0.0000030
  H        3.0931030    -1.8035030     0.0000080
units angstrom
no_reorient  #important for SAPT in psi4, default
symmetry c1  #important for SAPT in psi4, default
}

set PROPERTIES_ORIGIN ["COM"]
properties('MP2/aug-cc-pvtz', properties = ['dipole'])
--------------------------------------------------------------------------

    Molecular point group: c1
  Charge       = 0
  Multiplicity = 1
  Basis Set: AUG-CC-PVTZ
    Blend: AUG-CC-PVTZ
  Basis Set: (AUG-CC-PVTZ AUX)
    Blend: AUG-CC-PVTZ-JKFIT

    Orbital Energies [Eh]
    ---------------------

    Doubly Occupied:

       1A    -20.652933     2A    -20.533968     3A    -15.600725
       4A    -15.597391     5A    -11.373888     6A    -11.357299
       7A    -11.318902     8A    -11.281058     9A    -11.265968
      10A     -1.486248    11A     -1.386362    12A     -1.261284
      13A     -1.234411    14A     -1.063448    15A     -0.973563
      16A     -0.878652    17A     -0.846244    18A     -0.792092
      19A     -0.770896    20A     -0.682166    21A     -0.671895
      22A     -0.658722    23A     -0.627314    24A     -0.620237
      25A     -0.601035    26A     -0.584976    27A     -0.554618
      28A     -0.547901    29A     -0.488714    30A     -0.470999
      31A     -0.449785    32A     -0.400572    33A     -0.354025

  @DF-RHF Final Energy:  -451.60391345725895

   => Energetics <=

    Nuclear Repulsion Energy =            432.9468651871440557
    One-Electron Energy =               -1474.3249704877941895
    Two-Electron Energy =                 589.7741918433911223
    Total Energy =                       -451.6039134572589546
  Basis Set: (AUG-CC-PVTZ AUX)
    Blend: AUG-CC-PVTZ-RI
    Molecular point group: c1

    Geometry (in Angstrom), charge = 0, multiplicity = 1:

       Center              X                  Y                   Z               Mass
    ------------   -----------------  -----------------  -----------------  -----------------
         O            1.412421797971     0.992100407414    -0.000003881961    15.994914619570
         O           -1.310459202029     1.574388407414     0.000005118039    15.994914619570
         N           -1.769670202029    -0.690289592586    -0.000009881961    14.003074004430
         N            0.987744797971    -1.211237592586     0.000003118039    14.003074004430
         C            0.441516397971    -0.014869892586    -0.000000881961    12.000000000000
         C           -0.953335202029     0.394328407414    -0.000000881961    12.000000000000
         C           -3.213349202029    -0.564597592586     0.000003118039    12.000000000000
         C            2.609489797971     0.332204407414    -0.000000881961    12.000000000000
         C            2.355016797971    -1.009267592586     0.000004118039    12.000000000000
         H           -1.327261202029    -1.602689592586    -0.000002881961     1.007825032230
         H           -3.645139202029    -1.028326592586     0.891290118039     1.007825032230
         H           -3.645154202029    -1.028351592586    -0.891262881961     1.007825032230
         H           -3.445227202029     0.500259407414    -0.000009881961     1.007825032230
         H            3.496782797971     0.945748407414    -0.000002881961     1.007825032230
         H            3.055531797971    -1.832100592586     0.000008118039     1.007825032230

  Basis Set: AUG-CC-PVTZ
    Blend: AUG-CC-PVTZ
  Basis Set: (AUG-CC-PVTZ AUX)
    Blend: AUG-CC-PVTZ-JKFIT
	 Reference Energy          =    -451.6039134572589546 [Eh]
	 Singles Energy            =      -0.0000000000000000 [Eh]
	 Same-Spin Energy          =      -0.4632266029975417 [Eh]
	 Opposite-Spin Energy      =      -1.3939029000738095 [Eh]
	 Correlation Energy        =      -1.8571295030713513 [Eh]
	 Total Energy              =    -453.4610429603303032 [Eh]

	 ================> DF-SCS-MP2 Energies <==================
	-----------------------------------------------------------
	 SCS Same-Spin Scale       =       0.3333333333333333 [-]
	 SCS Opposite-Spin Scale   =       1.2000000000000000 [-]
	 SCS Same-Spin Energy      =      -0.1544088676658472 [Eh]
	 SCS Opposite-Spin Energy  =      -1.6726834800885713 [Eh]
	 SCS Correlation Energy    =      -1.8270923477544185 [Eh]
	 SCS Total Energy          =    -453.4310058050133989 [Eh]
	-----------------------------------------------------------

  Dipole Moment: [D]
     X:     1.1158      Y:    -2.7605      Z:     0.0000     Total:     2.9775

*** Psi4 exiting successfully. Buy a developer a beer!
