                               Psi4 1.3.2 release

  ==> Input File <==

--------------------------------------------------------------------------
#psi4
#
memory 32 gb

molecule  {
0 1
  O        1.4499930     1.0206980    -0.0000040
  O       -1.2728880     1.6029860     0.0000050
  N       -1.7694543    -0.6325416    -0.0000099
  N        1.0253160    -1.1826400     0.0000030
  C        0.5211730     0.0320620    -0.0000010
  C       -0.9157640     0.4229260    -0.0000010
  C       -3.1757780    -0.5360000     0.0000030
  C        2.6470610     0.3608020    -0.0000010
  C        2.3925880    -0.9806700     0.0000040
  H       -1.2896900    -1.5740920    -0.0000030
  H       -3.6075680    -0.9997290     0.8912900
  H       -3.6075830    -0.9997540    -0.8912630
  H       -3.4076560     0.5288570    -0.0000100
  H        3.5343540     0.9743460    -0.0000030
  H        3.0931030    -1.8035030     0.0000080
units angstrom
no_reorient  #important for SAPT in psi4, default
symmetry c1  #important for SAPT in psi4, default
}

set PROPERTIES_ORIGIN ["COM"]
properties('MP2/aug-cc-pvtz', properties = ['dipole'])
--------------------------------------------------------------------------

    Molecular point group: c1
  Charge       = 0
  Multiplicity = 1
  Basis Set: AUG-CC-PVTZ
    Blend: AUG-CC-PVTZ
  Basis Set: (AUG-CC-PVTZ AUX)
    Blend: AUG-CC-PVTZ-JKFIT

    Orbital Energies [Eh]
    ---------------------

    Doubly Occupied:

       1A    -20.660858     2A    -20.531418     3A    -15.598600
       4A    -15.598010     5A    -11.374515     6A    -11.359909
       7A    -11.317608     8A    -11.282914     9A    -11.262160
      10A     -1.505134    11A     -1.385642    12A     -1.261789
      13A     -1.237394    14A     -1.063808    15A     -0.974418
      16A     -0.873390    17A     -0.849868    18A     -0.789202
      19A     -0.770300    20A     -0.682849    21A     -0.681514
      22A     -0.658768    23A     -0.631920    24A     -0.625224
      25A     -0.600644    26A     -0.592609    27A     -0.546596
      28A     -0.544999    29A     -0.492151    30A     -0.472850
      31A     -0.446812    32A     -0.395870    33A     -0.356080

  @DF-RHF Final Energy:  -451.60570740698353

   => Energetics <=

    Nuclear Repulsion Energy =            433.2448802431680974
    One-Electron Energy =               -1474.8495273608971274
    Two-Electron Energy =                 589.9989397107455034
    Total Energy =                       -451.6057074069834698
  Basis Set: (AUG-CC-PVTZ AUX)
    Blend: AUG-CC-PVTZ-RI
    Molecular point group: c1

    Geometry (in Angstrom), charge = 0, multiplicity = 1:

       Center              X                  Y                   Z               Mass
    ------------   -----------------  -----------------  -----------------  -----------------
         O            1.412565116050     0.987116337136    -0.000003893071    15.994914619570
         O           -1.310315883950     1.569404337136     0.000005106929    15.994914619570
         N           -1.806882183950    -0.666123262864    -0.000009793071    14.003074004430
         N            0.987888116050    -1.216221662864     0.000003106929    14.003074004430
         C            0.483745116050    -0.001519662864    -0.000000893071    12.000000000000
         C           -0.953191883950     0.389344337136    -0.000000893071    12.000000000000
         C           -3.213205883950    -0.569581662864     0.000003106929    12.000000000000
         C            2.609633116050     0.327220337136    -0.000000893071    12.000000000000
         C            2.355160116050    -1.014251662864     0.000004106929    12.000000000000
         H           -1.327117883950    -1.607673662864    -0.000002893071     1.007825032230
         H           -3.644995883950    -1.033310662864     0.891290106929     1.007825032230
         H           -3.645010883950    -1.033335662864    -0.891262893071     1.007825032230
         H           -3.445083883950     0.495275337136    -0.000009893071     1.007825032230
         H            3.496926116050     0.940764337136    -0.000002893071     1.007825032230
         H            3.055675116050    -1.837084662864     0.000008106929     1.007825032230

  Basis Set: AUG-CC-PVTZ
    Blend: AUG-CC-PVTZ
  Basis Set: (AUG-CC-PVTZ AUX)
    Blend: AUG-CC-PVTZ-JKFIT
	 Reference Energy          =    -451.6057074069835267 [Eh]
	 Singles Energy            =      -0.0000000000000000 [Eh]
	 Same-Spin Energy          =      -0.4626875127633829 [Eh]
	 Opposite-Spin Energy      =      -1.3925198328222830 [Eh]
	 Correlation Energy        =      -1.8552073455856659 [Eh]
	 Total Energy              =    -453.4609147525691810 [Eh]

	 ================> DF-SCS-MP2 Energies <==================
	-----------------------------------------------------------
	 SCS Same-Spin Scale       =       0.3333333333333333 [-]
	 SCS Opposite-Spin Scale   =       1.2000000000000000 [-]
	 SCS Same-Spin Energy      =      -0.1542291709211276 [Eh]
	 SCS Opposite-Spin Energy  =      -1.6710237993867396 [Eh]
	 SCS Correlation Energy    =      -1.8252529703078673 [Eh]
	 SCS Total Energy          =    -453.4309603772913988 [Eh]
	-----------------------------------------------------------

  Dipole Moment: [D]
     X:     1.2875      Y:    -2.7305      Z:     0.0000     Total:     3.0188

*** Psi4 exiting successfully. Buy a developer a beer!
