                               Psi4 1.3.2 release

  ==> Input File <==

--------------------------------------------------------------------------
#psi4
#
memory 32 gb

molecule  {
0 1
  O        1.4068770     0.9355873    -0.0000037
  O       -1.2728880     1.6029860     0.0000050
  N       -1.7320990    -0.6616920    -0.0000100
  N        1.0253160    -1.1826400     0.0000030
  C        0.5211730     0.0320620    -0.0000010
  C       -0.9157640     0.4229260    -0.0000010
  C       -3.1757780    -0.5360000     0.0000030
  C        2.6470610     0.3608020    -0.0000010
  C        2.3925880    -0.9806700     0.0000040
  H       -1.2896900    -1.5740920    -0.0000030
  H       -3.6075680    -0.9997290     0.8912900
  H       -3.6075830    -0.9997540    -0.8912630
  H       -3.4076560     0.5288570    -0.0000100
  H        3.5343540     0.9743460    -0.0000030
  H        3.0931030    -1.8035030     0.0000080
units angstrom
no_reorient  #important for SAPT in psi4, default
symmetry c1  #important for SAPT in psi4, default
}

set PROPERTIES_ORIGIN ["COM"]
properties('MP2/aug-cc-pvtz', properties = ['dipole'])
--------------------------------------------------------------------------

    Molecular point group: c1
  Charge       = 0
  Multiplicity = 1
  Basis Set: AUG-CC-PVTZ
    Blend: AUG-CC-PVTZ
  Basis Set: (AUG-CC-PVTZ AUX)
    Blend: AUG-CC-PVTZ-JKFIT

    Orbital Energies [Eh]
    ---------------------

    Doubly Occupied:

       1A    -20.659732     2A    -20.533956     3A    -15.597002
       4A    -15.581857     5A    -11.374032     6A    -11.349948
       7A    -11.313095     8A    -11.281821     9A    -11.265604
      10A     -1.540743    11A     -1.385788    12A     -1.255338
      13A     -1.230884    14A     -1.074474    15A     -0.972993
      16A     -0.877902    17A     -0.852769    18A     -0.796218
      19A     -0.779686    20A     -0.699899    21A     -0.691285
      22A     -0.656357    23A     -0.628328    24A     -0.623819
      25A     -0.603034    26A     -0.581427    27A     -0.553835
      28A     -0.545989    29A     -0.481258    30A     -0.463639
      31A     -0.447586    32A     -0.399822    33A     -0.357472

  @DF-RHF Final Energy:  -451.60816910137822

   => Energetics <=

    Nuclear Repulsion Energy =            436.0172180186418700
    One-Electron Energy =               -1480.3355895163824698
    Two-Electron Energy =                 592.7102023963624333
    Total Energy =                       -451.6081691013781665
  Basis Set: (AUG-CC-PVTZ AUX)
    Blend: AUG-CC-PVTZ-RI
    Molecular point group: c1

    Geometry (in Angstrom), charge = 0, multiplicity = 1:

       Center              X                  Y                   Z               Mass
    ------------   -----------------  -----------------  -----------------  -----------------
         O            1.370770473081     0.916044771454    -0.000003620032    15.994914619570
         O           -1.308994526919     1.583443471454     0.000005079968    15.994914619570
         N           -1.768205526919    -0.681234528546    -0.000009920032    14.003074004430
         N            0.989209473081    -1.202182528546     0.000003079968    14.003074004430
         C            0.485066473081     0.012519471454    -0.000000920032    12.000000000000
         C           -0.951870526919     0.403383471454    -0.000000920032    12.000000000000
         C           -3.211884526919    -0.555542528546     0.000003079968    12.000000000000
         C            2.610954473081     0.341259471454    -0.000000920032    12.000000000000
         C            2.356481473081    -1.000212528546     0.000004079968    12.000000000000
         H           -1.325796526919    -1.593634528546    -0.000002920032     1.007825032230
         H           -3.643674526919    -1.019271528546     0.891290079968     1.007825032230
         H           -3.643689526919    -1.019296528546    -0.891262920032     1.007825032230
         H           -3.443762526919     0.509314471454    -0.000009920032     1.007825032230
         H            3.498247473081     0.954803471454    -0.000002920032     1.007825032230
         H            3.056996473081    -1.823045528546     0.000008079968     1.007825032230

  Basis Set: AUG-CC-PVTZ
    Blend: AUG-CC-PVTZ
  Basis Set: (AUG-CC-PVTZ AUX)
    Blend: AUG-CC-PVTZ-JKFIT
	 Reference Energy          =    -451.6081691013782233 [Eh]
	 Singles Energy            =      -0.0000000000000000 [Eh]
	 Same-Spin Energy          =      -0.4612191992397542 [Eh]
	 Opposite-Spin Energy      =      -1.3881729700393550 [Eh]
	 Correlation Energy        =      -1.8493921692791093 [Eh]
	 Total Energy              =    -453.4575612706573224 [Eh]

	 ================> DF-SCS-MP2 Energies <==================
	-----------------------------------------------------------
	 SCS Same-Spin Scale       =       0.3333333333333333 [-]
	 SCS Opposite-Spin Scale   =       1.2000000000000000 [-]
	 SCS Same-Spin Energy      =      -0.1537397330799181 [Eh]
	 SCS Opposite-Spin Energy  =      -1.6658075640472261 [Eh]
	 SCS Correlation Energy    =      -1.8195472971271442 [Eh]
	 SCS Total Energy          =    -453.4277163985053676 [Eh]
	-----------------------------------------------------------

  Dipole Moment: [D]
     X:     1.2423      Y:    -2.4368      Z:     0.0000     Total:     2.7352

*** Psi4 exiting successfully. Buy a developer a beer!
