                               Psi4 1.3.2 release

  ==> Input File <==

--------------------------------------------------------------------------
#psi4
#
memory 32 gb

molecule  {
0 1
  O        1.4499930     1.0206980    -0.0000040
  O       -1.2728880     1.6029860     0.0000050
  N       -1.7320990    -0.6616920    -0.0000100
  N        1.0253160    -1.1826400     0.0000030
  C        0.5424493     0.0406755    -0.0000010
  C       -0.9157640     0.4229260    -0.0000010
  C       -3.1757780    -0.5360000     0.0000030
  C        2.6470610     0.3608020    -0.0000010
  C        2.3925880    -0.9806700     0.0000040
  H       -1.2896900    -1.5740920    -0.0000030
  H       -3.6075680    -0.9997290     0.8912900
  H       -3.6075830    -0.9997540    -0.8912630
  H       -3.4076560     0.5288570    -0.0000100
  H        3.5343540     0.9743460    -0.0000030
  H        3.0931030    -1.8035030     0.0000080
units angstrom
no_reorient  #important for SAPT in psi4, default
symmetry c1  #important for SAPT in psi4, default
}

set PROPERTIES_ORIGIN ["COM"]
properties('MP2/aug-cc-pvtz', properties = ['dipole'])
--------------------------------------------------------------------------

    Molecular point group: c1
  Charge       = 0
  Multiplicity = 1
  Basis Set: AUG-CC-PVTZ
    Blend: AUG-CC-PVTZ
  Basis Set: (AUG-CC-PVTZ AUX)
    Blend: AUG-CC-PVTZ-JKFIT

    Orbital Energies [Eh]
    ---------------------

    Doubly Occupied:

       1A    -20.662267     2A    -20.533015     3A    -15.597155
       4A    -15.594017     5A    -11.375183     6A    -11.357677
       7A    -11.314761     8A    -11.282130     9A    -11.265823
      10A     -1.513014    11A     -1.384672    12A     -1.261523
      13A     -1.234953    14A     -1.060812    15A     -0.969909
      16A     -0.872592    17A     -0.850319    18A     -0.794985
      19A     -0.775317    20A     -0.684734    21A     -0.679597
      22A     -0.655845    23A     -0.627993    24A     -0.621484
      25A     -0.598759    26A     -0.591123    27A     -0.554150
      28A     -0.545786    29A     -0.492078    30A     -0.472016
      31A     -0.445948    32A     -0.399655    33A     -0.355006

  @DF-RHF Final Energy:  -451.61065188999470

   => Energetics <=

    Nuclear Repulsion Energy =            433.2511330747486227
    One-Electron Energy =               -1474.8749742983491160
    Two-Electron Energy =                 590.0131893336057374
    Total Energy =                       -451.6106518899947559
  Basis Set: (AUG-CC-PVTZ AUX)
    Blend: AUG-CC-PVTZ-RI
    Molecular point group: c1

    Geometry (in Angstrom), charge = 0, multiplicity = 1:

       Center              X                  Y                   Z               Mass
    ------------   -----------------  -----------------  -----------------  -----------------
         O            1.406389405551     0.989534824350    -0.000003881961    15.994914619570
         O           -1.316491594449     1.571822824350     0.000005118039    15.994914619570
         N           -1.775702594449    -0.692855175650    -0.000009881961    14.003074004430
         N            0.981712405551    -1.213803175650     0.000003118039    14.003074004430
         C            0.498845705551     0.009512324350    -0.000000881961    12.000000000000
         C           -0.959367594449     0.391762824350    -0.000000881961    12.000000000000
         C           -3.219381594449    -0.567163175650     0.000003118039    12.000000000000
         C            2.603457405551     0.329638824350    -0.000000881961    12.000000000000
         C            2.348984405551    -1.011833175650     0.000004118039    12.000000000000
         H           -1.333293594449    -1.605255175650    -0.000002881961     1.007825032230
         H           -3.651171594449    -1.030892175650     0.891290118039     1.007825032230
         H           -3.651186594449    -1.030917175650    -0.891262881961     1.007825032230
         H           -3.451259594449     0.497693824350    -0.000009881961     1.007825032230
         H            3.490750405551     0.943182824350    -0.000002881961     1.007825032230
         H            3.049499405551    -1.834666175650     0.000008118039     1.007825032230

  Basis Set: AUG-CC-PVTZ
    Blend: AUG-CC-PVTZ
  Basis Set: (AUG-CC-PVTZ AUX)
    Blend: AUG-CC-PVTZ-JKFIT
	 Reference Energy          =    -451.6106518899946991 [Eh]
	 Singles Energy            =      -0.0000000000000000 [Eh]
	 Same-Spin Energy          =      -0.4617357403150463 [Eh]
	 Opposite-Spin Energy      =      -1.3910429718206210 [Eh]
	 Correlation Energy        =      -1.8527787121356671 [Eh]
	 Total Energy              =    -453.4634306021303587 [Eh]

	 ================> DF-SCS-MP2 Energies <==================
	-----------------------------------------------------------
	 SCS Same-Spin Scale       =       0.3333333333333333 [-]
	 SCS Opposite-Spin Scale   =       1.2000000000000000 [-]
	 SCS Same-Spin Energy      =      -0.1539119134383488 [Eh]
	 SCS Opposite-Spin Energy  =      -1.6692515661847451 [Eh]
	 SCS Correlation Energy    =      -1.8231634796230938 [Eh]
	 SCS Total Energy          =    -453.4338153696177756 [Eh]
	-----------------------------------------------------------

  Dipole Moment: [D]
     X:     1.1620      Y:    -2.6633      Z:     0.0000     Total:     2.9057

*** Psi4 exiting successfully. Buy a developer a beer!
