                               Psi4 1.3.2 release

  ==> Input File <==

--------------------------------------------------------------------------
#psi4
#
memory 32 gb

molecule  {
0 1
  O        1.4499930     1.0206980    -0.0000040
  O       -1.2728880     1.6029860     0.0000050
  N       -1.7320990    -0.6616920    -0.0000100
  N        1.0539177    -1.3244524     0.0000036
  C        0.5211730     0.0320620    -0.0000010
  C       -0.9157640     0.4229260    -0.0000010
  C       -3.1757780    -0.5360000     0.0000030
  C        2.6470610     0.3608020    -0.0000010
  C        2.3925880    -0.9806700     0.0000040
  H       -1.2896900    -1.5740920    -0.0000030
  H       -3.6075680    -0.9997290     0.8912900
  H       -3.6075830    -0.9997540    -0.8912630
  H       -3.4076560     0.5288570    -0.0000100
  H        3.5343540     0.9743460    -0.0000030
  H        3.0931030    -1.8035030     0.0000080
units angstrom
no_reorient  #important for SAPT in psi4, default
symmetry c1  #important for SAPT in psi4, default
}

set PROPERTIES_ORIGIN ["COM"]
properties('MP2/aug-cc-pvtz', properties = ['dipole'])
--------------------------------------------------------------------------

    Molecular point group: c1
  Charge       = 0
  Multiplicity = 1
  Basis Set: AUG-CC-PVTZ
    Blend: AUG-CC-PVTZ
  Basis Set: (AUG-CC-PVTZ AUX)
    Blend: AUG-CC-PVTZ-JKFIT

    Orbital Energies [Eh]
    ---------------------

    Doubly Occupied:

       1A    -20.676889     2A    -20.535642     3A    -15.616320
       4A    -15.599423     5A    -11.379087     6A    -11.377968
       7A    -11.314155     8A    -11.283994     9A    -11.267166
      10A     -1.506691    11A     -1.387688    12A     -1.249966
      13A     -1.222375    14A     -1.055679    15A     -0.972042
      16A     -0.881381    17A     -0.837618    18A     -0.798555
      19A     -0.775131    20A     -0.679536    21A     -0.678547
      22A     -0.655685    23A     -0.629542    24A     -0.608788
      25A     -0.599276    26A     -0.588685    27A     -0.555294
      28A     -0.548249    29A     -0.501994    30A     -0.464767
      31A     -0.449321    32A     -0.401912    33A     -0.343187

  @DF-RHF Final Energy:  -451.57604426836849

   => Energetics <=

    Nuclear Repulsion Energy =            429.4856626571157676
    One-Electron Energy =               -1467.2383062645822065
    Two-Electron Energy =                 586.1765993390978338
    Total Energy =                       -451.5760442683684914
  Basis Set: (AUG-CC-PVTZ AUX)
    Blend: AUG-CC-PVTZ-RI
    Molecular point group: c1

    Geometry (in Angstrom), charge = 0, multiplicity = 1:

       Center              X                  Y                   Z               Mass
    ------------   -----------------  -----------------  -----------------  -----------------
         O            1.405237447844     1.006109903765    -0.000003948620    15.994914619570
         O           -1.317643552156     1.588397903765     0.000005051380    15.994914619570
         N           -1.776854552156    -0.676280096235    -0.000009948620    14.003074004430
         N            1.009162147844    -1.339040496235     0.000003651380    14.003074004430
         C            0.476417447844     0.017473903765    -0.000000948620    12.000000000000
         C           -0.960519552156     0.408337903765    -0.000000948620    12.000000000000
         C           -3.220533552156    -0.550588096235     0.000003051380    12.000000000000
         C            2.602305447844     0.346213903765    -0.000000948620    12.000000000000
         C            2.347832447844    -0.995258096235     0.000004051380    12.000000000000
         H           -1.334445552156    -1.588680096235    -0.000002948620     1.007825032230
         H           -3.652323552156    -1.014317096235     0.891290051380     1.007825032230
         H           -3.652338552156    -1.014342096235    -0.891262948620     1.007825032230
         H           -3.452411552156     0.514268903765    -0.000009948620     1.007825032230
         H            3.489598447844     0.959757903765    -0.000002948620     1.007825032230
         H            3.048347447844    -1.818091096235     0.000008051380     1.007825032230

  Basis Set: AUG-CC-PVTZ
    Blend: AUG-CC-PVTZ
  Basis Set: (AUG-CC-PVTZ AUX)
    Blend: AUG-CC-PVTZ-JKFIT
	 Reference Energy          =    -451.5760442683684914 [Eh]
	 Singles Energy            =      -0.0000000000000000 [Eh]
	 Same-Spin Energy          =      -0.4668746629064244 [Eh]
	 Opposite-Spin Energy      =      -1.4015863885744642 [Eh]
	 Correlation Energy        =      -1.8684610514808886 [Eh]
	 Total Energy              =    -453.4445053198493838 [Eh]

	 ================> DF-SCS-MP2 Energies <==================
	-----------------------------------------------------------
	 SCS Same-Spin Scale       =       0.3333333333333333 [-]
	 SCS Opposite-Spin Scale   =       1.2000000000000000 [-]
	 SCS Same-Spin Energy      =      -0.1556248876354748 [Eh]
	 SCS Opposite-Spin Energy  =      -1.6819036662893569 [Eh]
	 SCS Correlation Energy    =      -1.8375285539248316 [Eh]
	 SCS Total Energy          =    -453.4135728222933039 [Eh]
	-----------------------------------------------------------

  Dipole Moment: [D]
     X:     1.2273      Y:    -2.4471      Z:     0.0000     Total:     2.7376

*** Psi4 exiting successfully. Buy a developer a beer!
