                               Psi4 1.4a3.dev225

  ==> Input File <==

--------------------------------------------------------------------------
#psi4
#
memory 32 gb

molecule  {
0 1
  O        1.4499930     1.0206980    -0.0000040
  O       -1.2728880     1.6029860     0.0000050
  N       -1.7320990    -0.6616920    -0.0000100
  N        1.0253160    -1.1826400     0.0000030
  C        0.5211730     0.0320620    -0.0000010
  C       -0.9157640     0.4229260    -0.0000010
  C       -3.1757780    -0.5360000     0.0000030
  C        2.6470610     0.3608020    -0.0000010
  C        2.4019067    -0.9315460     0.0000038
  H       -1.2896900    -1.5740920    -0.0000030
  H       -3.6075680    -0.9997290     0.8912900
  H       -3.6075830    -0.9997540    -0.8912630
  H       -3.4076560     0.5288570    -0.0000100
  H        3.5343540     0.9743460    -0.0000030
  H        3.0931030    -1.8035030     0.0000080
units angstrom
no_reorient  #important for SAPT in psi4, default
symmetry c1  #important for SAPT in psi4, default
}

set PROPERTIES_ORIGIN ["COM"]
properties('MP2/aug-cc-pvtz', properties = ['dipole'])
--------------------------------------------------------------------------

    Molecular point group: c1
  Charge       = 0
  Multiplicity = 1
  Basis Set: AUG-CC-PVTZ
    Blend: AUG-CC-PVTZ
  Basis Set: (AUG-CC-PVTZ AUX)
    Blend: AUG-CC-PVTZ-JKFIT

    Orbital Energies [Eh]
    ---------------------

    Doubly Occupied:

       1A    -20.654894     2A    -20.534312     3A    -15.598086
       4A    -15.595973     5A    -11.375394     6A    -11.358879
       7A    -11.308377     8A    -11.277302     9A    -11.266388
      10A     -1.503525    11A     -1.386059    12A     -1.259269
      13A     -1.233788    14A     -1.068355    15A     -0.973727
      16A     -0.877669    17A     -0.843809    18A     -0.793476
      19A     -0.773447    20A     -0.680838    21A     -0.680735
      22A     -0.654915    23A     -0.628558    24A     -0.611125
      25A     -0.594706    26A     -0.592293    27A     -0.554889
      28A     -0.547183    29A     -0.494409    30A     -0.468981
      31A     -0.447839    32A     -0.400636    33A     -0.364702

  @DF-RHF Final Energy:  -451.60845049287764

   => Energetics <=

    Nuclear Repulsion Energy =            433.7172042365556308
    One-Electron Energy =               -1475.8422389640873007
    Two-Electron Energy =                 590.5165842346541467
    Total Energy =                       -451.6084504928776369
  Basis Set: (AUG-CC-PVTZ AUX)
    Blend: AUG-CC-PVTZ-RI
    Molecular point group: c1

    Geometry (in Angstrom), charge = 0, multiplicity = 1:

       Center              X                  Y                   Z               Mass
    ------------   -----------------  -----------------  -----------------  -----------------
         O            1.407527836742     0.985677995491    -0.000003862920    15.994914619570
         O           -1.315353163258     1.567965995491     0.000005137080    15.994914619570
         N           -1.774564163258    -0.696712004509    -0.000009862920    14.003074004430
         N            0.982850836742    -1.217660004509     0.000003137080    14.003074004430
         C            0.478707836742    -0.002958004509    -0.000000862920    12.000000000000
         C           -0.958229163258     0.387905995491    -0.000000862920    12.000000000000
         C           -3.218243163258    -0.571020004509     0.000003137080    12.000000000000
         C            2.604595836742     0.325781995491    -0.000000862920    12.000000000000
         C            2.359441536742    -0.966566004509     0.000003937080    12.000000000000
         H           -1.332155163258    -1.609112004509    -0.000002862920     1.007825032230
         H           -3.650033163258    -1.034749004509     0.891290137080     1.007825032230
         H           -3.650048163258    -1.034774004509    -0.891262862920     1.007825032230
         H           -3.450121163258     0.493836995491    -0.000009862920     1.007825032230
         H            3.491888836742     0.939325995491    -0.000002862920     1.007825032230
         H            3.050637836742    -1.838523004509     0.000008137080     1.007825032230

  Basis Set: AUG-CC-PVTZ
    Blend: AUG-CC-PVTZ
  Basis Set: (AUG-CC-PVTZ AUX)
    Blend: AUG-CC-PVTZ-JKFIT
	 Reference Energy          =    -451.6084504928776369 [Eh]
	 Singles Energy            =      -0.0000000000000000 [Eh]
	 Same-Spin Energy          =      -0.4612243757168728 [Eh]
	 Opposite-Spin Energy      =      -1.3906400501003147 [Eh]
	 Correlation Energy        =      -1.8518644258171875 [Eh]
	 Total Energy              =    -453.4603149186948485 [Eh]

	 ================> DF-SCS-MP2 Energies <==================
	-----------------------------------------------------------
	 SCS Same-Spin Scale       =       0.3333333333333333 [-]
	 SCS Opposite-Spin Scale   =       1.2000000000000000 [-]
	 SCS Same-Spin Energy      =      -0.1537414585722909 [Eh]
	 SCS Opposite-Spin Energy  =      -1.6687680601203776 [Eh]
	 SCS Correlation Energy    =      -1.8225095186926685 [Eh]
	 SCS Total Energy          =    -453.4309600115702779 [Eh]
	-----------------------------------------------------------

  Dipole Moment: [D]
     X:     1.0858      Y:    -2.6612      Z:     0.0000     Total:     2.8742

*** Psi4 exiting successfully. Buy a developer a beer!
