                               Psi4 1.4a3.dev225

  ==> Input File <==

--------------------------------------------------------------------------
#psi4
#
memory 32 gb

molecule  {
0 1
  O        1.4499930     1.0206980    -0.0000040
  O       -1.2728880     1.6029860     0.0000050
  N       -1.7320990    -0.6616920    -0.0000100
  N        1.0253160    -1.1826400     0.0000030
  C        0.5074787     0.0174858    -0.0000010
  C       -0.9157640     0.4229260    -0.0000010
  C       -3.1757780    -0.5360000     0.0000030
  C        2.6470610     0.3608020    -0.0000010
  C        2.3925880    -0.9806700     0.0000040
  H       -1.2896900    -1.5740920    -0.0000030
  H       -3.6075680    -0.9997290     0.8912900
  H       -3.6075830    -0.9997540    -0.8912630
  H       -3.4076560     0.5288570    -0.0000100
  H        3.5343540     0.9743460    -0.0000030
  H        3.0931030    -1.8035030     0.0000080
units angstrom
no_reorient  #important for SAPT in psi4, default
symmetry c1  #important for SAPT in psi4, default
}

set PROPERTIES_ORIGIN ["COM"]
properties('MP2/aug-cc-pvtz', properties = ['dipole'])
--------------------------------------------------------------------------

    Molecular point group: c1
  Charge       = 0
  Multiplicity = 1
  Basis Set: AUG-CC-PVTZ
    Blend: AUG-CC-PVTZ
  Basis Set: (AUG-CC-PVTZ AUX)
    Blend: AUG-CC-PVTZ-JKFIT

    Orbital Energies [Eh]
    ---------------------

    Doubly Occupied:

       1A    -20.655765     2A    -20.533794     3A    -15.597559
       4A    -15.597366     5A    -11.374827     6A    -11.356936
       7A    -11.317124     8A    -11.281226     9A    -11.265926
      10A     -1.495490    11A     -1.385568    12A     -1.263042
      13A     -1.235548    14A     -1.061553    15A     -0.971893
      16A     -0.874691    17A     -0.848566    18A     -0.792914
      19A     -0.772533    20A     -0.680579    21A     -0.676246
      22A     -0.657535    23A     -0.627702    24A     -0.621062
      25A     -0.598236    26A     -0.588959    27A     -0.554490
      28A     -0.546959    29A     -0.491117    30A     -0.472641
      31A     -0.448104    32A     -0.400256    33A     -0.354912

  @DF-RHF Final Energy:  -451.60852536704630

   => Energetics <=

    Nuclear Repulsion Energy =            433.0724147199459253
    One-Electron Energy =               -1474.5596424620071048
    Two-Electron Energy =                 589.8787023750148819
    Total Energy =                       -451.6085253670462407
  Basis Set: (AUG-CC-PVTZ AUX)
    Blend: AUG-CC-PVTZ-RI
    Molecular point group: c1

    Geometry (in Angstrom), charge = 0, multiplicity = 1:

       Center              X                  Y                   Z               Mass
    ------------   -----------------  -----------------  -----------------  -----------------
         O            1.409718804578     0.991742615026    -0.000003881961    15.994914619570
         O           -1.313162195422     1.574030615026     0.000005118039    15.994914619570
         N           -1.772373195422    -0.690647384974    -0.000009881961    14.003074004430
         N            0.985041804578    -1.211595384974     0.000003118039    14.003074004430
         C            0.467204504578    -0.011469584974    -0.000000881961    12.000000000000
         C           -0.956038195422     0.393970615026    -0.000000881961    12.000000000000
         C           -3.216052195422    -0.564955384974     0.000003118039    12.000000000000
         C            2.606786804578     0.331846615026    -0.000000881961    12.000000000000
         C            2.352313804578    -1.009625384974     0.000004118039    12.000000000000
         H           -1.329964195422    -1.603047384974    -0.000002881961     1.007825032230
         H           -3.647842195422    -1.028684384974     0.891290118039     1.007825032230
         H           -3.647857195422    -1.028709384974    -0.891262881961     1.007825032230
         H           -3.447930195422     0.499901615026    -0.000009881961     1.007825032230
         H            3.494079804578     0.945390615026    -0.000002881961     1.007825032230
         H            3.052828804578    -1.832458384974     0.000008118039     1.007825032230

  Basis Set: AUG-CC-PVTZ
    Blend: AUG-CC-PVTZ
  Basis Set: (AUG-CC-PVTZ AUX)
    Blend: AUG-CC-PVTZ-JKFIT
	 Reference Energy          =    -451.6085253670462976 [Eh]
	 Singles Energy            =      -0.0000000000000000 [Eh]
	 Same-Spin Energy          =      -0.4623742467218571 [Eh]
	 Opposite-Spin Energy      =      -1.3923840843938695 [Eh]
	 Correlation Energy        =      -1.8547583311157267 [Eh]
	 Total Energy              =    -453.4632836981620017 [Eh]

	 ================> DF-SCS-MP2 Energies <==================
	-----------------------------------------------------------
	 SCS Same-Spin Scale       =       0.3333333333333333 [-]
	 SCS Opposite-Spin Scale   =       1.2000000000000000 [-]
	 SCS Same-Spin Energy      =      -0.1541247489072857 [Eh]
	 SCS Opposite-Spin Energy  =      -1.6708609012726434 [Eh]
	 SCS Correlation Energy    =      -1.8249856501799291 [Eh]
	 SCS Total Energy          =    -453.4335110172262375 [Eh]
	-----------------------------------------------------------

  Dipole Moment: [D]
     X:     1.1157      Y:    -2.7352      Z:     0.0000     Total:     2.9540

*** Psi4 exiting successfully. Buy a developer a beer!
