                               Psi4 1.3.2 release

  ==> Input File <==

--------------------------------------------------------------------------
#psi4
#
memory 32 gb

molecule  {
0 1
  O        1.4499930     1.0206980    -0.0000040
  O       -1.2728880     1.6029860     0.0000050
  N       -1.7320990    -0.6616920    -0.0000100
  N        1.0253160    -1.1826400     0.0000030
  C        0.4376677    -0.0060642    -0.0000010
  C       -0.9157640     0.4229260    -0.0000010
  C       -3.1757780    -0.5360000     0.0000030
  C        2.6470610     0.3608020    -0.0000010
  C        2.3925880    -0.9806700     0.0000040
  H       -1.2896900    -1.5740920    -0.0000030
  H       -3.6075680    -0.9997290     0.8912900
  H       -3.6075830    -0.9997540    -0.8912630
  H       -3.4076560     0.5288570    -0.0000100
  H        3.5343540     0.9743460    -0.0000030
  H        3.0931030    -1.8035030     0.0000080
units angstrom
no_reorient  #important for SAPT in psi4, default
symmetry c1  #important for SAPT in psi4, default
}

set PROPERTIES_ORIGIN ["COM"]
properties('MP2/aug-cc-pvtz', properties = ['dipole'])
--------------------------------------------------------------------------

    Molecular point group: c1
  Charge       = 0
  Multiplicity = 1
  Basis Set: AUG-CC-PVTZ
    Blend: AUG-CC-PVTZ
  Basis Set: (AUG-CC-PVTZ AUX)
    Blend: AUG-CC-PVTZ-JKFIT

    Orbital Energies [Eh]
    ---------------------

    Doubly Occupied:

       1A    -20.646367     2A    -20.534373     3A    -15.605541
       4A    -15.597469     5A    -11.372619     6A    -11.357438
       7A    -11.321744     8A    -11.280680     9A    -11.266004
      10A     -1.470632    11A     -1.387173    12A     -1.261977
      13A     -1.234009    14A     -1.066092    15A     -0.976385
      16A     -0.884254    17A     -0.842723    18A     -0.790927
      19A     -0.767294    20A     -0.683780    21A     -0.665433
      22A     -0.660525    23A     -0.626065    24A     -0.619803
      25A     -0.603876    26A     -0.577432    27A     -0.554853
      28A     -0.549181    29A     -0.486195    30A     -0.470554
      31A     -0.451381    32A     -0.401168    33A     -0.353227

  @DF-RHF Final Energy:  -451.59324347485932

   => Energetics <=

    Nuclear Repulsion Energy =            432.7924749565656271
    One-Electron Energy =               -1474.0370870154026761
    Two-Electron Energy =                 589.6513685839777281
    Total Energy =                       -451.5932434748592641
  Basis Set: (AUG-CC-PVTZ AUX)
    Blend: AUG-CC-PVTZ-RI
    Molecular point group: c1

    Geometry (in Angstrom), charge = 0, multiplicity = 1:

       Center              X                  Y                   Z               Mass
    ------------   -----------------  -----------------  -----------------  -----------------
         O            1.416365206856     0.993984708302    -0.000003881961    15.994914619570
         O           -1.306515793144     1.576272708302     0.000005118039    15.994914619570
         N           -1.765726793144    -0.688405291698    -0.000009881961    14.003074004430
         N            0.991688206856    -1.209353291698     0.000003118039    14.003074004430
         C            0.404039906856    -0.032777491698    -0.000000881961    12.000000000000
         C           -0.949391793144     0.396212708302    -0.000000881961    12.000000000000
         C           -3.209405793144    -0.562713291698     0.000003118039    12.000000000000
         C            2.613433206856     0.334088708302    -0.000000881961    12.000000000000
         C            2.358960206856    -1.007383291698     0.000004118039    12.000000000000
         H           -1.323317793144    -1.600805291698    -0.000002881961     1.007825032230
         H           -3.641195793144    -1.026442291698     0.891290118039     1.007825032230
         H           -3.641210793144    -1.026467291698    -0.891262881961     1.007825032230
         H           -3.441283793144     0.502143708302    -0.000009881961     1.007825032230
         H            3.500726206856     0.947632708302    -0.000002881961     1.007825032230
         H            3.059475206856    -1.830216291698     0.000008118039     1.007825032230

  Basis Set: AUG-CC-PVTZ
    Blend: AUG-CC-PVTZ
  Basis Set: (AUG-CC-PVTZ AUX)
    Blend: AUG-CC-PVTZ-JKFIT
	 Reference Energy          =    -451.5932434748593209 [Eh]
	 Singles Energy            =      -0.0000000000000000 [Eh]
	 Same-Spin Energy          =      -0.4644311512295215 [Eh]
	 Opposite-Spin Energy      =      -1.3961517151514364 [Eh]
	 Correlation Energy        =      -1.8605828663809580 [Eh]
	 Total Energy              =    -453.4538263412403012 [Eh]

	 ================> DF-SCS-MP2 Energies <==================
	-----------------------------------------------------------
	 SCS Same-Spin Scale       =       0.3333333333333333 [-]
	 SCS Opposite-Spin Scale   =       1.2000000000000000 [-]
	 SCS Same-Spin Energy      =      -0.1548103837431738 [Eh]
	 SCS Opposite-Spin Energy  =      -1.6753820581817236 [Eh]
	 SCS Correlation Energy    =      -1.8301924419248974 [Eh]
	 SCS Total Energy          =    -453.4234359167842285 [Eh]
	-----------------------------------------------------------

  Dipole Moment: [D]
     X:     1.0771      Y:    -2.8284      Z:     0.0000     Total:     3.0265

*** Psi4 exiting successfully. Buy a developer a beer!
