                               Psi4 1.3.2 release

  ==> Input File <==

--------------------------------------------------------------------------
#psi4
#
memory 32 gb

molecule  {
0 1
  O        1.4499930     1.0206980    -0.0000040
  O       -1.2728880     1.6029860     0.0000050
  N       -1.6142536    -0.7410806    -0.0000103
  N        1.0253160    -1.1826400     0.0000030
  C        0.5211730     0.0320620    -0.0000010
  C       -0.9157640     0.4229260    -0.0000010
  C       -3.1757780    -0.5360000     0.0000030
  C        2.6470610     0.3608020    -0.0000010
  C        2.3925880    -0.9806700     0.0000040
  H       -1.2896900    -1.5740920    -0.0000030
  H       -3.6075680    -0.9997290     0.8912900
  H       -3.6075830    -0.9997540    -0.8912630
  H       -3.4076560     0.5288570    -0.0000100
  H        3.5343540     0.9743460    -0.0000030
  H        3.0931030    -1.8035030     0.0000080
units angstrom
no_reorient  #important for SAPT in psi4, default
symmetry c1  #important for SAPT in psi4, default
}

set PROPERTIES_ORIGIN ["COM"]
properties('MP2/aug-cc-pvtz', properties = ['dipole'])
--------------------------------------------------------------------------

    Molecular point group: c1
  Charge       = 0
  Multiplicity = 1
  Basis Set: AUG-CC-PVTZ
    Blend: AUG-CC-PVTZ
  Basis Set: (AUG-CC-PVTZ AUX)
    Blend: AUG-CC-PVTZ-JKFIT

    Orbital Energies [Eh]
    ---------------------

    Doubly Occupied:

       1A    -20.654323     2A    -20.540140     3A    -15.592674
       4A    -15.590730     5A    -11.378873     6A    -11.350482
       7A    -11.311702     8A    -11.278140     9A    -11.277286
      10A     -1.499265    11A     -1.386188    12A     -1.262898
      13A     -1.231781    14A     -1.055070    15A     -0.962297
      16A     -0.886291    17A     -0.850615    18A     -0.814910
      19A     -0.773707    20A     -0.676085    21A     -0.675223
      22A     -0.653738    23A     -0.618405    24A     -0.614350
      25A     -0.588338    26A     -0.582681    27A     -0.562111
      28A     -0.552277    29A     -0.486663    30A     -0.468144
      31A     -0.448189    32A     -0.411395    33A     -0.350522

  @DF-RHF Final Energy:  -451.58078049295762

   => Energetics <=

    Nuclear Repulsion Energy =            433.0843946802494884
    One-Electron Energy =               -1474.5593633378241520
    Two-Electron Energy =                 589.8941881646170486
    Total Energy =                       -451.5807804929576150
  Basis Set: (AUG-CC-PVTZ AUX)
    Blend: AUG-CC-PVTZ-RI
    Molecular point group: c1

    Geometry (in Angstrom), charge = 0, multiplicity = 1:

       Center              X                  Y                   Z               Mass
    ------------   -----------------  -----------------  -----------------  -----------------
         O            1.395322681812     0.999174765802    -0.000003848632    15.994914619570
         O           -1.327558318188     1.581462765802     0.000005151368    15.994914619570
         N           -1.668923918188    -0.762603834198    -0.000010148632    14.003074004430
         N            0.970645681812    -1.204163234198     0.000003151368    14.003074004430
         C            0.466502681812     0.010538765802    -0.000000848632    12.000000000000
         C           -0.970434318188     0.401402765802    -0.000000848632    12.000000000000
         C           -3.230448318188    -0.557523234198     0.000003151368    12.000000000000
         C            2.592390681812     0.339278765802    -0.000000848632    12.000000000000
         C            2.337917681812    -1.002193234198     0.000004151368    12.000000000000
         H           -1.344360318188    -1.595615234198    -0.000002848632     1.007825032230
         H           -3.662238318188    -1.021252234198     0.891290151368     1.007825032230
         H           -3.662253318188    -1.021277234198    -0.891262848632     1.007825032230
         H           -3.462326318188     0.507333765802    -0.000009848632     1.007825032230
         H            3.479683681812     0.952822765802    -0.000002848632     1.007825032230
         H            3.038432681812    -1.825026234198     0.000008151368     1.007825032230

  Basis Set: AUG-CC-PVTZ
    Blend: AUG-CC-PVTZ
  Basis Set: (AUG-CC-PVTZ AUX)
    Blend: AUG-CC-PVTZ-JKFIT
	 Reference Energy          =    -451.5807804929576150 [Eh]
	 Singles Energy            =      -0.0000000000000000 [Eh]
	 Same-Spin Energy          =      -0.4617388570849935 [Eh]
	 Opposite-Spin Energy      =      -1.3926842880583241 [Eh]
	 Correlation Energy        =      -1.8544231451433175 [Eh]
	 Total Energy              =    -453.4352036381009157 [Eh]

	 ================> DF-SCS-MP2 Energies <==================
	-----------------------------------------------------------
	 SCS Same-Spin Scale       =       0.3333333333333333 [-]
	 SCS Opposite-Spin Scale   =       1.2000000000000000 [-]
	 SCS Same-Spin Energy      =      -0.1539129523616645 [Eh]
	 SCS Opposite-Spin Energy  =      -1.6712211456699888 [Eh]
	 SCS Correlation Energy    =      -1.8251340980316533 [Eh]
	 SCS Total Energy          =    -453.4059145909892550 [Eh]
	-----------------------------------------------------------

  Dipole Moment: [D]
     X:     0.7426      Y:    -2.5541      Z:     0.0000     Total:     2.6598

*** Psi4 exiting successfully. Buy a developer a beer!
