                               Psi4 1.4a3.dev225

  ==> Input File <==

--------------------------------------------------------------------------
#psi4
#
memory 32 gb

molecule  {
0 1
  O        1.4499930     1.0206980    -0.0000040
  O       -1.2728880     1.6029860     0.0000050
  N       -1.7320990    -0.6616920    -0.0000100
  N        1.0253160    -1.1826400     0.0000030
  C        0.5211730     0.0320620    -0.0000010
  C       -0.9350628     0.4281755    -0.0000010
  C       -3.1757780    -0.5360000     0.0000030
  C        2.6470610     0.3608020    -0.0000010
  C        2.3925880    -0.9806700     0.0000040
  H       -1.2896900    -1.5740920    -0.0000030
  H       -3.6075680    -0.9997290     0.8912900
  H       -3.6075830    -0.9997540    -0.8912630
  H       -3.4076560     0.5288570    -0.0000100
  H        3.5343540     0.9743460    -0.0000030
  H        3.0931030    -1.8035030     0.0000080
units angstrom
no_reorient  #important for SAPT in psi4, default
symmetry c1  #important for SAPT in psi4, default
}

set PROPERTIES_ORIGIN ["COM"]
properties('MP2/aug-cc-pvtz', properties = ['dipole'])
--------------------------------------------------------------------------

    Molecular point group: c1
  Charge       = 0
  Multiplicity = 1
  Basis Set: AUG-CC-PVTZ
    Blend: AUG-CC-PVTZ
  Basis Set: (AUG-CC-PVTZ AUX)
    Blend: AUG-CC-PVTZ-JKFIT

    Orbital Energies [Eh]
    ---------------------

    Doubly Occupied:

       1A    -20.657615     2A    -20.534623     3A    -15.598081
       4A    -15.593812     5A    -11.375009     6A    -11.356504
       7A    -11.314127     8A    -11.280218     9A    -11.266550
      10A     -1.501914    11A     -1.392235    12A     -1.261371
      13A     -1.237016    14A     -1.058066    15A     -0.971259
      16A     -0.869808    17A     -0.847330    18A     -0.795230
      19A     -0.774238    20A     -0.679969    21A     -0.678417
      22A     -0.658616    23A     -0.629888    24A     -0.620559
      25A     -0.597617    26A     -0.589759    27A     -0.556063
      28A     -0.549592    29A     -0.489436    30A     -0.470462
      31A     -0.447499    32A     -0.402438    33A     -0.353306

  @DF-RHF Final Energy:  -451.61073226553765

   => Energetics <=

    Nuclear Repulsion Energy =            433.1015007082071975
    One-Electron Energy =               -1474.6072131953444568
    Two-Electron Energy =                 589.8949802215996669
    Total Energy =                       -451.6107322655376493
  Basis Set: (AUG-CC-PVTZ AUX)
    Blend: AUG-CC-PVTZ-RI
    Molecular point group: c1

    Geometry (in Angstrom), charge = 0, multiplicity = 1:

       Center              X                  Y                   Z               Mass
    ------------   -----------------  -----------------  -----------------  -----------------
         O            1.410252384696     0.989855096188    -0.000003881961    15.994914619570
         O           -1.312628615304     1.572143096188     0.000005118039    15.994914619570
         N           -1.771839615304    -0.692534903812    -0.000009881961    14.003074004430
         N            0.985575384696    -1.213482903812     0.000003118039    14.003074004430
         C            0.481432384696     0.001219096188    -0.000000881961    12.000000000000
         C           -0.974803415304     0.397332596188    -0.000000881961    12.000000000000
         C           -3.215518615304    -0.566842903812     0.000003118039    12.000000000000
         C            2.607320384696     0.329959096188    -0.000000881961    12.000000000000
         C            2.352847384696    -1.011512903812     0.000004118039    12.000000000000
         H           -1.329430615304    -1.604934903812    -0.000002881961     1.007825032230
         H           -3.647308615304    -1.030571903812     0.891290118039     1.007825032230
         H           -3.647323615304    -1.030596903812    -0.891262881961     1.007825032230
         H           -3.447396615304     0.498014096188    -0.000009881961     1.007825032230
         H            3.494613384696     0.943503096188    -0.000002881961     1.007825032230
         H            3.053362384696    -1.834345903812     0.000008118039     1.007825032230

  Basis Set: AUG-CC-PVTZ
    Blend: AUG-CC-PVTZ
  Basis Set: (AUG-CC-PVTZ AUX)
    Blend: AUG-CC-PVTZ-JKFIT
	 Reference Energy          =    -451.6107322655376493 [Eh]
	 Singles Energy            =      -0.0000000000000000 [Eh]
	 Same-Spin Energy          =      -0.4617368851619283 [Eh]
	 Opposite-Spin Energy      =      -1.3910591623350448 [Eh]
	 Correlation Energy        =      -1.8527960474969731 [Eh]
	 Total Energy              =    -453.4635283130346011 [Eh]

	 ================> DF-SCS-MP2 Energies <==================
	-----------------------------------------------------------
	 SCS Same-Spin Scale       =       0.3333333333333333 [-]
	 SCS Opposite-Spin Scale   =       1.2000000000000000 [-]
	 SCS Same-Spin Energy      =      -0.1539122950539761 [Eh]
	 SCS Opposite-Spin Energy  =      -1.6692709948020537 [Eh]
	 SCS Correlation Energy    =      -1.8231832898560298 [Eh]
	 SCS Total Energy          =    -453.4339155553936962 [Eh]
	-----------------------------------------------------------

  Dipole Moment: [D]
     X:     1.0119      Y:    -2.6637      Z:     0.0000     Total:     2.8494

*** Psi4 exiting successfully. Buy a developer a beer!
