                               Psi4 1.3.2 release

  ==> Input File <==

--------------------------------------------------------------------------
#psi4
#
memory 32 gb

molecule  {
0 1
  O        1.4499930     1.0206980    -0.0000040
  O       -1.1897012     1.6250231     0.0000052
  N       -1.7320990    -0.6616920    -0.0000100
  N        1.0253160    -1.1826400     0.0000030
  C        0.5211730     0.0320620    -0.0000010
  C       -0.9157640     0.4229260    -0.0000010
  C       -3.1757780    -0.5360000     0.0000030
  C        2.6470610     0.3608020    -0.0000010
  C        2.3925880    -0.9806700     0.0000040
  H       -1.2896900    -1.5740920    -0.0000030
  H       -3.6075680    -0.9997290     0.8912900
  H       -3.6075830    -0.9997540    -0.8912630
  H       -3.4076560     0.5288570    -0.0000100
  H        3.5343540     0.9743460    -0.0000030
  H        3.0931030    -1.8035030     0.0000080
units angstrom
no_reorient  #important for SAPT in psi4, default
symmetry c1  #important for SAPT in psi4, default
}

set PROPERTIES_ORIGIN ["COM"]
properties('MP2/aug-cc-pvtz', properties = ['dipole'])
--------------------------------------------------------------------------

    Molecular point group: c1
  Charge       = 0
  Multiplicity = 1
  Basis Set: AUG-CC-PVTZ
    Blend: AUG-CC-PVTZ
  Basis Set: (AUG-CC-PVTZ AUX)
    Blend: AUG-CC-PVTZ-JKFIT

    Orbital Energies [Eh]
    ---------------------

    Doubly Occupied:

       1A    -20.656227     2A    -20.534968     3A    -15.601226
       4A    -15.592980     5A    -11.375564     6A    -11.353571
       7A    -11.313549     8A    -11.279292     9A    -11.269094
      10A     -1.500959    11A     -1.385284    12A     -1.261450
      13A     -1.236883    14A     -1.058622    15A     -0.972551
      16A     -0.871894    17A     -0.847607    18A     -0.794546
      19A     -0.773755    20A     -0.679448    21A     -0.677874
      22A     -0.657686    23A     -0.629812    24A     -0.620103
      25A     -0.597777    26A     -0.588071    27A     -0.558358
      28A     -0.547918    29A     -0.488707    30A     -0.469323
      31A     -0.446745    32A     -0.403078    33A     -0.352294

  @DF-RHF Final Energy:  -451.60850054568374

   => Energetics <=

    Nuclear Repulsion Energy =            433.4320477053378227
    One-Electron Energy =               -1475.2866635686284553
    Two-Electron Energy =                 590.2461153176069502
    Total Energy =                       -451.6085005456837962
  Basis Set: (AUG-CC-PVTZ AUX)
    Blend: AUG-CC-PVTZ-RI
    Molecular point group: c1

    Geometry (in Angstrom), charge = 0, multiplicity = 1:

       Center              X                  Y                   Z               Mass
    ------------   -----------------  -----------------  -----------------  -----------------
         O            1.397858580496     0.987558358570    -0.000003907342    15.994914619570
         O           -1.241835619504     1.591883458570     0.000005292658    15.994914619570
         N           -1.784233419504    -0.694831641430    -0.000009907342    14.003074004430
         N            0.973181580496    -1.215779641430     0.000003092658    14.003074004430
         C            0.469038580496    -0.001077641430    -0.000000907342    12.000000000000
         C           -0.967898419504     0.389786358570    -0.000000907342    12.000000000000
         C           -3.227912419504    -0.569139641430     0.000003092658    12.000000000000
         C            2.594926580496     0.327662358570    -0.000000907342    12.000000000000
         C            2.340453580496    -1.013809641430     0.000004092658    12.000000000000
         H           -1.341824419504    -1.607231641430    -0.000002907342     1.007825032230
         H           -3.659702419504    -1.032868641430     0.891290092658     1.007825032230
         H           -3.659717419504    -1.032893641430    -0.891262907342     1.007825032230
         H           -3.459790419504     0.495717358570    -0.000009907342     1.007825032230
         H            3.482219580496     0.941206358570    -0.000002907342     1.007825032230
         H            3.040968580496    -1.836642641430     0.000008092658     1.007825032230

  Basis Set: AUG-CC-PVTZ
    Blend: AUG-CC-PVTZ
  Basis Set: (AUG-CC-PVTZ AUX)
    Blend: AUG-CC-PVTZ-JKFIT
	 Reference Energy          =    -451.6085005456837393 [Eh]
	 Singles Energy            =      -0.0000000000000000 [Eh]
	 Same-Spin Energy          =      -0.4620730967015252 [Eh]
	 Opposite-Spin Energy      =      -1.3918619220354065 [Eh]
	 Correlation Energy        =      -1.8539350187369317 [Eh]
	 Total Energy              =    -453.4624355644206730 [Eh]

	 ================> DF-SCS-MP2 Energies <==================
	-----------------------------------------------------------
	 SCS Same-Spin Scale       =       0.3333333333333333 [-]
	 SCS Opposite-Spin Scale   =       1.2000000000000000 [-]
	 SCS Same-Spin Energy      =      -0.1540243655671751 [Eh]
	 SCS Opposite-Spin Energy  =      -1.6702343064424878 [Eh]
	 SCS Correlation Energy    =      -1.8242586720096630 [Eh]
	 SCS Total Energy          =    -453.4327592176933877 [Eh]
	-----------------------------------------------------------

  Dipole Moment: [D]
     X:     0.8584      Y:    -2.7222      Z:     0.0000     Total:     2.8544

*** Psi4 exiting successfully. Buy a developer a beer!
