                               Psi4 1.3.2 release

  ==> Input File <==

--------------------------------------------------------------------------
#psi4
#
memory 32 gb

molecule  {
0 1
  O        1.4499930     1.0206980    -0.0000040
  O       -1.2728880     1.6029860     0.0000050
  N       -1.7320990    -0.6616920    -0.0000100
  N        1.0253160    -1.1826400     0.0000030
  C        0.5211730     0.0320620    -0.0000010
  C       -0.9157640     0.4229260    -0.0000010
  C       -3.1757780    -0.5360000     0.0000030
  C        2.6470610     0.3608020    -0.0000010
  C        2.3925880    -0.9806700     0.0000040
  H       -1.2896900    -1.5740920    -0.0000030
  H       -3.6075680    -0.9997290     0.8912900
  H       -3.6075830    -0.9997540    -0.8912630
  H       -3.4076560     0.5288570    -0.0000100
  H        3.5343540     0.9743460    -0.0000030
  H        3.2227516    -1.9557897     0.0000087
units angstrom
no_reorient  #important for SAPT in psi4, default
symmetry c1  #important for SAPT in psi4, default
}

set PROPERTIES_ORIGIN ["COM"]
properties('MP2/aug-cc-pvtz', properties = ['dipole'])
--------------------------------------------------------------------------

    Molecular point group: c1
  Charge       = 0
  Multiplicity = 1
  Basis Set: AUG-CC-PVTZ
    Blend: AUG-CC-PVTZ
  Basis Set: (AUG-CC-PVTZ AUX)
    Blend: AUG-CC-PVTZ-JKFIT

    Orbital Energies [Eh]
    ---------------------

    Doubly Occupied:

       1A    -20.660367     2A    -20.533995     3A    -15.598154
       4A    -15.597776     5A    -11.375574     6A    -11.358898
       7A    -11.317324     8A    -11.301424     9A    -11.266225
      10A     -1.504818    11A     -1.385891    12A     -1.262168
      13A     -1.235391    14A     -1.059720    15A     -0.970979
      16A     -0.871602    17A     -0.841444    18A     -0.792156
      19A     -0.768350    20A     -0.681176    21A     -0.679971
      22A     -0.653049    23A     -0.628351    24A     -0.609608
      25A     -0.594887    26A     -0.569982    27A     -0.554490
      28A     -0.547046    29A     -0.489911    30A     -0.472822
      31A     -0.447944    32A     -0.400449    33A     -0.355446

  @DF-RHF Final Energy:  -451.58649516512452

   => Energetics <=

    Nuclear Repulsion Energy =            432.2098762525403117
    One-Electron Energy =               -1472.8179661257900079
    Two-Electron Energy =                 589.0215947081253489
    Total Energy =                       -451.5864951651244610
  Basis Set: (AUG-CC-PVTZ AUX)
    Blend: AUG-CC-PVTZ-RI
    Molecular point group: c1

    Geometry (in Angstrom), charge = 0, multiplicity = 1:

       Center              X                  Y                   Z               Mass
    ------------   -----------------  -----------------  -----------------  -----------------
         O            1.407378374136     0.991572545574    -0.000003887559    15.994914619570
         O           -1.315502625864     1.573860545574     0.000005112441    15.994914619570
         N           -1.774713625864    -0.690817454426    -0.000009887559    14.003074004430
         N            0.982701374136    -1.211765454426     0.000003112441    14.003074004430
         C            0.478558374136     0.002936545574    -0.000000887559    12.000000000000
         C           -0.958378625864     0.393800545574    -0.000000887559    12.000000000000
         C           -3.218392625864    -0.565125454426     0.000003112441    12.000000000000
         C            2.604446374136     0.331676545574    -0.000000887559    12.000000000000
         C            2.349973374136    -1.009795454426     0.000004112441    12.000000000000
         H           -1.332304625864    -1.603217454426    -0.000002887559     1.007825032230
         H           -3.650182625864    -1.028854454426     0.891290112441     1.007825032230
         H           -3.650197625864    -1.028879454426    -0.891262887559     1.007825032230
         H           -3.450270625864     0.499731545574    -0.000009887559     1.007825032230
         H            3.491739374136     0.945220545574    -0.000002887559     1.007825032230
         H            3.180136974136    -1.984915154426     0.000008812441     1.007825032230

  Basis Set: AUG-CC-PVTZ
    Blend: AUG-CC-PVTZ
  Basis Set: (AUG-CC-PVTZ AUX)
    Blend: AUG-CC-PVTZ-JKFIT
	 Reference Energy          =    -451.5864951651245178 [Eh]
	 Singles Energy            =      -0.0000000000000000 [Eh]
	 Same-Spin Energy          =      -0.4627129601282007 [Eh]
	 Opposite-Spin Energy      =      -1.3939750039341914 [Eh]
	 Correlation Energy        =      -1.8566879640623921 [Eh]
	 Total Energy              =    -453.4431831291869344 [Eh]

	 ================> DF-SCS-MP2 Energies <==================
	-----------------------------------------------------------
	 SCS Same-Spin Scale       =       0.3333333333333333 [-]
	 SCS Opposite-Spin Scale   =       1.2000000000000000 [-]
	 SCS Same-Spin Energy      =      -0.1542376533760669 [Eh]
	 SCS Opposite-Spin Energy  =      -1.6727700047210297 [Eh]
	 SCS Correlation Energy    =      -1.8270076580970964 [Eh]
	 SCS Total Energy          =    -453.4135028232216200 [Eh]
	-----------------------------------------------------------

  Dipole Moment: [D]
     X:     1.1060      Y:    -2.7115      Z:     0.0000     Total:     2.9284

*** Psi4 exiting successfully. Buy a developer a beer!
