                               Psi4 1.3.2 release

  ==> Input File <==

--------------------------------------------------------------------------
#psi4
#
memory 32 gb

molecule  {
0 1
  O        1.4499930     1.0206980    -0.0000040
  O       -1.2728880     1.6029860     0.0000050
  N       -1.7320990    -0.6616920    -0.0000100
  N        1.0253160    -1.1826400     0.0000030
  C        0.5211730     0.0320620    -0.0000010
  C       -0.9157640     0.4229260    -0.0000010
  C       -3.1757780    -0.5360000     0.0000030
  C        2.6470610     0.3608020    -0.0000010
  C        2.3925880    -0.9806700     0.0000040
  H       -1.2896900    -1.5740920    -0.0000030
  H       -3.6075680    -0.9997290     0.8912900
  H       -3.6075830    -0.9997540    -0.8912630
  H       -3.4076560     0.5288570    -0.0000100
  H        3.4521029     0.9174711    -0.0000028
  H        3.0931030    -1.8035030     0.0000080
units angstrom
no_reorient  #important for SAPT in psi4, default
symmetry c1  #important for SAPT in psi4, default
}

set PROPERTIES_ORIGIN ["COM"]
properties('MP2/aug-cc-pvtz', properties = ['dipole'])
--------------------------------------------------------------------------

    Molecular point group: c1
  Charge       = 0
  Multiplicity = 1
  Basis Set: AUG-CC-PVTZ
    Blend: AUG-CC-PVTZ
  Basis Set: (AUG-CC-PVTZ AUX)
    Blend: AUG-CC-PVTZ-JKFIT

    Orbital Energies [Eh]
    ---------------------

    Doubly Occupied:

       1A    -20.658678     2A    -20.533429     3A    -15.597300
       4A    -15.595893     5A    -11.374855     6A    -11.357481
       7A    -11.305336     8A    -11.281720     9A    -11.265915
      10A     -1.503296    11A     -1.385333    12A     -1.261188
      13A     -1.234773    14A     -1.064936    15A     -0.973192
      16A     -0.874114    17A     -0.859533    18A     -0.793738
      19A     -0.777817    20A     -0.693390    21A     -0.679811
      22A     -0.658289    23A     -0.627901    24A     -0.625403
      25A     -0.598973    26A     -0.592205    27A     -0.554385
      28A     -0.546524    29A     -0.491244    30A     -0.471422
      31A     -0.447477    32A     -0.399991    33A     -0.354945

  @DF-RHF Final Energy:  -451.60340341489473

   => Energetics <=

    Nuclear Repulsion Energy =            433.7005307210205274
    One-Electron Energy =               -1475.7268938329434604
    Two-Electron Energy =                 590.4229596970280909
    Total Energy =                       -451.6034034148947285
  Basis Set: (AUG-CC-PVTZ AUX)
    Blend: AUG-CC-PVTZ-RI
    Molecular point group: c1

    Geometry (in Angstrom), charge = 0, multiplicity = 1:

       Center              X                  Y                   Z               Mass
    ------------   -----------------  -----------------  -----------------  -----------------
         O            1.409072700238     0.990809643582    -0.000003883561    15.994914619570
         O           -1.313808299762     1.573097643582     0.000005116439    15.994914619570
         N           -1.773019299762    -0.691580356418    -0.000009883561    14.003074004430
         N            0.984395700238    -1.212528356418     0.000003116439    14.003074004430
         C            0.480252700238     0.002173643582    -0.000000883561    12.000000000000
         C           -0.956684299762     0.393037643582    -0.000000883561    12.000000000000
         C           -3.216698299762    -0.565888356418     0.000003116439    12.000000000000
         C            2.606140700238     0.330913643582    -0.000000883561    12.000000000000
         C            2.351667700238    -1.010558356418     0.000004116439    12.000000000000
         H           -1.330610299762    -1.603980356418    -0.000002883561     1.007825032230
         H           -3.648488299762    -1.029617356418     0.891290116439     1.007825032230
         H           -3.648503299762    -1.029642356418    -0.891262883561     1.007825032230
         H           -3.448576299762     0.498968643582    -0.000009883561     1.007825032230
         H            3.411182600238     0.887582743582    -0.000002683561     1.007825032230
         H            3.052182700238    -1.833391356418     0.000008116439     1.007825032230

  Basis Set: AUG-CC-PVTZ
    Blend: AUG-CC-PVTZ
  Basis Set: (AUG-CC-PVTZ AUX)
    Blend: AUG-CC-PVTZ-JKFIT
	 Reference Energy          =    -451.6034034148947285 [Eh]
	 Singles Energy            =      -0.0000000000000000 [Eh]
	 Same-Spin Energy          =      -0.4620089004245195 [Eh]
	 Opposite-Spin Energy      =      -1.3914442964246800 [Eh]
	 Correlation Energy        =      -1.8534531968491996 [Eh]
	 Total Energy              =    -453.4568566117439445 [Eh]

	 ================> DF-SCS-MP2 Energies <==================
	-----------------------------------------------------------
	 SCS Same-Spin Scale       =       0.3333333333333333 [-]
	 SCS Opposite-Spin Scale   =       1.2000000000000000 [-]
	 SCS Same-Spin Energy      =      -0.1540029668081732 [Eh]
	 SCS Opposite-Spin Energy  =      -1.6697331557096160 [Eh]
	 SCS Correlation Energy    =      -1.8237361225177890 [Eh]
	 SCS Total Energy          =    -453.4271395374125291 [Eh]
	-----------------------------------------------------------

  Dipole Moment: [D]
     X:     1.1233      Y:    -2.7202      Z:     0.0000     Total:     2.9430

*** Psi4 exiting successfully. Buy a developer a beer!
