                               Psi4 1.3.2 release

  ==> Input File <==

--------------------------------------------------------------------------
#psi4
#
memory 32 gb

molecule  {
0 1
  O        1.4499930     1.0206980    -0.0000040
  O       -1.2728880     1.6029860     0.0000050
  N       -1.7320990    -0.6616920    -0.0000100
  N        1.0253160    -1.1826400     0.0000030
  C        0.5211730     0.0320620    -0.0000010
  C       -0.9157640     0.4229260    -0.0000010
  C       -3.1757780    -0.5360000     0.0000030
  C        2.7400175     0.3397831    -0.0000008
  C        2.3925880    -0.9806700     0.0000040
  H       -1.2896900    -1.5740920    -0.0000030
  H       -3.6075680    -0.9997290     0.8912900
  H       -3.6075830    -0.9997540    -0.8912630
  H       -3.4076560     0.5288570    -0.0000100
  H        3.5343540     0.9743460    -0.0000030
  H        3.0931030    -1.8035030     0.0000080
units angstrom
no_reorient  #important for SAPT in psi4, default
symmetry c1  #important for SAPT in psi4, default
}

set PROPERTIES_ORIGIN ["COM"]
properties('MP2/aug-cc-pvtz', properties = ['dipole'])
--------------------------------------------------------------------------

    Molecular point group: c1
  Charge       = 0
  Multiplicity = 1
  Basis Set: AUG-CC-PVTZ
    Blend: AUG-CC-PVTZ
  Basis Set: (AUG-CC-PVTZ AUX)
    Blend: AUG-CC-PVTZ-JKFIT

    Orbital Energies [Eh]
    ---------------------

    Doubly Occupied:

       1A    -20.646089     2A    -20.535074     3A    -15.599116
       4A    -15.593613     5A    -11.376191     6A    -11.362272
       7A    -11.314845     8A    -11.289931     9A    -11.266881
      10A     -1.471915    11A     -1.385542    12A     -1.257950
      13A     -1.233338    14A     -1.061335    15A     -0.974358
      16A     -0.872226    17A     -0.850066    18A     -0.790262
      19A     -0.768664    20A     -0.682800    21A     -0.664764
      22A     -0.660500    23A     -0.627452    24A     -0.626204
      25A     -0.599181    26A     -0.574565    27A     -0.555170
      28A     -0.545451    29A     -0.490619    30A     -0.467569
      31A     -0.448609    32A     -0.400893    33A     -0.360618

  @DF-RHF Final Energy:  -451.59750408150575

   => Energetics <=

    Nuclear Repulsion Energy =            431.1388675054936925
    One-Electron Energy =               -1470.7646155659538181
    Two-Electron Energy =                 588.0282439789543787
    Total Energy =                       -451.5975040815058037
  Basis Set: (AUG-CC-PVTZ AUX)
    Blend: AUG-CC-PVTZ-RI
    Molecular point group: c1

    Geometry (in Angstrom), charge = 0, multiplicity = 1:

       Center              X                  Y                   Z               Mass
    ------------   -----------------  -----------------  -----------------  -----------------
         O            1.399565044856     0.992355996527    -0.000003901003    15.994914619570
         O           -1.323315955144     1.574643996527     0.000005098997    15.994914619570
         N           -1.782526955144    -0.690034003473    -0.000009901003    14.003074004430
         N            0.974888044856    -1.210982003473     0.000003098997    14.003074004430
         C            0.470745044856     0.003719996527    -0.000000901003    12.000000000000
         C           -0.966191955144     0.394583996527    -0.000000901003    12.000000000000
         C           -3.226205955144    -0.564342003473     0.000003098997    12.000000000000
         C            2.689589544856     0.311441096527    -0.000000701003    12.000000000000
         C            2.342160044856    -1.009012003473     0.000004098997    12.000000000000
         H           -1.340117955144    -1.602434003473    -0.000002901003     1.007825032230
         H           -3.657995955144    -1.028071003473     0.891290098997     1.007825032230
         H           -3.658010955144    -1.028096003473    -0.891262901003     1.007825032230
         H           -3.458083955144     0.500514996527    -0.000009901003     1.007825032230
         H            3.483926044856     0.946003996527    -0.000002901003     1.007825032230
         H            3.042675044856    -1.831845003473     0.000008098997     1.007825032230

  Basis Set: AUG-CC-PVTZ
    Blend: AUG-CC-PVTZ
  Basis Set: (AUG-CC-PVTZ AUX)
    Blend: AUG-CC-PVTZ-JKFIT
	 Reference Energy          =    -451.5975040815057469 [Eh]
	 Singles Energy            =      -0.0000000000000000 [Eh]
	 Same-Spin Energy          =      -0.4620910802497709 [Eh]
	 Opposite-Spin Energy      =      -1.3939247964701615 [Eh]
	 Correlation Energy        =      -1.8560158767199324 [Eh]
	 Total Energy              =    -453.4535199582256837 [Eh]

	 ================> DF-SCS-MP2 Energies <==================
	-----------------------------------------------------------
	 SCS Same-Spin Scale       =       0.3333333333333333 [-]
	 SCS Opposite-Spin Scale   =       1.2000000000000000 [-]
	 SCS Same-Spin Energy      =      -0.1540303600832569 [Eh]
	 SCS Opposite-Spin Energy  =      -1.6727097557641939 [Eh]
	 SCS Correlation Energy    =      -1.8267401158474508 [Eh]
	 SCS Total Energy          =    -453.4242441973531754 [Eh]
	-----------------------------------------------------------

  Dipole Moment: [D]
     X:     1.1681      Y:    -2.7556      Z:     0.0000     Total:     2.9929

*** Psi4 exiting successfully. Buy a developer a beer!
