                               Psi4 1.3.2 release

  ==> Input File <==

--------------------------------------------------------------------------
#psi4
#
memory 32 gb

molecule  {
0 1
  O        1.4499930     1.0206980    -0.0000040
  O       -1.2728880     1.6029860     0.0000050
  N       -1.7320990    -0.6616920    -0.0000100
  N        1.1495252    -1.1232884     0.0000027
  C        0.5211730     0.0320620    -0.0000010
  C       -0.9157640     0.4229260    -0.0000010
  C       -3.1757780    -0.5360000     0.0000030
  C        2.6470610     0.3608020    -0.0000010
  C        2.3925880    -0.9806700     0.0000040
  H       -1.2896900    -1.5740920    -0.0000030
  H       -3.6075680    -0.9997290     0.8912900
  H       -3.6075830    -0.9997540    -0.8912630
  H       -3.4076560     0.5288570    -0.0000100
  H        3.5343540     0.9743460    -0.0000030
  H        3.0931030    -1.8035030     0.0000080
units angstrom
no_reorient  #important for SAPT in psi4, default
symmetry c1  #important for SAPT in psi4, default
}

set PROPERTIES_ORIGIN ["COM"]
properties('MP2/aug-cc-pvtz', properties = ['dipole'])
--------------------------------------------------------------------------

    Molecular point group: c1
  Charge       = 0
  Multiplicity = 1
  Basis Set: AUG-CC-PVTZ
    Blend: AUG-CC-PVTZ
  Basis Set: (AUG-CC-PVTZ AUX)
    Blend: AUG-CC-PVTZ-JKFIT

    Orbital Energies [Eh]
    ---------------------

    Doubly Occupied:

       1A    -20.660074     2A    -20.533140     3A    -15.598773
       4A    -15.579148     5A    -11.377584     6A    -11.349600
       7A    -11.311924     8A    -11.268587     9A    -11.266662
      10A     -1.508496    11A     -1.385465    12A     -1.283677
      13A     -1.242447    14A     -1.062711    15A     -0.971346
      16A     -0.871720    17A     -0.859982    18A     -0.802725
      19A     -0.776197    20A     -0.688176    21A     -0.683153
      22A     -0.660045    23A     -0.632314    24A     -0.628859
      25A     -0.600306    26A     -0.593153    27A     -0.554555
      28A     -0.546668    29A     -0.489208    30A     -0.467371
      31A     -0.448199    32A     -0.401594    33A     -0.342158

  @DF-RHF Final Energy:  -451.59137728093128

   => Energetics <=

    Nuclear Repulsion Energy =            435.1280284119604858
    One-Electron Energy =               -1478.5467754689973390
    Two-Electron Energy =                 591.8273697761055701
    Total Energy =                       -451.5913772809312832
  Basis Set: (AUG-CC-PVTZ AUX)
    Blend: AUG-CC-PVTZ-RI
    Molecular point group: c1

    Geometry (in Angstrom), charge = 0, multiplicity = 1:

       Center              X                  Y                   Z               Mass
    ------------   -----------------  -----------------  -----------------  -----------------
         O            1.394615678538     0.983761054557    -0.000003848632    15.994914619570
         O           -1.328265321462     1.566049054557     0.000005151368    15.994914619570
         N           -1.787476321462    -0.698628945443    -0.000009848632    14.003074004430
         N            1.094147878538    -1.160225345443     0.000002851368    14.003074004430
         C            0.465795678538    -0.004874945443    -0.000000848632    12.000000000000
         C           -0.971141321462     0.385989054557    -0.000000848632    12.000000000000
         C           -3.231155321462    -0.572936945443     0.000003151368    12.000000000000
         C            2.591683678538     0.323865054557    -0.000000848632    12.000000000000
         C            2.337210678538    -1.017606945443     0.000004151368    12.000000000000
         H           -1.345067321462    -1.611028945443    -0.000002848632     1.007825032230
         H           -3.662945321462    -1.036665945443     0.891290151368     1.007825032230
         H           -3.662960321462    -1.036690945443    -0.891262848632     1.007825032230
         H           -3.463033321462     0.491920054557    -0.000009848632     1.007825032230
         H            3.478976678538     0.937409054557    -0.000002848632     1.007825032230
         H            3.037725678538    -1.840439945443     0.000008151368     1.007825032230

  Basis Set: AUG-CC-PVTZ
    Blend: AUG-CC-PVTZ
  Basis Set: (AUG-CC-PVTZ AUX)
    Blend: AUG-CC-PVTZ-JKFIT
	 Reference Energy          =    -451.5913772809312832 [Eh]
	 Singles Energy            =      -0.0000000000000000 [Eh]
	 Same-Spin Energy          =      -0.4642867718431479 [Eh]
	 Opposite-Spin Energy      =      -1.3915036168351738 [Eh]
	 Correlation Energy        =      -1.8557903886783218 [Eh]
	 Total Energy              =    -453.4471676696095983 [Eh]

	 ================> DF-SCS-MP2 Energies <==================
	-----------------------------------------------------------
	 SCS Same-Spin Scale       =       0.3333333333333333 [-]
	 SCS Opposite-Spin Scale   =       1.2000000000000000 [-]
	 SCS Same-Spin Energy      =      -0.1547622572810493 [Eh]
	 SCS Opposite-Spin Energy  =      -1.6698043402022085 [Eh]
	 SCS Correlation Energy    =      -1.8245665974832579 [Eh]
	 SCS Total Energy          =    -453.4159438784145664 [Eh]
	-----------------------------------------------------------

  Dipole Moment: [D]
     X:     0.9826      Y:    -2.8575      Z:     0.0000     Total:     3.0218

*** Psi4 exiting successfully. Buy a developer a beer!
