                               Psi4 1.3.2 release

  ==> Input File <==

--------------------------------------------------------------------------
#psi4
#
memory 32 gb

molecule  {
0 1
  O        1.4499930     1.0206980    -0.0000040
  O       -1.2314869     1.6147306     0.0000051
  N       -1.7320990    -0.6616920    -0.0000100
  N        1.0253160    -1.1826400     0.0000030
  C        0.5211730     0.0320620    -0.0000010
  C       -0.9157640     0.4229260    -0.0000010
  C       -3.1757780    -0.5360000     0.0000030
  C        2.6470610     0.3608020    -0.0000010
  C        2.3925880    -0.9806700     0.0000040
  H       -1.2896900    -1.5740920    -0.0000030
  H       -3.6075680    -0.9997290     0.8912900
  H       -3.6075830    -0.9997540    -0.8912630
  H       -3.4076560     0.5288570    -0.0000100
  H        3.5343540     0.9743460    -0.0000030
  H        3.0931030    -1.8035030     0.0000080
units angstrom
no_reorient  #important for SAPT in psi4, default
symmetry c1  #important for SAPT in psi4, default
}

set PROPERTIES_ORIGIN ["COM"]
properties('MP2/aug-cc-pvtz', properties = ['dipole'])
--------------------------------------------------------------------------

    Molecular point group: c1
  Charge       = 0
  Multiplicity = 1
  Basis Set: AUG-CC-PVTZ
    Blend: AUG-CC-PVTZ
  Basis Set: (AUG-CC-PVTZ AUX)
    Blend: AUG-CC-PVTZ-JKFIT

    Orbital Energies [Eh]
    ---------------------

    Doubly Occupied:

       1A    -20.657740     2A    -20.534208     3A    -15.599260
       4A    -15.594600     5A    -11.375193     6A    -11.355528
       7A    -11.314846     8A    -11.280511     9A    -11.267523
      10A     -1.502302    11A     -1.385227    12A     -1.261239
      13A     -1.236021    14A     -1.060085    15A     -0.971807
      16A     -0.872928    17A     -0.848565    18A     -0.794128
      19A     -0.773976    20A     -0.679941    21A     -0.678963
      22A     -0.657222    23A     -0.628866    24A     -0.620599
      25A     -0.597805    26A     -0.589652    27A     -0.556379
      28A     -0.547224    29A     -0.489881    30A     -0.470482
      31A     -0.447213    32A     -0.401539    33A     -0.353527

  @DF-RHF Final Energy:  -451.60946076826917

   => Energetics <=

    Nuclear Repulsion Energy =            433.2697873510957152
    One-Electron Energy =               -1474.9485359470290859
    Two-Electron Energy =                 590.0692878276643114
    Total Energy =                       -451.6094607682691731
  Basis Set: (AUG-CC-PVTZ AUX)
    Blend: AUG-CC-PVTZ-RI
    Molecular point group: c1

    Geometry (in Angstrom), charge = 0, multiplicity = 1:

       Center              X                  Y                   Z               Mass
    ------------   -----------------  -----------------  -----------------  -----------------
         O            1.403161208080     0.988864482301    -0.000003894651    15.994914619570
         O           -1.278318691920     1.582897082301     0.000005205349    15.994914619570
         N           -1.778930791920    -0.693525517699    -0.000009894651    14.003074004430
         N            0.978484208080    -1.214473517699     0.000003105349    14.003074004430
         C            0.474341208080     0.000228482301    -0.000000894651    12.000000000000
         C           -0.962595791920     0.391092482301    -0.000000894651    12.000000000000
         C           -3.222609791920    -0.567833517699     0.000003105349    12.000000000000
         C            2.600229208080     0.328968482301    -0.000000894651    12.000000000000
         C            2.345756208080    -1.012503517699     0.000004105349    12.000000000000
         H           -1.336521791920    -1.605925517699    -0.000002894651     1.007825032230
         H           -3.654399791920    -1.031562517699     0.891290105349     1.007825032230
         H           -3.654414791920    -1.031587517699    -0.891262894651     1.007825032230
         H           -3.454487791920     0.497023482301    -0.000009894651     1.007825032230
         H            3.487522208080     0.942512482301    -0.000002894651     1.007825032230
         H            3.046271208080    -1.835336517699     0.000008105349     1.007825032230

  Basis Set: AUG-CC-PVTZ
    Blend: AUG-CC-PVTZ
  Basis Set: (AUG-CC-PVTZ AUX)
    Blend: AUG-CC-PVTZ-JKFIT
	 Reference Energy          =    -451.6094607682691731 [Eh]
	 Singles Energy            =      -0.0000000000000000 [Eh]
	 Same-Spin Energy          =      -0.4621158368572699 [Eh]
	 Opposite-Spin Energy      =      -1.3918669457568114 [Eh]
	 Correlation Energy        =      -1.8539827826140813 [Eh]
	 Total Energy              =    -453.4634435508832553 [Eh]

	 ================> DF-SCS-MP2 Energies <==================
	-----------------------------------------------------------
	 SCS Same-Spin Scale       =       0.3333333333333333 [-]
	 SCS Opposite-Spin Scale   =       1.2000000000000000 [-]
	 SCS Same-Spin Energy      =      -0.1540386122857566 [Eh]
	 SCS Opposite-Spin Energy  =      -1.6702403349081736 [Eh]
	 SCS Correlation Energy    =      -1.8242789471939302 [Eh]
	 SCS Total Energy          =    -453.4337397154631049 [Eh]
	-----------------------------------------------------------

  Dipole Moment: [D]
     X:     1.0036      Y:    -2.7110      Z:     0.0000     Total:     2.8908

*** Psi4 exiting successfully. Buy a developer a beer!
