                               Psi4 1.3.2 release

  ==> Input File <==

--------------------------------------------------------------------------
#psi4
#
memory 32 gb

molecule  {
0 1
  O        1.4499930     1.0206980    -0.0000040
  O       -1.2728880     1.6029860     0.0000050
  N       -1.7320990    -0.6616920    -0.0000100
  N        1.0253160    -1.1826400     0.0000030
  C        0.5211730     0.0320620    -0.0000010
  C       -0.9157640     0.4229260    -0.0000010
  C       -3.1757780    -0.5360000     0.0000030
  C        2.6470610     0.3608020    -0.0000010
  C        2.3739507    -1.0789179     0.0000044
  H       -1.2896900    -1.5740920    -0.0000030
  H       -3.6075680    -0.9997290     0.8912900
  H       -3.6075830    -0.9997540    -0.8912630
  H       -3.4076560     0.5288570    -0.0000100
  H        3.5343540     0.9743460    -0.0000030
  H        3.0931030    -1.8035030     0.0000080
units angstrom
no_reorient  #important for SAPT in psi4, default
symmetry c1  #important for SAPT in psi4, default
}

set PROPERTIES_ORIGIN ["COM"]
properties('MP2/aug-cc-pvtz', properties = ['dipole'])
--------------------------------------------------------------------------

    Molecular point group: c1
  Charge       = 0
  Multiplicity = 1
  Basis Set: AUG-CC-PVTZ
    Blend: AUG-CC-PVTZ
  Basis Set: (AUG-CC-PVTZ AUX)
    Blend: AUG-CC-PVTZ-JKFIT

    Orbital Energies [Eh]
    ---------------------

    Doubly Occupied:

       1A    -20.667997     2A    -20.531171     3A    -15.597373
       4A    -15.595312     5A    -11.373483     6A    -11.354135
       7A    -11.330149     8A    -11.290327     9A    -11.264715
      10A     -1.504443    11A     -1.383497    12A     -1.265348
      13A     -1.235454    14A     -1.052328    15A     -0.966399
      16A     -0.871984    17A     -0.857219    18A     -0.792316
      19A     -0.774033    20A     -0.681914    21A     -0.679055
      22A     -0.670234    23A     -0.637519    24A     -0.626486
      25A     -0.597311    26A     -0.585317    27A     -0.552904
      28A     -0.545114    29A     -0.481646    30A     -0.477398
      31A     -0.445987    32A     -0.398652    33A     -0.337127

  @DF-RHF Final Energy:  -451.59204702788838

   => Energetics <=

    Nuclear Repulsion Energy =            432.0531371192039387
    One-Electron Energy =               -1472.4416739197602055
    Two-Electron Energy =                 588.7964897726678828
    Total Energy =                       -451.5920470278883840
  Basis Set: (AUG-CC-PVTZ AUX)
    Blend: AUG-CC-PVTZ-RI
    Molecular point group: c1

    Geometry (in Angstrom), charge = 0, multiplicity = 1:

       Center              X                  Y                   Z               Mass
    ------------   -----------------  -----------------  -----------------  -----------------
         O            1.410189406152     0.999708634385    -0.000003920044    15.994914619570
         O           -1.312691593848     1.581996634385     0.000005079956    15.994914619570
         N           -1.771902593848    -0.682681365615    -0.000009920044    14.003074004430
         N            0.985512406152    -1.203629365615     0.000003079956    14.003074004430
         C            0.481369406152     0.011072634385    -0.000000920044    12.000000000000
         C           -0.955567593848     0.401936634385    -0.000000920044    12.000000000000
         C           -3.215581593848    -0.556989365615     0.000003079956    12.000000000000
         C            2.607257406152     0.339812634385    -0.000000920044    12.000000000000
         C            2.334147106152    -1.099907265615     0.000004479956    12.000000000000
         H           -1.329493593848    -1.595081365615    -0.000002920044     1.007825032230
         H           -3.647371593848    -1.020718365615     0.891290079956     1.007825032230
         H           -3.647386593848    -1.020743365615    -0.891262920044     1.007825032230
         H           -3.447459593848     0.507867634385    -0.000009920044     1.007825032230
         H            3.494550406152     0.953356634385    -0.000002920044     1.007825032230
         H            3.053299406152    -1.824492365615     0.000008079956     1.007825032230

  Basis Set: AUG-CC-PVTZ
    Blend: AUG-CC-PVTZ
  Basis Set: (AUG-CC-PVTZ AUX)
    Blend: AUG-CC-PVTZ-JKFIT
	 Reference Energy          =    -451.5920470278883840 [Eh]
	 Singles Energy            =      -0.0000000000000000 [Eh]
	 Same-Spin Energy          =      -0.4645343065862348 [Eh]
	 Opposite-Spin Energy      =      -1.3954032061325088 [Eh]
	 Correlation Energy        =      -1.8599375127187436 [Eh]
	 Total Energy              =    -453.4519845406070999 [Eh]

	 ================> DF-SCS-MP2 Energies <==================
	-----------------------------------------------------------
	 SCS Same-Spin Scale       =       0.3333333333333333 [-]
	 SCS Opposite-Spin Scale   =       1.2000000000000000 [-]
	 SCS Same-Spin Energy      =      -0.1548447688620783 [Eh]
	 SCS Opposite-Spin Energy  =      -1.6744838473590105 [Eh]
	 SCS Correlation Energy    =      -1.8293286162210887 [Eh]
	 SCS Total Energy          =    -453.4213756441094461 [Eh]
	-----------------------------------------------------------

  Dipole Moment: [D]
     X:     1.2454      Y:    -2.7862      Z:     0.0000     Total:     3.0519

*** Psi4 exiting successfully. Buy a developer a beer!
