                               Psi4 1.3.2 release

  ==> Input File <==

--------------------------------------------------------------------------
#psi4
#
memory 32 gb

molecule  {
0 1
  O        1.4499930     1.0206980    -0.0000040
  O       -1.2728880     1.6029860     0.0000050
  N       -1.7320990    -0.6616920    -0.0000100
  N        1.0253160    -1.1826400     0.0000030
  C        0.5211730     0.0320620    -0.0000010
  C       -0.9157640     0.4229260    -0.0000010
  C       -3.1757780    -0.5360000     0.0000030
  C        2.6470610     0.3608020    -0.0000010
  C        2.1947350    -1.0098964     0.0000039
  H       -1.2896900    -1.5740920    -0.0000030
  H       -3.6075680    -0.9997290     0.8912900
  H       -3.6075830    -0.9997540    -0.8912630
  H       -3.4076560     0.5288570    -0.0000100
  H        3.5343540     0.9743460    -0.0000030
  H        3.0931030    -1.8035030     0.0000080
units angstrom
no_reorient  #important for SAPT in psi4, default
symmetry c1  #important for SAPT in psi4, default
}

set PROPERTIES_ORIGIN ["COM"]
properties('MP2/aug-cc-pvtz', properties = ['dipole'])
--------------------------------------------------------------------------

    Molecular point group: c1
  Charge       = 0
  Multiplicity = 1
  Basis Set: AUG-CC-PVTZ
    Blend: AUG-CC-PVTZ
  Basis Set: (AUG-CC-PVTZ AUX)
    Blend: AUG-CC-PVTZ-JKFIT

    Orbital Energies [Eh]
    ---------------------

    Doubly Occupied:

       1A    -20.673659     2A    -20.529089     3A    -15.596265
       4A    -15.590132     5A    -11.372294     6A    -11.355387
       7A    -11.317386     8A    -11.287494     9A    -11.265376
      10A     -1.517819    11A     -1.382289    12A     -1.328472
      13A     -1.241248    14A     -1.052833    15A     -0.966381
      16A     -0.879886    17A     -0.850303    18A     -0.809549
      19A     -0.776648    20A     -0.691201    21A     -0.681078
      22A     -0.660472    23A     -0.632844    24A     -0.627505
      25A     -0.596267    26A     -0.579706    27A     -0.552527
      28A     -0.544559    29A     -0.515988    30A     -0.477012
      31A     -0.444897    32A     -0.399569    33A     -0.326793

  @DF-RHF Final Energy:  -451.54669110141896

   => Energetics <=

    Nuclear Repulsion Energy =            436.6494778827627101
    One-Electron Energy =               -1481.3464766193239939
    Two-Electron Energy =                 593.1503076351423260
    Total Energy =                       -451.5466911014189009
  Basis Set: (AUG-CC-PVTZ AUX)
    Blend: AUG-CC-PVTZ-RI
    Molecular point group: c1

    Geometry (in Angstrom), charge = 0, multiplicity = 1:

       Center              X                  Y                   Z               Mass
    ------------   -----------------  -----------------  -----------------  -----------------
         O            1.427251755017     0.993137396975    -0.000003872441    15.994914619570
         O           -1.295629244983     1.575425396975     0.000005127559    15.994914619570
         N           -1.754840244983    -0.689252603025    -0.000009872441    14.003074004430
         N            1.002574755017    -1.210200603025     0.000003127559    14.003074004430
         C            0.498431755017     0.004501396975    -0.000000872441    12.000000000000
         C           -0.938505244983     0.395365396975    -0.000000872441    12.000000000000
         C           -3.198519244983    -0.563560603025     0.000003127559    12.000000000000
         C            2.624319755017     0.333241396975    -0.000000872441    12.000000000000
         C            2.171993755017    -1.037457003025     0.000004027559    12.000000000000
         H           -1.312431244983    -1.601652603025    -0.000002872441     1.007825032230
         H           -3.630309244983    -1.027289603025     0.891290127559     1.007825032230
         H           -3.630324244983    -1.027314603025    -0.891262872441     1.007825032230
         H           -3.430397244983     0.501296396975    -0.000009872441     1.007825032230
         H            3.511612755017     0.946785396975    -0.000002872441     1.007825032230
         H            3.070361755017    -1.831063603025     0.000008127559     1.007825032230

  Basis Set: AUG-CC-PVTZ
    Blend: AUG-CC-PVTZ
  Basis Set: (AUG-CC-PVTZ AUX)
    Blend: AUG-CC-PVTZ-JKFIT
	 Reference Energy          =    -451.5466911014189577 [Eh]
	 Singles Energy            =      -0.0000000000000000 [Eh]
	 Same-Spin Energy          =      -0.4671860022060746 [Eh]
	 Opposite-Spin Energy      =      -1.3965491581538887 [Eh]
	 Correlation Energy        =      -1.8637351603599632 [Eh]
	 Total Energy              =    -453.4104262617789232 [Eh]

	 ================> DF-SCS-MP2 Energies <==================
	-----------------------------------------------------------
	 SCS Same-Spin Scale       =       0.3333333333333333 [-]
	 SCS Opposite-Spin Scale   =       1.2000000000000000 [-]
	 SCS Same-Spin Energy      =      -0.1557286674020249 [Eh]
	 SCS Opposite-Spin Energy  =      -1.6758589897846663 [Eh]
	 SCS Correlation Energy    =      -1.8315876571866911 [Eh]
	 SCS Total Energy          =    -453.3782787586056315 [Eh]
	-----------------------------------------------------------

  Dipole Moment: [D]
     X:     1.1397      Y:    -2.7291      Z:     0.0000     Total:     2.9575

*** Psi4 exiting successfully. Buy a developer a beer!
