                               Psi4 1.4a3.dev225

  ==> Input File <==

--------------------------------------------------------------------------
#psi4
#
memory 32 gb

molecule  {
0 1
  O        1.4499930     1.0206980    -0.0000040
  O       -1.2728880     1.6029860     0.0000050
  N       -1.7320990    -0.6616920    -0.0000100
  N        1.0253160    -1.1826400     0.0000030
  C        0.5211730     0.0320620    -0.0000010
  C       -0.9157640     0.4229260    -0.0000010
  C       -3.1757780    -0.5360000     0.0000030
  C        2.6470610     0.3608020    -0.0000010
  C        2.3832693    -1.0297940     0.0000042
  H       -1.2896900    -1.5740920    -0.0000030
  H       -3.6075680    -0.9997290     0.8912900
  H       -3.6075830    -0.9997540    -0.8912630
  H       -3.4076560     0.5288570    -0.0000100
  H        3.5343540     0.9743460    -0.0000030
  H        3.0931030    -1.8035030     0.0000080
units angstrom
no_reorient  #important for SAPT in psi4, default
symmetry c1  #important for SAPT in psi4, default
}

set PROPERTIES_ORIGIN ["COM"]
properties('MP2/aug-cc-pvtz', properties = ['dipole'])
--------------------------------------------------------------------------

    Molecular point group: c1
  Charge       = 0
  Multiplicity = 1
  Basis Set: AUG-CC-PVTZ
    Blend: AUG-CC-PVTZ
  Basis Set: (AUG-CC-PVTZ AUX)
    Blend: AUG-CC-PVTZ-JKFIT

    Orbital Energies [Eh]
    ---------------------

    Doubly Occupied:

       1A    -20.663600     2A    -20.532337     3A    -15.596635
       4A    -15.596340     5A    -11.374223     6A    -11.355895
       7A    -11.323376     8A    -11.286026     9A    -11.265335
      10A     -1.503953    11A     -1.384448    12A     -1.263327
      13A     -1.235334    14A     -1.056258    15A     -0.968586
      16A     -0.871390    17A     -0.854578    18A     -0.793353
      19A     -0.774190    20A     -0.680638    21A     -0.679483
      22A     -0.661653    23A     -0.631516    24A     -0.627213
      25A     -0.597925    26A     -0.588512    27A     -0.553670
      28A     -0.545832    29A     -0.486762    30A     -0.474447
      31A     -0.446821    32A     -0.399329    33A     -0.345495

  @DF-RHF Final Energy:  -451.60389257633403

   => Energetics <=

    Nuclear Repulsion Energy =            432.5868151593621747
    One-Electron Energy =               -1473.5444522397160654
    Two-Electron Energy =                 589.3537445040198008
    Total Energy =                       -451.6038925763340330
  Basis Set: (AUG-CC-PVTZ AUX)
    Blend: AUG-CC-PVTZ-RI
    Molecular point group: c1

    Geometry (in Angstrom), charge = 0, multiplicity = 1:

       Center              X                  Y                   Z               Mass
    ------------   -----------------  -----------------  -----------------  -----------------
         O            1.409302222696     0.995031761101    -0.000003901003    15.994914619570
         O           -1.313578777304     1.577319761101     0.000005098997    15.994914619570
         N           -1.772789777304    -0.687358238899    -0.000009901003    14.003074004430
         N            0.984625222696    -1.208306238899     0.000003098997    14.003074004430
         C            0.480482222696     0.006395761101    -0.000000901003    12.000000000000
         C           -0.956454777304     0.397259761101    -0.000000901003    12.000000000000
         C           -3.216468777304    -0.561666238899     0.000003098997    12.000000000000
         C            2.606370222696     0.335135761101    -0.000000901003    12.000000000000
         C            2.342578522696    -1.055460238899     0.000004298997    12.000000000000
         H           -1.330380777304    -1.599758238899    -0.000002901003     1.007825032230
         H           -3.648258777304    -1.025395238899     0.891290098997     1.007825032230
         H           -3.648273777304    -1.025420238899    -0.891262901003     1.007825032230
         H           -3.448346777304     0.503190761101    -0.000009901003     1.007825032230
         H            3.493663222696     0.948679761101    -0.000002901003     1.007825032230
         H            3.052412222696    -1.829169238899     0.000008098997     1.007825032230

  Basis Set: AUG-CC-PVTZ
    Blend: AUG-CC-PVTZ
  Basis Set: (AUG-CC-PVTZ AUX)
    Blend: AUG-CC-PVTZ-JKFIT
	 Reference Energy          =    -451.6038925763340330 [Eh]
	 Singles Energy            =      -0.0000000000000000 [Eh]
	 Same-Spin Energy          =      -0.4633036771405649 [Eh]
	 Opposite-Spin Energy      =      -1.3935226262608418 [Eh]
	 Correlation Energy        =      -1.8568263034014068 [Eh]
	 Total Energy              =    -453.4607188797354524 [Eh]

	 ================> DF-SCS-MP2 Energies <==================
	-----------------------------------------------------------
	 SCS Same-Spin Scale       =       0.3333333333333333 [-]
	 SCS Opposite-Spin Scale   =       1.2000000000000000 [-]
	 SCS Same-Spin Energy      =      -0.1544345590468550 [Eh]
	 SCS Opposite-Spin Energy  =      -1.6722271515130100 [Eh]
	 SCS Correlation Energy    =      -1.8266617105598650 [Eh]
	 SCS Total Energy          =    -453.4305542868938801 [Eh]
	-----------------------------------------------------------

  Dipole Moment: [D]
     X:     1.2021      Y:    -2.7364      Z:     0.0000     Total:     2.9888

*** Psi4 exiting successfully. Buy a developer a beer!
