                               Psi4 1.4a3.dev225

  ==> Input File <==

--------------------------------------------------------------------------
#psi4
#
memory 32 gb

molecule  {
0 1
  O        1.4499930     1.0206980    -0.0000040
  O       -1.2728880     1.6029860     0.0000050
  N       -1.7320990    -0.6616920    -0.0000100
  N        1.0253160    -1.1826400     0.0000030
  C        0.5211730     0.0320620    -0.0000010
  C       -0.8675171     0.4098023    -0.0000010
  C       -3.1757780    -0.5360000     0.0000030
  C        2.6470610     0.3608020    -0.0000010
  C        2.3925880    -0.9806700     0.0000040
  H       -1.2896900    -1.5740920    -0.0000030
  H       -3.6075680    -0.9997290     0.8912900
  H       -3.6075830    -0.9997540    -0.8912630
  H       -3.4076560     0.5288570    -0.0000100
  H        3.5343540     0.9743460    -0.0000030
  H        3.0931030    -1.8035030     0.0000080
units angstrom
no_reorient  #important for SAPT in psi4, default
symmetry c1  #important for SAPT in psi4, default
}

set PROPERTIES_ORIGIN ["COM"]
properties('MP2/aug-cc-pvtz', properties = ['dipole'])
--------------------------------------------------------------------------

    Molecular point group: c1
  Charge       = 0
  Multiplicity = 1
  Basis Set: AUG-CC-PVTZ
    Blend: AUG-CC-PVTZ
  Basis Set: (AUG-CC-PVTZ AUX)
    Blend: AUG-CC-PVTZ-JKFIT

    Orbital Energies [Eh]
    ---------------------

    Doubly Occupied:

       1A    -20.663048     2A    -20.530568     3A    -15.602119
       4A    -15.595308     5A    -11.374645     6A    -11.358762
       7A    -11.321204     8A    -11.285411     9A    -11.264294
      10A     -1.507854    11A     -1.368244    12A     -1.263104
      13A     -1.227027    14A     -1.070769    15A     -0.970932
      16A     -0.884580    17A     -0.854560    18A     -0.793656
      19A     -0.769814    20A     -0.684280    21A     -0.682063
      22A     -0.653816    23A     -0.623119    24A     -0.621442
      25A     -0.598427    26A     -0.593926    27A     -0.549604
      28A     -0.539295    29A     -0.494927    30A     -0.474162
      31A     -0.445739    32A     -0.393819    33A     -0.357931

  @DF-RHF Final Energy:  -451.60235392532468

   => Energetics <=

    Nuclear Repulsion Energy =            433.2555262446583697
    One-Electron Energy =               -1474.8788622994982234
    Two-Electron Energy =                 590.0209821295152324
    Total Energy =                       -451.6023539253246781
  Basis Set: (AUG-CC-PVTZ AUX)
    Blend: AUG-CC-PVTZ-RI
    Molecular point group: c1

    Geometry (in Angstrom), charge = 0, multiplicity = 1:

       Center              X                  Y                   Z               Mass
    ------------   -----------------  -----------------  -----------------  -----------------
         O            1.403821651798     0.991604328806    -0.000003881961    15.994914619570
         O           -1.319059348202     1.573892328806     0.000005118039    15.994914619570
         N           -1.778270348202    -0.690785671194    -0.000009881961    14.003074004430
         N            0.979144651798    -1.211733671194     0.000003118039    14.003074004430
         C            0.475001651798     0.002968328806    -0.000000881961    12.000000000000
         C           -0.913688448202     0.380708628806    -0.000000881961    12.000000000000
         C           -3.221949348202    -0.565093671194     0.000003118039    12.000000000000
         C            2.600889651798     0.331708328806    -0.000000881961    12.000000000000
         C            2.346416651798    -1.009763671194     0.000004118039    12.000000000000
         H           -1.335861348202    -1.603185671194    -0.000002881961     1.007825032230
         H           -3.653739348202    -1.028822671194     0.891290118039     1.007825032230
         H           -3.653754348202    -1.028847671194    -0.891262881961     1.007825032230
         H           -3.453827348202     0.499763328806    -0.000009881961     1.007825032230
         H            3.488182651798     0.945252328806    -0.000002881961     1.007825032230
         H            3.046931651798    -1.832596671194     0.000008118039     1.007825032230

  Basis Set: AUG-CC-PVTZ
    Blend: AUG-CC-PVTZ
  Basis Set: (AUG-CC-PVTZ AUX)
    Blend: AUG-CC-PVTZ-JKFIT
	 Reference Energy          =    -451.6023539253246781 [Eh]
	 Singles Energy            =      -0.0000000000000000 [Eh]
	 Same-Spin Energy          =      -0.4635636299865742 [Eh]
	 Opposite-Spin Energy      =      -1.3945218245988782 [Eh]
	 Correlation Energy        =      -1.8580854545854524 [Eh]
	 Total Energy              =    -453.4604393799101558 [Eh]

	 ================> DF-SCS-MP2 Energies <==================
	-----------------------------------------------------------
	 SCS Same-Spin Scale       =       0.3333333333333333 [-]
	 SCS Opposite-Spin Scale   =       1.2000000000000000 [-]
	 SCS Same-Spin Energy      =      -0.1545212099955247 [Eh]
	 SCS Opposite-Spin Energy  =      -1.6734261895186537 [Eh]
	 SCS Correlation Energy    =      -1.8279473995141784 [Eh]
	 SCS Total Energy          =    -453.4303013248388652 [Eh]
	-----------------------------------------------------------

  Dipole Moment: [D]
     X:     1.4713      Y:    -2.7630      Z:     0.0000     Total:     3.1303

*** Psi4 exiting successfully. Buy a developer a beer!
