                               Psi4 1.4a3.dev225

  ==> Input File <==

--------------------------------------------------------------------------
#psi4
#
memory 32 gb

molecule  {
0 1
  O        1.4499930     1.0206980    -0.0000040
  O       -1.2728880     1.6029860     0.0000050
  N       -1.7320990    -0.6616920    -0.0000100
  N        1.0253160    -1.1826400     0.0000030
  C        0.5211730     0.0320620    -0.0000010
  C       -0.9157640     0.4229260    -0.0000010
  C       -3.1757780    -0.5360000     0.0000030
  C        2.6032735     0.3849403    -0.0000011
  C        2.3925880    -0.9806700     0.0000040
  H       -1.2896900    -1.5740920    -0.0000030
  H       -3.6075680    -0.9997290     0.8912900
  H       -3.6075830    -0.9997540    -0.8912630
  H       -3.4076560     0.5288570    -0.0000100
  H        3.5343540     0.9743460    -0.0000030
  H        3.0931030    -1.8035030     0.0000080
units angstrom
no_reorient  #important for SAPT in psi4, default
symmetry c1  #important for SAPT in psi4, default
}

set PROPERTIES_ORIGIN ["COM"]
properties('MP2/aug-cc-pvtz', properties = ['dipole'])
--------------------------------------------------------------------------

    Molecular point group: c1
  Charge       = 0
  Multiplicity = 1
  Basis Set: AUG-CC-PVTZ
    Blend: AUG-CC-PVTZ
  Basis Set: (AUG-CC-PVTZ AUX)
    Blend: AUG-CC-PVTZ-JKFIT

    Orbital Energies [Eh]
    ---------------------

    Doubly Occupied:

       1A    -20.666765     2A    -20.532120     3A    -15.598329
       4A    -15.596098     5A    -11.373963     6A    -11.354406
       7A    -11.319333     8A    -11.279830     9A    -11.265254
      10A     -1.524468    11A     -1.384782    12A     -1.263542
      13A     -1.235038    14A     -1.060577    15A     -0.969172
      16A     -0.876704    17A     -0.850492    18A     -0.797058
      19A     -0.776243    20A     -0.690459    21A     -0.684322
      22A     -0.655136    23A     -0.628229    24A     -0.623212
      25A     -0.596361    26A     -0.589431    27A     -0.553633
      28A     -0.546974    29A     -0.491036    30A     -0.473737
      31A     -0.446560    32A     -0.399323    33A     -0.348946

  @DF-RHF Final Energy:  -451.60780576020289

   => Energetics <=

    Nuclear Repulsion Energy =            434.0455046018093981
    One-Electron Energy =               -1476.4035565520953242
    Two-Electron Energy =                 590.7502461900830895
    Total Energy =                       -451.6078057602028366
  Basis Set: (AUG-CC-PVTZ AUX)
    Blend: AUG-CC-PVTZ-RI
    Molecular point group: c1

    Geometry (in Angstrom), charge = 0, multiplicity = 1:

       Center              X                  Y                   Z               Mass
    ------------   -----------------  -----------------  -----------------  -----------------
         O            1.412583847523     0.988056775532    -0.000003872441    15.994914619570
         O           -1.310297152477     1.570344775532     0.000005127559    15.994914619570
         N           -1.769508152477    -0.694333224468    -0.000009872441    14.003074004430
         N            0.987906847523    -1.215281224468     0.000003127559    14.003074004430
         C            0.483763847523    -0.000579224468    -0.000000872441    12.000000000000
         C           -0.953173152477     0.390284775532    -0.000000872441    12.000000000000
         C           -3.213187152477    -0.568641224468     0.000003127559    12.000000000000
         C            2.565864347523     0.352299075532    -0.000000972441    12.000000000000
         C            2.355178847523    -1.013311224468     0.000004127559    12.000000000000
         H           -1.327099152477    -1.606733224468    -0.000002872441     1.007825032230
         H           -3.644977152477    -1.032370224468     0.891290127559     1.007825032230
         H           -3.644992152477    -1.032395224468    -0.891262872441     1.007825032230
         H           -3.445065152477     0.496215775532    -0.000009872441     1.007825032230
         H            3.496944847523     0.941704775532    -0.000002872441     1.007825032230
         H            3.055693847523    -1.836144224468     0.000008127559     1.007825032230

  Basis Set: AUG-CC-PVTZ
    Blend: AUG-CC-PVTZ
  Basis Set: (AUG-CC-PVTZ AUX)
    Blend: AUG-CC-PVTZ-JKFIT
	 Reference Energy          =    -451.6078057602028935 [Eh]
	 Singles Energy            =      -0.0000000000000000 [Eh]
	 Same-Spin Energy          =      -0.4625599073440575 [Eh]
	 Opposite-Spin Energy      =      -1.3913659834414291 [Eh]
	 Correlation Energy        =      -1.8539258907854865 [Eh]
	 Total Energy              =    -453.4617316509883835 [Eh]

	 ================> DF-SCS-MP2 Energies <==================
	-----------------------------------------------------------
	 SCS Same-Spin Scale       =       0.3333333333333333 [-]
	 SCS Opposite-Spin Scale   =       1.2000000000000000 [-]
	 SCS Same-Spin Energy      =      -0.1541866357813525 [Eh]
	 SCS Opposite-Spin Energy  =      -1.6696391801297150 [Eh]
	 SCS Correlation Energy    =      -1.8238258159110674 [Eh]
	 SCS Total Energy          =    -453.4316315761139435 [Eh]
	-----------------------------------------------------------

  Dipole Moment: [D]
     X:     1.1395      Y:    -2.6443      Z:     0.0000     Total:     2.8793

*** Psi4 exiting successfully. Buy a developer a beer!
