                               Psi4 1.3.2 release

  ==> Input File <==

--------------------------------------------------------------------------
#psi4
#
memory 32 gb

molecule  {
0 1
  O        1.4499930     1.0206980    -0.0000040
  O       -1.2728880     1.6029860     0.0000050
  N       -1.7320990    -0.6616920    -0.0000100
  N        1.0253160    -1.1826400     0.0000030
  C        0.5211730     0.0320620    -0.0000010
  C       -0.9157640     0.4229260    -0.0000010
  C       -3.1757780    -0.5360000     0.0000030
  C        2.6937227     0.3511038    -0.0000009
  C        2.3925880    -0.9806700     0.0000040
  H       -1.2896900    -1.5740920    -0.0000030
  H       -3.6075680    -0.9997290     0.8912900
  H       -3.6075830    -0.9997540    -0.8912630
  H       -3.4076560     0.5288570    -0.0000100
  H        3.5343540     0.9743460    -0.0000030
  H        3.0931030    -1.8035030     0.0000080
units angstrom
no_reorient  #important for SAPT in psi4, default
symmetry c1  #important for SAPT in psi4, default
}

set PROPERTIES_ORIGIN ["COM"]
properties('MP2/aug-cc-pvtz', properties = ['dipole'])
--------------------------------------------------------------------------

    Molecular point group: c1
  Charge       = 0
  Multiplicity = 1
  Basis Set: AUG-CC-PVTZ
    Blend: AUG-CC-PVTZ
  Basis Set: (AUG-CC-PVTZ AUX)
    Blend: AUG-CC-PVTZ-JKFIT

    Orbital Energies [Eh]
    ---------------------

    Doubly Occupied:

       1A    -20.652727     2A    -20.534282     3A    -15.598230
       4A    -15.594821     5A    -11.375576     6A    -11.359967
       7A    -11.315100     8A    -11.285653     9A    -11.266413
      10A     -1.486712    11A     -1.385513    12A     -1.259387
      13A     -1.234157    14A     -1.061313    15A     -0.972687
      16A     -0.872193    17A     -0.849706    18A     -0.791621
      19A     -0.771490    20A     -0.681097    21A     -0.671712
      22A     -0.658889    23A     -0.627238    24A     -0.623876
      25A     -0.598695    26A     -0.584415    27A     -0.554833
      28A     -0.546010    29A     -0.490952    30A     -0.469533
      31A     -0.448072    32A     -0.400454    33A     -0.357642

  @DF-RHF Final Energy:  -451.60587345838434

   => Energetics <=

    Nuclear Repulsion Energy =            432.1138632839127922
    One-Electron Energy =               -1472.6775448274581777
    Two-Electron Energy =                 588.9578080851612185
    Total Energy =                       -451.6058734583842806
  Basis Set: (AUG-CC-PVTZ AUX)
    Blend: AUG-CC-PVTZ-RI
    Molecular point group: c1

    Geometry (in Angstrom), charge = 0, multiplicity = 1:

       Center              X                  Y                   Z               Mass
    ------------   -----------------  -----------------  -----------------  -----------------
         O            1.403972571809     0.991278201821    -0.000003891482    15.994914619570
         O           -1.318908428191     1.573566201821     0.000005108518    15.994914619570
         N           -1.778119428191    -0.691111798179    -0.000009891482    14.003074004430
         N            0.979295571809    -1.212059798179     0.000003108518    14.003074004430
         C            0.475152571809     0.002642201821    -0.000000891482    12.000000000000
         C           -0.961784428191     0.393506201821    -0.000000891482    12.000000000000
         C           -3.221798428191    -0.565419798179     0.000003108518    12.000000000000
         C            2.647702271809     0.321684001821    -0.000000791482    12.000000000000
         C            2.346567571809    -1.010089798179     0.000004108518    12.000000000000
         H           -1.335710428191    -1.603511798179    -0.000002891482     1.007825032230
         H           -3.653588428191    -1.029148798179     0.891290108518     1.007825032230
         H           -3.653603428191    -1.029173798179    -0.891262891482     1.007825032230
         H           -3.453676428191     0.499437201821    -0.000009891482     1.007825032230
         H            3.488333571809     0.944926201821    -0.000002891482     1.007825032230
         H            3.047082571809    -1.832922798179     0.000008108518     1.007825032230

  Basis Set: AUG-CC-PVTZ
    Blend: AUG-CC-PVTZ
  Basis Set: (AUG-CC-PVTZ AUX)
    Blend: AUG-CC-PVTZ-JKFIT
	 Reference Energy          =    -451.6058734583843375 [Eh]
	 Singles Energy            =      -0.0000000000000000 [Eh]
	 Same-Spin Energy          =      -0.4621124352053245 [Eh]
	 Opposite-Spin Energy      =      -1.3928644742414238 [Eh]
	 Correlation Energy        =      -1.8549769094467483 [Eh]
	 Total Energy              =    -453.4608503678310854 [Eh]

	 ================> DF-SCS-MP2 Energies <==================
	-----------------------------------------------------------
	 SCS Same-Spin Scale       =       0.3333333333333333 [-]
	 SCS Opposite-Spin Scale   =       1.2000000000000000 [-]
	 SCS Same-Spin Energy      =      -0.1540374784017748 [Eh]
	 SCS Opposite-Spin Energy  =      -1.6714373690897084 [Eh]
	 SCS Correlation Energy    =      -1.8254748474914833 [Eh]
	 SCS Total Energy          =    -453.4313483058758152 [Eh]
	-----------------------------------------------------------

  Dipole Moment: [D]
     X:     1.1592      Y:    -2.7249      Z:     0.0000     Total:     2.9612

*** Psi4 exiting successfully. Buy a developer a beer!
