                               Psi4 1.4a3.dev225

  ==> Input File <==

--------------------------------------------------------------------------
#psi4
#
memory 32 gb

molecule  {
0 1
  O        1.4499930     1.0206980    -0.0000040
  O       -1.2728880     1.6029860     0.0000050
  N       -1.7320990    -0.6616920    -0.0000100
  N        1.0253160    -1.1826400     0.0000030
  C        0.5348673     0.0466382    -0.0000010
  C       -0.9157640     0.4229260    -0.0000010
  C       -3.1757780    -0.5360000     0.0000030
  C        2.6470610     0.3608020    -0.0000010
  C        2.3925880    -0.9806700     0.0000040
  H       -1.2896900    -1.5740920    -0.0000030
  H       -3.6075680    -0.9997290     0.8912900
  H       -3.6075830    -0.9997540    -0.8912630
  H       -3.4076560     0.5288570    -0.0000100
  H        3.5343540     0.9743460    -0.0000030
  H        3.0931030    -1.8035030     0.0000080
units angstrom
no_reorient  #important for SAPT in psi4, default
symmetry c1  #important for SAPT in psi4, default
}

set PROPERTIES_ORIGIN ["COM"]
properties('MP2/aug-cc-pvtz', properties = ['dipole'])
--------------------------------------------------------------------------

    Molecular point group: c1
  Charge       = 0
  Multiplicity = 1
  Basis Set: AUG-CC-PVTZ
    Blend: AUG-CC-PVTZ
  Basis Set: (AUG-CC-PVTZ AUX)
    Blend: AUG-CC-PVTZ-JKFIT

    Orbital Energies [Eh]
    ---------------------

    Doubly Occupied:

       1A    -20.662604     2A    -20.532996     3A    -15.597193
       4A    -15.594750     5A    -11.374925     6A    -11.358092
       7A    -11.315025     8A    -11.282181     9A    -11.265876
      10A     -1.512234    11A     -1.385041    12A     -1.259473
      13A     -1.234069    14A     -1.061580    15A     -0.970313
      16A     -0.873491    17A     -0.850234    18A     -0.794895
      19A     -0.775397    20A     -0.684204    21A     -0.680381
      22A     -0.656130    23A     -0.628049    24A     -0.621017
      25A     -0.599198    26A     -0.591241    27A     -0.554183
      28A     -0.546089    29A     -0.490732    30A     -0.470627
      31A     -0.446685    32A     -0.399719    33A     -0.354396

  @DF-RHF Final Energy:  -451.61002830256450

   => Energetics <=

    Nuclear Repulsion Energy =            433.2124034173405676
    One-Electron Energy =               -1474.7988250980406519
    Two-Electron Energy =                 589.9763933781356400
    Total Energy =                       -451.6100283025645012
  Basis Set: (AUG-CC-PVTZ AUX)
    Blend: AUG-CC-PVTZ-RI
    Molecular point group: c1

    Geometry (in Angstrom), charge = 0, multiplicity = 1:

       Center              X                  Y                   Z               Mass
    ------------   -----------------  -----------------  -----------------  -----------------
         O            1.407111254860     0.988967141566    -0.000003881961    15.994914619570
         O           -1.315769745140     1.571255141566     0.000005118039    15.994914619570
         N           -1.774980745140    -0.693422858434    -0.000009881961    14.003074004430
         N            0.982434254860    -1.214370858434     0.000003118039    14.003074004430
         C            0.491985554860     0.014907341566    -0.000000881961    12.000000000000
         C           -0.958645745140     0.391195141566    -0.000000881961    12.000000000000
         C           -3.218659745140    -0.567730858434     0.000003118039    12.000000000000
         C            2.604179254860     0.329071141566    -0.000000881961    12.000000000000
         C            2.349706254860    -1.012400858434     0.000004118039    12.000000000000
         H           -1.332571745140    -1.605822858434    -0.000002881961     1.007825032230
         H           -3.650449745140    -1.031459858434     0.891290118039     1.007825032230
         H           -3.650464745140    -1.031484858434    -0.891262881961     1.007825032230
         H           -3.450537745140     0.497126141566    -0.000009881961     1.007825032230
         H            3.491472254860     0.942615141566    -0.000002881961     1.007825032230
         H            3.050221254860    -1.835233858434     0.000008118039     1.007825032230

  Basis Set: AUG-CC-PVTZ
    Blend: AUG-CC-PVTZ
  Basis Set: (AUG-CC-PVTZ AUX)
    Blend: AUG-CC-PVTZ-JKFIT
	 Reference Energy          =    -451.6100283025645012 [Eh]
	 Singles Energy            =      -0.0000000000000000 [Eh]
	 Same-Spin Energy          =      -0.4620282021221438 [Eh]
	 Opposite-Spin Energy      =      -1.3914937660877613 [Eh]
	 Correlation Energy        =      -1.8535219682099051 [Eh]
	 Total Energy              =    -453.4635502707744195 [Eh]

	 ================> DF-SCS-MP2 Energies <==================
	-----------------------------------------------------------
	 SCS Same-Spin Scale       =       0.3333333333333333 [-]
	 SCS Opposite-Spin Scale   =       1.2000000000000000 [-]
	 SCS Same-Spin Energy      =      -0.1540094007073813 [Eh]
	 SCS Opposite-Spin Energy  =      -1.6697925193053136 [Eh]
	 SCS Correlation Energy    =      -1.8238019200126949 [Eh]
	 SCS Total Energy          =    -453.4338302225771713 [Eh]
	-----------------------------------------------------------

  Dipole Moment: [D]
     X:     1.1764      Y:    -2.6552      Z:     0.0000     Total:     2.9042

*** Psi4 exiting successfully. Buy a developer a beer!
