                               Psi4 1.4a3.dev225

  ==> Input File <==

--------------------------------------------------------------------------
#psi4
#
memory 32 gb

molecule  {
0 1
  O        1.4499930     1.0206980    -0.0000040
  O       -1.2728880     1.6029860     0.0000050
  N       -1.7320990    -0.6616920    -0.0000100
  N        1.0253160    -1.1826400     0.0000030
  C        0.5211730     0.0320620    -0.0000010
  C       -0.9157640     0.4229260    -0.0000010
  C       -3.1757780    -0.5360000     0.0000030
  C        2.6470610     0.3608020    -0.0000010
  C        2.3925880    -0.9806700     0.0000040
  H       -1.2896900    -1.5740920    -0.0000030
  H       -3.6075680    -0.9997290     0.8912900
  H       -3.6075830    -0.9997540    -0.8912630
  H       -3.4076560     0.5288570    -0.0000100
  H        3.5179038     0.9629710    -0.0000030
  H        3.0931030    -1.8035030     0.0000080
units angstrom
no_reorient  #important for SAPT in psi4, default
symmetry c1  #important for SAPT in psi4, default
}

set PROPERTIES_ORIGIN ["COM"]
properties('MP2/aug-cc-pvtz', properties = ['dipole'])
--------------------------------------------------------------------------

    Molecular point group: c1
  Charge       = 0
  Multiplicity = 1
  Basis Set: AUG-CC-PVTZ
    Blend: AUG-CC-PVTZ
  Basis Set: (AUG-CC-PVTZ AUX)
    Blend: AUG-CC-PVTZ-JKFIT

    Orbital Energies [Eh]
    ---------------------

    Doubly Occupied:

       1A    -20.659087     2A    -20.533386     3A    -15.597263
       4A    -15.596111     5A    -11.374849     6A    -11.357458
       7A    -11.314006     8A    -11.281683     9A    -11.265892
      10A     -1.503552    11A     -1.385299    12A     -1.261232
      13A     -1.234789    14A     -1.062069    15A     -0.971413
      16A     -0.873934    17A     -0.851213    18A     -0.793791
      19A     -0.774725    20A     -0.682884    21A     -0.679998
      22A     -0.657196    23A     -0.627895    24A     -0.622033
      25A     -0.598086    26A     -0.591475    27A     -0.554337
      28A     -0.546513    29A     -0.491052    30A     -0.471568
      31A     -0.447440    32A     -0.399972    33A     -0.354736

  @DF-RHF Final Energy:  -451.60984971478717

   => Energetics <=

    Nuclear Repulsion Energy =            433.2459949611789511
    One-Electron Energy =               -1474.8778200817628203
    Two-Electron Energy =                 590.0219754057967521
    Total Energy =                       -451.6098497147871740
  Basis Set: (AUG-CC-PVTZ AUX)
    Blend: AUG-CC-PVTZ-RI
    Molecular point group: c1

    Geometry (in Angstrom), charge = 0, multiplicity = 1:

       Center              X                  Y                   Z               Mass
    ------------   -----------------  -----------------  -----------------  -----------------
         O            1.408546563663     0.990445831513    -0.000003881961    15.994914619570
         O           -1.314334436337     1.572733831513     0.000005118039    15.994914619570
         N           -1.773545436337    -0.691944168487    -0.000009881961    14.003074004430
         N            0.983869563663    -1.212892168487     0.000003118039    14.003074004430
         C            0.479726563663     0.001809831513    -0.000000881961    12.000000000000
         C           -0.957210436337     0.392673831513    -0.000000881961    12.000000000000
         C           -3.217224436337    -0.566252168487     0.000003118039    12.000000000000
         C            2.605614563663     0.330549831513    -0.000000881961    12.000000000000
         C            2.351141563663    -1.010922168487     0.000004118039    12.000000000000
         H           -1.331136436337    -1.604344168487    -0.000002881961     1.007825032230
         H           -3.649014436337    -1.029981168487     0.891290118039     1.007825032230
         H           -3.649029436337    -1.030006168487    -0.891262881961     1.007825032230
         H           -3.449102436337     0.498604831513    -0.000009881961     1.007825032230
         H            3.476457363663     0.932718831513    -0.000002881961     1.007825032230
         H            3.051656563663    -1.833755168487     0.000008118039     1.007825032230

  Basis Set: AUG-CC-PVTZ
    Blend: AUG-CC-PVTZ
  Basis Set: (AUG-CC-PVTZ AUX)
    Blend: AUG-CC-PVTZ-JKFIT
	 Reference Energy          =    -451.6098497147871740 [Eh]
	 Singles Energy            =      -0.0000000000000000 [Eh]
	 Same-Spin Energy          =      -0.4621451850624767 [Eh]
	 Opposite-Spin Energy      =      -1.3917869081758547 [Eh]
	 Correlation Energy        =      -1.8539320932383314 [Eh]
	 Total Energy              =    -453.4637818080254874 [Eh]

	 ================> DF-SCS-MP2 Energies <==================
	-----------------------------------------------------------
	 SCS Same-Spin Scale       =       0.3333333333333333 [-]
	 SCS Opposite-Spin Scale   =       1.2000000000000000 [-]
	 SCS Same-Spin Energy      =      -0.1540483950208256 [Eh]
	 SCS Opposite-Spin Energy  =      -1.6701442898110257 [Eh]
	 SCS Correlation Energy    =      -1.8241926848318513 [Eh]
	 SCS Total Energy          =    -453.4340423996190452 [Eh]
	-----------------------------------------------------------

  Dipole Moment: [D]
     X:     1.1433      Y:    -2.6999      Z:     0.0000     Total:     2.9320

*** Psi4 exiting successfully. Buy a developer a beer!
