                               Psi4 1.3.2 release

  ==> Input File <==

--------------------------------------------------------------------------
#psi4
#
memory 32 gb

molecule  {
0 1
  O        1.4499930     1.0206980    -0.0000040
  O       -1.2728880     1.6029860     0.0000050
  N       -1.7320990    -0.6616920    -0.0000100
  N        1.0253160    -1.1826400     0.0000030
  C        0.3842300    -0.1137002    -0.0000006
  C       -0.9157640     0.4229260    -0.0000010
  C       -3.1757780    -0.5360000     0.0000030
  C        2.6470610     0.3608020    -0.0000010
  C        2.3925880    -0.9806700     0.0000040
  H       -1.2896900    -1.5740920    -0.0000030
  H       -3.6075680    -0.9997290     0.8912900
  H       -3.6075830    -0.9997540    -0.8912630
  H       -3.4076560     0.5288570    -0.0000100
  H        3.5343540     0.9743460    -0.0000030
  H        3.0931030    -1.8035030     0.0000080
units angstrom
no_reorient  #important for SAPT in psi4, default
symmetry c1  #important for SAPT in psi4, default
}

set PROPERTIES_ORIGIN ["COM"]
properties('MP2/aug-cc-pvtz', properties = ['dipole'])
--------------------------------------------------------------------------

    Molecular point group: c1
  Charge       = 0
  Multiplicity = 1
  Basis Set: AUG-CC-PVTZ
    Blend: AUG-CC-PVTZ
  Basis Set: (AUG-CC-PVTZ AUX)
    Blend: AUG-CC-PVTZ-JKFIT

    Orbital Energies [Eh]
    ---------------------

    Doubly Occupied:

       1A    -20.620822     2A    -20.538623     3A    -15.609426
       4A    -15.600474     5A    -11.377141     6A    -11.357003
       7A    -11.322947     8A    -11.277228     9A    -11.267486
      10A     -1.439336    11A     -1.388053    12A     -1.277886
      13A     -1.243935    14A     -1.065872    15A     -0.983444
      16A     -0.885835    17A     -0.843490    18A     -0.789727
      19A     -0.756644    20A     -0.682837    21A     -0.663547
      22A     -0.657489    23A     -0.624468    24A     -0.621718
      25A     -0.599840    26A     -0.557819    27A     -0.556746
      28A     -0.550759    29A     -0.485043    30A     -0.481137
      31A     -0.450235    32A     -0.404454    33A     -0.352792

  @DF-RHF Final Energy:  -451.56623560684181

   => Energetics <=

    Nuclear Repulsion Energy =            432.6466995946856287
    One-Electron Energy =               -1473.7573559342029057
    Two-Electron Energy =                 589.5444207326755759
    Total Energy =                       -451.5662356068418148
  Basis Set: (AUG-CC-PVTZ AUX)
    Blend: AUG-CC-PVTZ-RI
    Molecular point group: c1

    Geometry (in Angstrom), charge = 0, multiplicity = 1:

       Center              X                  Y                   Z               Mass
    ------------   -----------------  -----------------  -----------------  -----------------
         O            1.421452778313     1.004232264640    -0.000003920044    15.994914619570
         O           -1.301428221687     1.586520264640     0.000005079956    15.994914619570
         N           -1.760639221687    -0.678157735360    -0.000009920044    14.003074004430
         N            0.996775778313    -1.199105735360     0.000003079956    14.003074004430
         C            0.355689778313    -0.130165935360    -0.000000520044    12.000000000000
         C           -0.944304221687     0.406460264640    -0.000000920044    12.000000000000
         C           -3.204318221687    -0.552465735360     0.000003079956    12.000000000000
         C            2.618520778313     0.344336264640    -0.000000920044    12.000000000000
         C            2.364047778313    -0.997135735360     0.000004079956    12.000000000000
         H           -1.318230221687    -1.590557735360    -0.000002920044     1.007825032230
         H           -3.636108221687    -1.016194735360     0.891290079956     1.007825032230
         H           -3.636123221687    -1.016219735360    -0.891262920044     1.007825032230
         H           -3.436196221687     0.512391264640    -0.000009920044     1.007825032230
         H            3.505813778313     0.957880264640    -0.000002920044     1.007825032230
         H            3.064562778313    -1.819968735360     0.000008079956     1.007825032230

  Basis Set: AUG-CC-PVTZ
    Blend: AUG-CC-PVTZ
  Basis Set: (AUG-CC-PVTZ AUX)
    Blend: AUG-CC-PVTZ-JKFIT
	 Reference Energy          =    -451.5662356068418148 [Eh]
	 Singles Energy            =      -0.0000000000000000 [Eh]
	 Same-Spin Energy          =      -0.4654051625846125 [Eh]
	 Opposite-Spin Energy      =      -1.3982849955828465 [Eh]
	 Correlation Energy        =      -1.8636901581674590 [Eh]
	 Total Energy              =    -453.4299257650092727 [Eh]

	 ================> DF-SCS-MP2 Energies <==================
	-----------------------------------------------------------
	 SCS Same-Spin Scale       =       0.3333333333333333 [-]
	 SCS Opposite-Spin Scale   =       1.2000000000000000 [-]
	 SCS Same-Spin Energy      =      -0.1551350541948708 [Eh]
	 SCS Opposite-Spin Energy  =      -1.6779419946994156 [Eh]
	 SCS Correlation Energy    =      -1.8330770488942865 [Eh]
	 SCS Total Energy          =    -453.3993126557360824 [Eh]
	-----------------------------------------------------------

  Dipole Moment: [D]
     X:     0.7018      Y:    -3.1329      Z:     0.0000     Total:     3.2106

*** Psi4 exiting successfully. Buy a developer a beer!
