                               Psi4 1.4a3.dev225

  ==> Input File <==

--------------------------------------------------------------------------
#psi4
#
memory 32 gb

molecule  {
0 1
  O        1.4499930     1.0206980    -0.0000040
  O       -1.2728880     1.6029860     0.0000050
  N       -1.7320990    -0.6616920    -0.0000100
  N        1.0253160    -1.1826400     0.0000030
  C        0.5211730     0.0320620    -0.0000010
  C       -0.9157640     0.4229260    -0.0000010
  C       -3.1757780    -0.5360000     0.0000030
  C        2.6470610     0.3608020    -0.0000010
  C        2.4123733    -0.9777474     0.0000040
  H       -1.2896900    -1.5740920    -0.0000030
  H       -3.6075680    -0.9997290     0.8912900
  H       -3.6075830    -0.9997540    -0.8912630
  H       -3.4076560     0.5288570    -0.0000100
  H        3.5343540     0.9743460    -0.0000030
  H        3.0931030    -1.8035030     0.0000080
units angstrom
no_reorient  #important for SAPT in psi4, default
symmetry c1  #important for SAPT in psi4, default
}

set PROPERTIES_ORIGIN ["COM"]
properties('MP2/aug-cc-pvtz', properties = ['dipole'])
--------------------------------------------------------------------------

    Molecular point group: c1
  Charge       = 0
  Multiplicity = 1
  Basis Set: AUG-CC-PVTZ
    Blend: AUG-CC-PVTZ
  Basis Set: (AUG-CC-PVTZ AUX)
    Blend: AUG-CC-PVTZ-JKFIT

    Orbital Energies [Eh]
    ---------------------

    Doubly Occupied:

       1A    -20.658253     2A    -20.533674     3A    -15.597301
       4A    -15.596559     5A    -11.375039     6A    -11.357584
       7A    -11.316266     8A    -11.281407     9A    -11.265909
      10A     -1.502716    11A     -1.385500    12A     -1.257946
      13A     -1.232547    14A     -1.062600    15A     -0.971450
      16A     -0.875087    17A     -0.848434    18A     -0.792731
      19A     -0.773789    20A     -0.680353    21A     -0.679435
      22A     -0.656564    23A     -0.627923    24A     -0.620385
      25A     -0.598899    26A     -0.591945    27A     -0.554343
      28A     -0.546666    29A     -0.489872    30A     -0.468385
      31A     -0.447415    32A     -0.399984    33A     -0.357500

  @DF-RHF Final Energy:  -451.60970402785767

   => Energetics <=

    Nuclear Repulsion Energy =            432.8252249737209354
    One-Electron Energy =               -1474.0609345510499679
    Two-Electron Energy =                 589.6260055494714152
    Total Energy =                       -451.6097040278576742
  Basis Set: (AUG-CC-PVTZ AUX)
    Blend: AUG-CC-PVTZ-RI
    Molecular point group: c1

    Geometry (in Angstrom), charge = 0, multiplicity = 1:

       Center              X                  Y                   Z               Mass
    ------------   -----------------  -----------------  -----------------  -----------------
         O            1.406531357189     0.990076630236    -0.000003881961    15.994914619570
         O           -1.316349642811     1.572364630236     0.000005118039    15.994914619570
         N           -1.775560642811    -0.692313369764    -0.000009881961    14.003074004430
         N            0.981854357189    -1.213261369764     0.000003118039    14.003074004430
         C            0.477711357189     0.001440630236    -0.000000881961    12.000000000000
         C           -0.959225642811     0.392304630236    -0.000000881961    12.000000000000
         C           -3.219239642811    -0.566621369764     0.000003118039    12.000000000000
         C            2.603599357189     0.330180630236    -0.000000881961    12.000000000000
         C            2.368911657189    -1.008368769764     0.000004118039    12.000000000000
         H           -1.333151642811    -1.604713369764    -0.000002881961     1.007825032230
         H           -3.651029642811    -1.030350369764     0.891290118039     1.007825032230
         H           -3.651044642811    -1.030375369764    -0.891262881961     1.007825032230
         H           -3.451117642811     0.498235630236    -0.000009881961     1.007825032230
         H            3.490892357189     0.943724630236    -0.000002881961     1.007825032230
         H            3.049641357189    -1.834124369764     0.000008118039     1.007825032230

  Basis Set: AUG-CC-PVTZ
    Blend: AUG-CC-PVTZ
  Basis Set: (AUG-CC-PVTZ AUX)
    Blend: AUG-CC-PVTZ-JKFIT
	 Reference Energy          =    -451.6097040278576742 [Eh]
	 Singles Energy            =      -0.0000000000000000 [Eh]
	 Same-Spin Energy          =      -0.4618184123271246 [Eh]
	 Opposite-Spin Energy      =      -1.3918079350839805 [Eh]
	 Correlation Energy        =      -1.8536263474111050 [Eh]
	 Total Energy              =    -453.4633303752687539 [Eh]

	 ================> DF-SCS-MP2 Energies <==================
	-----------------------------------------------------------
	 SCS Same-Spin Scale       =       0.3333333333333333 [-]
	 SCS Opposite-Spin Scale   =       1.2000000000000000 [-]
	 SCS Same-Spin Energy      =      -0.1539394707757082 [Eh]
	 SCS Opposite-Spin Energy  =      -1.6701695221007766 [Eh]
	 SCS Correlation Energy    =      -1.8241089928764849 [Eh]
	 SCS Total Energy          =    -453.4338130207341351 [Eh]
	-----------------------------------------------------------

  Dipole Moment: [D]
     X:     1.1404      Y:    -2.6957      Z:     0.0000     Total:     2.9270

*** Psi4 exiting successfully. Buy a developer a beer!
