                               Psi4 1.3.2 release

  ==> Input File <==

--------------------------------------------------------------------------
#psi4
#
memory 32 gb

molecule  {
0 1
  O        1.4499930     1.0206980    -0.0000040
  O       -1.2728880     1.6029860     0.0000050
  N       -1.7320990    -0.6616920    -0.0000100
  N        1.0253160    -1.1826400     0.0000030
  C        0.5211730     0.0320620    -0.0000010
  C       -0.9157640     0.4229260    -0.0000010
  C       -3.1757780    -0.5360000     0.0000030
  C        2.6470610     0.3608020    -0.0000010
  C        2.4298626    -0.7841742     0.0000033
  H       -1.2896900    -1.5740920    -0.0000030
  H       -3.6075680    -0.9997290     0.8912900
  H       -3.6075830    -0.9997540    -0.8912630
  H       -3.4076560     0.5288570    -0.0000100
  H        3.5343540     0.9743460    -0.0000030
  H        3.0931030    -1.8035030     0.0000080
units angstrom
no_reorient  #important for SAPT in psi4, default
symmetry c1  #important for SAPT in psi4, default
}

set PROPERTIES_ORIGIN ["COM"]
properties('MP2/aug-cc-pvtz', properties = ['dipole'])
--------------------------------------------------------------------------

    Molecular point group: c1
  Charge       = 0
  Multiplicity = 1
  Basis Set: AUG-CC-PVTZ
    Blend: AUG-CC-PVTZ
  Basis Set: (AUG-CC-PVTZ AUX)
    Blend: AUG-CC-PVTZ-JKFIT

    Orbital Energies [Eh]
    ---------------------

    Doubly Occupied:

       1A    -20.643232     2A    -20.536549     3A    -15.600100
       4A    -15.596702     5A    -11.376656     6A    -11.362376
       7A    -11.283194     8A    -11.267604     9A    -11.263530
      10A     -1.505023    11A     -1.387956    12A     -1.254897
      13A     -1.227618    14A     -1.099529    15A     -0.981401
      16A     -0.888661    17A     -0.830140    18A     -0.788753
      19A     -0.766664    20A     -0.685299    21A     -0.683578
      22A     -0.654299    23A     -0.630535    24A     -0.610407
      25A     -0.596905    26A     -0.556239    27A     -0.549320
      28A     -0.548008    29A     -0.499762    30A     -0.463795
      31A     -0.447509    32A     -0.406693    33A     -0.394512

  @DF-RHF Final Energy:  -451.54646335096749

   => Energetics <=

    Nuclear Repulsion Energy =            435.6705684017537692
    One-Electron Energy =               -1479.6591700758190200
    Two-Electron Energy =                 592.4421383230977654
    Total Energy =                       -451.5464633509674286
  Basis Set: (AUG-CC-PVTZ AUX)
    Blend: AUG-CC-PVTZ-RI
    Molecular point group: c1

    Geometry (in Angstrom), charge = 0, multiplicity = 1:

       Center              X                  Y                   Z               Mass
    ------------   -----------------  -----------------  -----------------  -----------------
         O            1.404866276853     0.971647366119    -0.000003815317    15.994914619570
         O           -1.318014723147     1.553935366119     0.000005184683    15.994914619570
         N           -1.777225723147    -0.710742633881    -0.000009815317    14.003074004430
         N            0.980189276853    -1.231690633881     0.000003184683    14.003074004430
         C            0.476046276853    -0.016988633881    -0.000000815317    12.000000000000
         C           -0.960890723147     0.373875366119    -0.000000815317    12.000000000000
         C           -3.220904723147    -0.585050633881     0.000003184683    12.000000000000
         C            2.601934276853     0.311751366119    -0.000000815317    12.000000000000
         C            2.384735876853    -0.833224833881     0.000003484683    12.000000000000
         H           -1.334816723147    -1.623142633881    -0.000002815317     1.007825032230
         H           -3.652694723147    -1.048779633881     0.891290184683     1.007825032230
         H           -3.652709723147    -1.048804633881    -0.891262815317     1.007825032230
         H           -3.452782723147     0.479806366119    -0.000009815317     1.007825032230
         H            3.489227276853     0.925295366119    -0.000002815317     1.007825032230
         H            3.047976276853    -1.852553633881     0.000008184683     1.007825032230

  Basis Set: AUG-CC-PVTZ
    Blend: AUG-CC-PVTZ
  Basis Set: (AUG-CC-PVTZ AUX)
    Blend: AUG-CC-PVTZ-JKFIT
	 Reference Energy          =    -451.5464633509674854 [Eh]
	 Singles Energy            =      -0.0000000000000000 [Eh]
	 Same-Spin Energy          =      -0.4595447821846385 [Eh]
	 Opposite-Spin Energy      =      -1.3889937163533304 [Eh]
	 Correlation Energy        =      -1.8485384985379687 [Eh]
	 Total Energy              =    -453.3950018495054337 [Eh]

	 ================> DF-SCS-MP2 Energies <==================
	-----------------------------------------------------------
	 SCS Same-Spin Scale       =       0.3333333333333333 [-]
	 SCS Opposite-Spin Scale   =       1.2000000000000000 [-]
	 SCS Same-Spin Energy      =      -0.1531815940615461 [Eh]
	 SCS Opposite-Spin Energy  =      -1.6667924596239965 [Eh]
	 SCS Correlation Energy    =      -1.8199740536855427 [Eh]
	 SCS Total Energy          =    -453.3664374046530270 [Eh]
	-----------------------------------------------------------

  Dipole Moment: [D]
     X:     0.8856      Y:    -2.5873      Z:     0.0000     Total:     2.7347

*** Psi4 exiting successfully. Buy a developer a beer!
