                               Psi4 1.3.2 release

  ==> Input File <==

--------------------------------------------------------------------------
#psi4
#
memory 32 gb

molecule  {
0 1
  O        1.4499930     1.0206980    -0.0000040
  O       -1.2728880     1.6029860     0.0000050
  N       -1.7320990    -0.6616920    -0.0000100
  N        1.0253160    -1.1826400     0.0000030
  C        0.5211730     0.0320620    -0.0000010
  C       -0.9157640     0.4229260    -0.0000010
  C       -3.1757780    -0.5360000     0.0000030
  C        2.6470610     0.3608020    -0.0000010
  C        2.2936615    -0.9952832     0.0000039
  H       -1.2896900    -1.5740920    -0.0000030
  H       -3.6075680    -0.9997290     0.8912900
  H       -3.6075830    -0.9997540    -0.8912630
  H       -3.4076560     0.5288570    -0.0000100
  H        3.5343540     0.9743460    -0.0000030
  H        3.0931030    -1.8035030     0.0000080
units angstrom
no_reorient  #important for SAPT in psi4, default
symmetry c1  #important for SAPT in psi4, default
}

set PROPERTIES_ORIGIN ["COM"]
properties('MP2/aug-cc-pvtz', properties = ['dipole'])
--------------------------------------------------------------------------

    Molecular point group: c1
  Charge       = 0
  Multiplicity = 1
  Basis Set: AUG-CC-PVTZ
    Blend: AUG-CC-PVTZ
  Basis Set: (AUG-CC-PVTZ AUX)
    Blend: AUG-CC-PVTZ-JKFIT

    Orbital Energies [Eh]
    ---------------------

    Doubly Occupied:

       1A    -20.665266     2A    -20.531561     3A    -15.596903
       4A    -15.593576     5A    -11.373738     6A    -11.356619
       7A    -11.316110     8A    -11.284104     9A    -11.265708
      10A     -1.509381    11A     -1.384025    12A     -1.288559
      13A     -1.240209    14A     -1.056569    15A     -0.968848
      16A     -0.870708    17A     -0.854226    18A     -0.800990
      19A     -0.775485    20A     -0.684253    21A     -0.680763
      22A     -0.658446    23A     -0.627731    24A     -0.627454
      25A     -0.596753    26A     -0.580879    27A     -0.553822
      28A     -0.545633    29A     -0.490994    30A     -0.490852
      31A     -0.446781    32A     -0.399843    33A     -0.340529

  @DF-RHF Final Energy:  -451.59472210056657

   => Energetics <=

    Nuclear Repulsion Energy =            434.7984497717101249
    One-Electron Energy =               -1477.8717056236798726
    Two-Electron Energy =                 591.4785337514032335
    Total Energy =                       -451.5947221005666279
  Basis Set: (AUG-CC-PVTZ AUX)
    Blend: AUG-CC-PVTZ-RI
    Molecular point group: c1

    Geometry (in Angstrom), charge = 0, multiplicity = 1:

       Center              X                  Y                   Z               Mass
    ------------   -----------------  -----------------  -----------------  -----------------
         O            1.417833392368     0.991746137636    -0.000003872441    15.994914619570
         O           -1.305047607632     1.574034137636     0.000005127559    15.994914619570
         N           -1.764258607632    -0.690643862364    -0.000009872441    14.003074004430
         N            0.993156392368    -1.211591862364     0.000003127559    14.003074004430
         C            0.489013392368     0.003110137636    -0.000000872441    12.000000000000
         C           -0.947923607632     0.393974137636    -0.000000872441    12.000000000000
         C           -3.207937607632    -0.564951862364     0.000003127559    12.000000000000
         C            2.614901392368     0.331850137636    -0.000000872441    12.000000000000
         C            2.261501892368    -1.024235062364     0.000004027559    12.000000000000
         H           -1.321849607632    -1.603043862364    -0.000002872441     1.007825032230
         H           -3.639727607632    -1.028680862364     0.891290127559     1.007825032230
         H           -3.639742607632    -1.028705862364    -0.891262872441     1.007825032230
         H           -3.439815607632     0.499905137636    -0.000009872441     1.007825032230
         H            3.502194392368     0.945394137636    -0.000002872441     1.007825032230
         H            3.060943392368    -1.832454862364     0.000008127559     1.007825032230

  Basis Set: AUG-CC-PVTZ
    Blend: AUG-CC-PVTZ
  Basis Set: (AUG-CC-PVTZ AUX)
    Blend: AUG-CC-PVTZ-JKFIT
	 Reference Energy          =    -451.5947221005665710 [Eh]
	 Singles Energy            =      -0.0000000000000000 [Eh]
	 Same-Spin Energy          =      -0.4644735831845851 [Eh]
	 Opposite-Spin Energy      =      -1.3934393316673124 [Eh]
	 Correlation Energy        =      -1.8579129148518976 [Eh]
	 Total Energy              =    -453.4526350154184797 [Eh]

	 ================> DF-SCS-MP2 Energies <==================
	-----------------------------------------------------------
	 SCS Same-Spin Scale       =       0.3333333333333333 [-]
	 SCS Opposite-Spin Scale   =       1.2000000000000000 [-]
	 SCS Same-Spin Energy      =      -0.1548245277281950 [Eh]
	 SCS Opposite-Spin Energy  =      -1.6721271980007748 [Eh]
	 SCS Correlation Energy    =      -1.8269517257289698 [Eh]
	 SCS Total Energy          =    -453.4216738262955460 [Eh]
	-----------------------------------------------------------

  Dipole Moment: [D]
     X:     1.1691      Y:    -2.7032      Z:     0.0000     Total:     2.9452

*** Psi4 exiting successfully. Buy a developer a beer!
