                               Psi4 1.3.2 release

  ==> Input File <==

--------------------------------------------------------------------------
#psi4
#
memory 32 gb

molecule  {
0 1
  O        1.4499930     1.0206980    -0.0000040
  O       -1.2728880     1.6029860     0.0000050
  N       -1.7320990    -0.6616920    -0.0000100
  N        1.0674014    -1.1643057     0.0000029
  C        0.5211730     0.0320620    -0.0000010
  C       -0.9157640     0.4229260    -0.0000010
  C       -3.1757780    -0.5360000     0.0000030
  C        2.6470610     0.3608020    -0.0000010
  C        2.3925880    -0.9806700     0.0000040
  H       -1.2896900    -1.5740920    -0.0000030
  H       -3.6075680    -0.9997290     0.8912900
  H       -3.6075830    -0.9997540    -0.8912630
  H       -3.4076560     0.5288570    -0.0000100
  H        3.5343540     0.9743460    -0.0000030
  H        3.0931030    -1.8035030     0.0000080
units angstrom
no_reorient  #important for SAPT in psi4, default
symmetry c1  #important for SAPT in psi4, default
}

set PROPERTIES_ORIGIN ["COM"]
properties('MP2/aug-cc-pvtz', properties = ['dipole'])
--------------------------------------------------------------------------

    Molecular point group: c1
  Charge       = 0
  Multiplicity = 1
  Basis Set: AUG-CC-PVTZ
    Blend: AUG-CC-PVTZ
  Basis Set: (AUG-CC-PVTZ AUX)
    Blend: AUG-CC-PVTZ-JKFIT

    Orbital Energies [Eh]
    ---------------------

    Doubly Occupied:

       1A    -20.659389     2A    -20.533506     3A    -15.597980
       4A    -15.590800     5A    -11.375938     6A    -11.355036
       7A    -11.314425     8A    -11.277406     9A    -11.266270
      10A     -1.504809    11A     -1.385516    12A     -1.266712
      13A     -1.238448    14A     -1.061961    15A     -0.971292
      16A     -0.872562    17A     -0.852616    18A     -0.797336
      19A     -0.774904    20A     -0.682185    21A     -0.680744
      22A     -0.658066    23A     -0.628303    24A     -0.625086
      25A     -0.599156    26A     -0.591746    27A     -0.554468
      28A     -0.546666    29A     -0.484054    30A     -0.476767
      31A     -0.448168    32A     -0.400663    33A     -0.350572

  @DF-RHF Final Energy:  -451.60846471984485

   => Energetics <=

    Nuclear Repulsion Energy =            433.7403962255224883
    One-Electron Energy =               -1475.8506287759876159
    Two-Electron Energy =                 590.5017678306202242
    Total Energy =                       -451.6084647198448465
  Basis Set: (AUG-CC-PVTZ AUX)
    Blend: AUG-CC-PVTZ-RI
    Molecular point group: c1

    Geometry (in Angstrom), charge = 0, multiplicity = 1:

       Center              X                  Y                   Z               Mass
    ------------   -----------------  -----------------  -----------------  -----------------
         O            1.403739440357     0.988317980511    -0.000003870852    15.994914619570
         O           -1.319141559643     1.570605980511     0.000005129148    15.994914619570
         N           -1.778352559643    -0.694072019489    -0.000009870852    14.003074004430
         N            1.021147840357    -1.196685719489     0.000003029148    14.003074004430
         C            0.474919440357    -0.000318019489    -0.000000870852    12.000000000000
         C           -0.962017559643     0.390545980511    -0.000000870852    12.000000000000
         C           -3.222031559643    -0.568380019489     0.000003129148    12.000000000000
         C            2.600807440357     0.328421980511    -0.000000870852    12.000000000000
         C            2.346334440357    -1.013050019489     0.000004129148    12.000000000000
         H           -1.335943559643    -1.606472019489    -0.000002870852     1.007825032230
         H           -3.653821559643    -1.032109019489     0.891290129148     1.007825032230
         H           -3.653836559643    -1.032134019489    -0.891262870852     1.007825032230
         H           -3.453909559643     0.496476980511    -0.000009870852     1.007825032230
         H            3.488100440357     0.941965980511    -0.000002870852     1.007825032230
         H            3.046849440357    -1.835883019489     0.000008129148     1.007825032230

  Basis Set: AUG-CC-PVTZ
    Blend: AUG-CC-PVTZ
  Basis Set: (AUG-CC-PVTZ AUX)
    Blend: AUG-CC-PVTZ-JKFIT
	 Reference Energy          =    -451.6084647198448465 [Eh]
	 Singles Energy            =      -0.0000000000000000 [Eh]
	 Same-Spin Energy          =      -0.4627734485269969 [Eh]
	 Opposite-Spin Energy      =      -1.3915189709034677 [Eh]
	 Correlation Energy        =      -1.8542924194304646 [Eh]
	 Total Energy              =    -453.4627571392753111 [Eh]

	 ================> DF-SCS-MP2 Energies <==================
	-----------------------------------------------------------
	 SCS Same-Spin Scale       =       0.3333333333333333 [-]
	 SCS Opposite-Spin Scale   =       1.2000000000000000 [-]
	 SCS Same-Spin Energy      =      -0.1542578161756656 [Eh]
	 SCS Opposite-Spin Energy  =      -1.6698227650841611 [Eh]
	 SCS Correlation Energy    =      -1.8240805812598266 [Eh]
	 SCS Total Energy          =    -453.4325453011046534 [Eh]
	-----------------------------------------------------------

  Dipole Moment: [D]
     X:     1.0944      Y:    -2.7402      Z:     0.0000     Total:     2.9507

*** Psi4 exiting successfully. Buy a developer a beer!
