                               Psi4 1.4a3.dev225

  ==> Input File <==

--------------------------------------------------------------------------
#psi4
#
memory 32 gb

molecule  {
0 1
  O        1.4499930     1.0206980    -0.0000040
  O       -1.2728880     1.6029860     0.0000050
  N       -1.7320990    -0.6616920    -0.0000100
  N        1.0253160    -1.1826400     0.0000030
  C        0.5211730     0.0320620    -0.0000010
  C       -0.9157640     0.4229260    -0.0000010
  C       -3.1757780    -0.5360000     0.0000030
  C        2.6470610     0.3608020    -0.0000010
  C        2.3431247    -0.9879766     0.0000040
  H       -1.2896900    -1.5740920    -0.0000030
  H       -3.6075680    -0.9997290     0.8912900
  H       -3.6075830    -0.9997540    -0.8912630
  H       -3.4076560     0.5288570    -0.0000100
  H        3.5343540     0.9743460    -0.0000030
  H        3.0931030    -1.8035030     0.0000080
units angstrom
no_reorient  #important for SAPT in psi4, default
symmetry c1  #important for SAPT in psi4, default
}

set PROPERTIES_ORIGIN ["COM"]
properties('MP2/aug-cc-pvtz', properties = ['dipole'])
--------------------------------------------------------------------------

    Molecular point group: c1
  Charge       = 0
  Multiplicity = 1
  Basis Set: AUG-CC-PVTZ
    Blend: AUG-CC-PVTZ
  Basis Set: (AUG-CC-PVTZ AUX)
    Blend: AUG-CC-PVTZ-JKFIT

    Orbital Energies [Eh]
    ---------------------

    Doubly Occupied:

       1A    -20.661958     2A    -20.532548     3A    -15.597116
       4A    -15.595012     5A    -11.374338     6A    -11.357099
       7A    -11.315954     8A    -11.282729     9A    -11.265819
      10A     -1.506238    11A     -1.384718    12A     -1.272892
      13A     -1.238473    14A     -1.058915    15A     -0.970001
      16A     -0.871440    17A     -0.852285    18A     -0.797083
      19A     -0.774739    20A     -0.681901    21A     -0.680657
      22A     -0.657573    23A     -0.627824    24A     -0.624019
      25A     -0.596901    26A     -0.586083    27A     -0.554187
      28A     -0.546103    29A     -0.492394    30A     -0.480554
      31A     -0.447259    32A     -0.399925    33A     -0.347632

  @DF-RHF Final Energy:  -451.60564042219920

   => Energetics <=

    Nuclear Repulsion Energy =            433.9489577361211445
    One-Electron Energy =               -1476.2444606261487934
    Two-Electron Energy =                 590.6898624678283340
    Total Energy =                       -451.6056404221992580
  Basis Set: (AUG-CC-PVTZ AUX)
    Blend: AUG-CC-PVTZ-RI
    Molecular point group: c1

    Geometry (in Angstrom), charge = 0, multiplicity = 1:

       Center              X                  Y                   Z               Mass
    ------------   -----------------  -----------------  -----------------  -----------------
         O            1.413124215804     0.991050507966    -0.000003881961    15.994914619570
         O           -1.309756784196     1.573338507966     0.000005118039    15.994914619570
         N           -1.768967784196    -0.691339492034    -0.000009881961    14.003074004430
         N            0.988447215804    -1.212287492034     0.000003118039    14.003074004430
         C            0.484304215804     0.002414507966    -0.000000881961    12.000000000000
         C           -0.952632784196     0.393278507966    -0.000000881961    12.000000000000
         C           -3.212646784196    -0.565647492034     0.000003118039    12.000000000000
         C            2.610192215804     0.331154507966    -0.000000881961    12.000000000000
         C            2.306255915804    -1.017624092034     0.000004118039    12.000000000000
         H           -1.326558784196    -1.603739492034    -0.000002881961     1.007825032230
         H           -3.644436784196    -1.029376492034     0.891290118039     1.007825032230
         H           -3.644451784196    -1.029401492034    -0.891262881961     1.007825032230
         H           -3.444524784196     0.499209507966    -0.000009881961     1.007825032230
         H            3.497485215804     0.944698507966    -0.000002881961     1.007825032230
         H            3.056234215804    -1.833150492034     0.000008118039     1.007825032230

  Basis Set: AUG-CC-PVTZ
    Blend: AUG-CC-PVTZ
  Basis Set: (AUG-CC-PVTZ AUX)
    Blend: AUG-CC-PVTZ-JKFIT
	 Reference Energy          =    -451.6056404221992011 [Eh]
	 Singles Energy            =      -0.0000000000000000 [Eh]
	 Same-Spin Energy          =      -0.4632517336487536 [Eh]
	 Opposite-Spin Energy      =      -1.3924814951331712 [Eh]
	 Correlation Energy        =      -1.8557332287819248 [Eh]
	 Total Energy              =    -453.4613736509811019 [Eh]

	 ================> DF-SCS-MP2 Energies <==================
	-----------------------------------------------------------
	 SCS Same-Spin Scale       =       0.3333333333333333 [-]
	 SCS Opposite-Spin Scale   =       1.2000000000000000 [-]
	 SCS Same-Spin Energy      =      -0.1544172445495845 [Eh]
	 SCS Opposite-Spin Energy  =      -1.6709777941598054 [Eh]
	 SCS Correlation Energy    =      -1.8253950387093900 [Eh]
	 SCS Total Energy          =    -453.4310354609086176 [Eh]
	-----------------------------------------------------------

  Dipole Moment: [D]
     X:     1.1619      Y:    -2.6969      Z:     0.0000     Total:     2.9365

*** Psi4 exiting successfully. Buy a developer a beer!
