                               Psi4 1.3.2 release

  ==> Input File <==

--------------------------------------------------------------------------
#psi4
#
memory 32 gb

molecule  {
0 1
  O        1.4499930     1.0206980    -0.0000040
  O       -1.2728880     1.6029860     0.0000050
  N       -1.7320990    -0.6616920    -0.0000100
  N        1.0253160    -1.1826400     0.0000030
  C        0.5211730     0.0320620    -0.0000010
  C       -0.7227762     0.3704310    -0.0000010
  C       -3.1757780    -0.5360000     0.0000030
  C        2.6470610     0.3608020    -0.0000010
  C        2.3925880    -0.9806700     0.0000040
  H       -1.2896900    -1.5740920    -0.0000030
  H       -3.6075680    -0.9997290     0.8912900
  H       -3.6075830    -0.9997540    -0.8912630
  H       -3.4076560     0.5288570    -0.0000100
  H        3.5343540     0.9743460    -0.0000030
  H        3.0931030    -1.8035030     0.0000080
units angstrom
no_reorient  #important for SAPT in psi4, default
symmetry c1  #important for SAPT in psi4, default
}

set PROPERTIES_ORIGIN ["COM"]
properties('MP2/aug-cc-pvtz', properties = ['dipole'])
--------------------------------------------------------------------------

    Molecular point group: c1
  Charge       = 0
  Multiplicity = 1
  Basis Set: AUG-CC-PVTZ
    Blend: AUG-CC-PVTZ
  Basis Set: (AUG-CC-PVTZ AUX)
    Blend: AUG-CC-PVTZ-JKFIT

    Orbital Energies [Eh]
    ---------------------

    Doubly Occupied:

       1A    -20.674435     2A    -20.521679     3A    -15.621871
       4A    -15.588402     5A    -11.371363     6A    -11.353927
       7A    -11.339496     8A    -11.297949     9A    -11.258816
      10A     -1.520938    11A     -1.320767    12A     -1.274148
      13A     -1.196865    14A     -1.104986    15A     -0.977033
      16A     -0.910797    17A     -0.868633    18A     -0.804942
      19A     -0.744676    20A     -0.698374    21A     -0.687896
      22A     -0.657932    23A     -0.620201    24A     -0.609662
      25A     -0.607936    26A     -0.581824    27A     -0.531935
      28A     -0.524602    29A     -0.506546    30A     -0.478181
      31A     -0.430668    32A     -0.374981    33A     -0.365088

  @DF-RHF Final Energy:  -451.53243883414615

   => Energetics <=

    Nuclear Repulsion Energy =            433.8640498027676244
    One-Electron Energy =               -1475.9378795985926445
    Two-Electron Energy =                 590.5413909616789851
    Total Energy =                       -451.5324388341460917
  Basis Set: (AUG-CC-PVTZ AUX)
    Blend: AUG-CC-PVTZ-RI
    Molecular point group: c1

    Geometry (in Angstrom), charge = 0, multiplicity = 1:

       Center              X                  Y                   Z               Mass
    ------------   -----------------  -----------------  -----------------  -----------------
         O            1.390041498994     0.995352699378    -0.000003881961    15.994914619570
         O           -1.332839501006     1.577640699378     0.000005118039    15.994914619570
         N           -1.792050501006    -0.687037300622    -0.000009881961    14.003074004430
         N            0.965364498994    -1.207985300622     0.000003118039    14.003074004430
         C            0.461221498994     0.006716699378    -0.000000881961    12.000000000000
         C           -0.782727701006     0.345085699378    -0.000000881961    12.000000000000
         C           -3.235729501006    -0.561345300622     0.000003118039    12.000000000000
         C            2.587109498994     0.335456699378    -0.000000881961    12.000000000000
         C            2.332636498994    -1.006015300622     0.000004118039    12.000000000000
         H           -1.349641501006    -1.599437300622    -0.000002881961     1.007825032230
         H           -3.667519501006    -1.025074300622     0.891290118039     1.007825032230
         H           -3.667534501006    -1.025099300622    -0.891262881961     1.007825032230
         H           -3.467607501006     0.503511699378    -0.000009881961     1.007825032230
         H            3.474402498994     0.949000699378    -0.000002881961     1.007825032230
         H            3.033151498994    -1.828848300622     0.000008118039     1.007825032230

  Basis Set: AUG-CC-PVTZ
    Blend: AUG-CC-PVTZ
  Basis Set: (AUG-CC-PVTZ AUX)
    Blend: AUG-CC-PVTZ-JKFIT
	 Reference Energy          =    -451.5324388341461486 [Eh]
	 Singles Energy            =      -0.0000000000000000 [Eh]
	 Same-Spin Energy          =      -0.4696579211698448 [Eh]
	 Opposite-Spin Energy      =      -1.4058590852093045 [Eh]
	 Correlation Energy        =      -1.8755170063791493 [Eh]
	 Total Energy              =    -453.4079558405252897 [Eh]

	 ================> DF-SCS-MP2 Energies <==================
	-----------------------------------------------------------
	 SCS Same-Spin Scale       =       0.3333333333333333 [-]
	 SCS Opposite-Spin Scale   =       1.2000000000000000 [-]
	 SCS Same-Spin Energy      =      -0.1565526403899483 [Eh]
	 SCS Opposite-Spin Energy  =      -1.6870309022511654 [Eh]
	 SCS Correlation Energy    =      -1.8435835426411136 [Eh]
	 SCS Total Energy          =    -453.3760223767872617 [Eh]
	-----------------------------------------------------------

  Dipole Moment: [D]
     X:     2.3429      Y:    -2.8626      Z:     0.0000     Total:     3.6991

*** Psi4 exiting successfully. Buy a developer a beer!
