                               Psi4 1.3.2 release

  ==> Input File <==

--------------------------------------------------------------------------
#psi4
#
memory 32 gb

molecule  {
0 1
  O        1.4499930     1.0206980    -0.0000040
  O       -1.2728880     1.6029860     0.0000050
  N       -1.7320990    -0.6616920    -0.0000100
  N        1.0253160    -1.1826400     0.0000030
  C        0.6581160     0.1778242    -0.0000014
  C       -0.9157640     0.4229260    -0.0000010
  C       -3.1757780    -0.5360000     0.0000030
  C        2.6470610     0.3608020    -0.0000010
  C        2.3925880    -0.9806700     0.0000040
  H       -1.2896900    -1.5740920    -0.0000030
  H       -3.6075680    -0.9997290     0.8912900
  H       -3.6075830    -0.9997540    -0.8912630
  H       -3.4076560     0.5288570    -0.0000100
  H        3.5343540     0.9743460    -0.0000030
  H        3.0931030    -1.8035030     0.0000080
units angstrom
no_reorient  #important for SAPT in psi4, default
symmetry c1  #important for SAPT in psi4, default
}

set PROPERTIES_ORIGIN ["COM"]
properties('MP2/aug-cc-pvtz', properties = ['dipole'])
--------------------------------------------------------------------------

    Molecular point group: c1
  Charge       = 0
  Multiplicity = 1
  Basis Set: AUG-CC-PVTZ
    Blend: AUG-CC-PVTZ
  Basis Set: (AUG-CC-PVTZ AUX)
    Blend: AUG-CC-PVTZ-JKFIT

    Orbital Energies [Eh]
    ---------------------

    Doubly Occupied:

       1A    -20.692569     2A    -20.530376     3A    -15.597419
       4A    -15.579077     5A    -11.376126     6A    -11.366199
       7A    -11.302927     8A    -11.287085     9A    -11.266126
      10A     -1.613895    11A     -1.382998    12A     -1.245757
      13A     -1.226684    14A     -1.069193    15A     -0.966615
      16A     -0.887266    17A     -0.841335    18A     -0.817973
      19A     -0.780556    20A     -0.738382    21A     -0.680324
      22A     -0.651334    23A     -0.628221    24A     -0.627404
      25A     -0.618784    26A     -0.565697    27A     -0.553055
      28A     -0.542843    29A     -0.482538    30A     -0.465636
      31A     -0.433647    32A     -0.398259    33A     -0.346883

  @DF-RHF Final Energy:  -451.55848554407447

   => Energetics <=

    Nuclear Repulsion Energy =            434.2376454322471204
    One-Electron Energy =               -1476.4658982214946263
    Two-Electron Energy =                 590.6697672451730341
    Total Energy =                       -451.5584855440745287
  Basis Set: (AUG-CC-PVTZ AUX)
    Blend: AUG-CC-PVTZ-RI
    Molecular point group: c1

    Geometry (in Angstrom), charge = 0, multiplicity = 1:

       Center              X                  Y                   Z               Mass
    ------------   -----------------  -----------------  -----------------  -----------------
         O            1.395377281125     0.976477491952    -0.000003843879    15.994914619570
         O           -1.327503718875     1.558765491952     0.000005156121    15.994914619570
         N           -1.786714718875    -0.705912508048    -0.000009843879    14.003074004430
         N            0.970700281125    -1.226860508048     0.000003156121    14.003074004430
         C            0.603500281125     0.133603691952    -0.000001243879    12.000000000000
         C           -0.970379718875     0.378705491952    -0.000000843879    12.000000000000
         C           -3.230393718875    -0.580220508048     0.000003156121    12.000000000000
         C            2.592445281125     0.316581491952    -0.000000843879    12.000000000000
         C            2.337972281125    -1.024890508048     0.000004156121    12.000000000000
         H           -1.344305718875    -1.618312508048    -0.000002843879     1.007825032230
         H           -3.662183718875    -1.043949508048     0.891290156121     1.007825032230
         H           -3.662198718875    -1.043974508048    -0.891262843879     1.007825032230
         H           -3.462271718875     0.484636491952    -0.000009843879     1.007825032230
         H            3.479738281125     0.930125491952    -0.000002843879     1.007825032230
         H            3.038487281125    -1.847723508048     0.000008156121     1.007825032230

  Basis Set: AUG-CC-PVTZ
    Blend: AUG-CC-PVTZ
  Basis Set: (AUG-CC-PVTZ AUX)
    Blend: AUG-CC-PVTZ-JKFIT
	 Reference Energy          =    -451.5584855440744718 [Eh]
	 Singles Energy            =      -0.0000000000000000 [Eh]
	 Same-Spin Energy          =      -0.4609276913160814 [Eh]
	 Opposite-Spin Energy      =      -1.3883530459027011 [Eh]
	 Correlation Energy        =      -1.8492807372187825 [Eh]
	 Total Energy              =    -453.4077662812932772 [Eh]

	 ================> DF-SCS-MP2 Energies <==================
	-----------------------------------------------------------
	 SCS Same-Spin Scale       =       0.3333333333333333 [-]
	 SCS Opposite-Spin Scale   =       1.2000000000000000 [-]
	 SCS Same-Spin Energy      =      -0.1536425637720271 [Eh]
	 SCS Opposite-Spin Energy  =      -1.6660236550832412 [Eh]
	 SCS Correlation Energy    =      -1.8196662188552684 [Eh]
	 SCS Total Energy          =    -453.3781517629297468 [Eh]
	-----------------------------------------------------------

  Dipole Moment: [D]
     X:     1.2930      Y:    -2.2618      Z:     0.0000     Total:     2.6053

*** Psi4 exiting successfully. Buy a developer a beer!
