                               Psi4 1.3.2 release

  ==> Input File <==

--------------------------------------------------------------------------
#psi4
#
memory 32 gb

molecule  {
0 1
  O        1.4499930     1.0206980    -0.0000040
  O       -1.2728880     1.6029860     0.0000050
  N       -1.7320990    -0.6616920    -0.0000100
  N        1.0253160    -1.1826400     0.0000030
  C        0.4828400     0.1244231    -0.0000013
  C       -0.9157640     0.4229260    -0.0000010
  C       -3.1757780    -0.5360000     0.0000030
  C        2.6470610     0.3608020    -0.0000010
  C        2.3925880    -0.9806700     0.0000040
  H       -1.2896900    -1.5740920    -0.0000030
  H       -3.6075680    -0.9997290     0.8912900
  H       -3.6075830    -0.9997540    -0.8912630
  H       -3.4076560     0.5288570    -0.0000100
  H        3.5343540     0.9743460    -0.0000030
  H        3.0931030    -1.8035030     0.0000080
units angstrom
no_reorient  #important for SAPT in psi4, default
symmetry c1  #important for SAPT in psi4, default
}

set PROPERTIES_ORIGIN ["COM"]
properties('MP2/aug-cc-pvtz', properties = ['dipole'])
--------------------------------------------------------------------------

    Molecular point group: c1
  Charge       = 0
  Multiplicity = 1
  Basis Set: AUG-CC-PVTZ
    Blend: AUG-CC-PVTZ
  Basis Set: (AUG-CC-PVTZ AUX)
    Blend: AUG-CC-PVTZ-JKFIT

    Orbital Energies [Eh]
    ---------------------

    Doubly Occupied:

       1A    -20.670326     2A    -20.531788     3A    -15.599012
       4A    -15.596985     5A    -11.371316     6A    -11.362172
       7A    -11.316852     8A    -11.283946     9A    -11.266057
      10A     -1.517013    11A     -1.388170    12A     -1.248386
      13A     -1.217412    14A     -1.069585    15A     -0.973413
      16A     -0.883940    17A     -0.849167    18A     -0.794663
      19A     -0.777791    20A     -0.688283    21A     -0.686008
      22A     -0.657754    23A     -0.628412    24A     -0.617763
      25A     -0.606088    26A     -0.586363    27A     -0.554055
      28A     -0.548234    29A     -0.478127    30A     -0.458773
      31A     -0.449889    32A     -0.399627    33A     -0.347320

  @DF-RHF Final Energy:  -451.59090519396716

   => Energetics <=

    Nuclear Repulsion Energy =            433.0284499919748100
    One-Electron Energy =               -1474.3893333287164751
    Two-Electron Energy =                 589.7699781427744483
    Total Energy =                       -451.5909051939671599
  Basis Set: (AUG-CC-PVTZ AUX)
    Blend: AUG-CC-PVTZ-RI
    Molecular point group: c1

    Geometry (in Angstrom), charge = 0, multiplicity = 1:

       Center              X                  Y                   Z               Mass
    ------------   -----------------  -----------------  -----------------  -----------------
         O            1.412064548255     0.981561578882    -0.000003853400    15.994914619570
         O           -1.310816451745     1.563849578882     0.000005146600    15.994914619570
         N           -1.770027451745    -0.700828421118    -0.000009853400    14.003074004430
         N            0.987387548255    -1.221776421118     0.000003146600    14.003074004430
         C            0.444911548255     0.085286678882    -0.000001153400    12.000000000000
         C           -0.953692451745     0.383789578882    -0.000000853400    12.000000000000
         C           -3.213706451745    -0.575136421118     0.000003146600    12.000000000000
         C            2.609132548255     0.321665578882    -0.000000853400    12.000000000000
         C            2.354659548255    -1.019806421118     0.000004146600    12.000000000000
         H           -1.327618451745    -1.613228421118    -0.000002853400     1.007825032230
         H           -3.645496451745    -1.038865421118     0.891290146600     1.007825032230
         H           -3.645511451745    -1.038890421118    -0.891262853400     1.007825032230
         H           -3.445584451745     0.489720578882    -0.000009853400     1.007825032230
         H            3.496425548255     0.935209578882    -0.000002853400     1.007825032230
         H            3.055174548255    -1.842639421118     0.000008146600     1.007825032230

  Basis Set: AUG-CC-PVTZ
    Blend: AUG-CC-PVTZ
  Basis Set: (AUG-CC-PVTZ AUX)
    Blend: AUG-CC-PVTZ-JKFIT
	 Reference Energy          =    -451.5909051939671599 [Eh]
	 Singles Energy            =      -0.0000000000000000 [Eh]
	 Same-Spin Energy          =      -0.4651163650598554 [Eh]
	 Opposite-Spin Energy      =      -1.3962392973752376 [Eh]
	 Correlation Energy        =      -1.8613556624350931 [Eh]
	 Total Energy              =    -453.4522608564022335 [Eh]

	 ================> DF-SCS-MP2 Energies <==================
	-----------------------------------------------------------
	 SCS Same-Spin Scale       =       0.3333333333333333 [-]
	 SCS Opposite-Spin Scale   =       1.2000000000000000 [-]
	 SCS Same-Spin Energy      =      -0.1550387883532851 [Eh]
	 SCS Opposite-Spin Energy  =      -1.6754871568502849 [Eh]
	 SCS Correlation Energy    =      -1.8305259452035700 [Eh]
	 SCS Total Energy          =    -453.4214311391707497 [Eh]
	-----------------------------------------------------------

  Dipole Moment: [D]
     X:     1.3779      Y:    -2.5402      Z:     0.0000     Total:     2.8899

*** Psi4 exiting successfully. Buy a developer a beer!
