                               Psi4 1.3.2 release

  ==> Input File <==

--------------------------------------------------------------------------
#psi4
#
memory 32 gb

molecule  {
0 1
  O        1.4499930     1.0206980    -0.0000040
  O       -1.2728880     1.6029860     0.0000050
  N       -1.7320990    -0.6616920    -0.0000100
  N        1.0253160    -1.1826400     0.0000030
  C        0.5211730     0.0320620    -0.0000010
  C       -0.9157640     0.4229260    -0.0000010
  C       -3.1757780    -0.5360000     0.0000030
  C        2.6000893     0.3688658    -0.0000011
  C        2.3925880    -0.9806700     0.0000040
  H       -1.2896900    -1.5740920    -0.0000030
  H       -3.6075680    -0.9997290     0.8912900
  H       -3.6075830    -0.9997540    -0.8912630
  H       -3.4076560     0.5288570    -0.0000100
  H        3.5343540     0.9743460    -0.0000030
  H        3.0931030    -1.8035030     0.0000080
units angstrom
no_reorient  #important for SAPT in psi4, default
symmetry c1  #important for SAPT in psi4, default
}

set PROPERTIES_ORIGIN ["COM"]
properties('MP2/aug-cc-pvtz', properties = ['dipole'])
--------------------------------------------------------------------------

    Molecular point group: c1
  Charge       = 0
  Multiplicity = 1
  Basis Set: AUG-CC-PVTZ
    Blend: AUG-CC-PVTZ
  Basis Set: (AUG-CC-PVTZ AUX)
    Blend: AUG-CC-PVTZ-JKFIT

    Orbital Energies [Eh]
    ---------------------

    Doubly Occupied:

       1A    -20.665630     2A    -20.532411     3A    -15.597734
       4A    -15.596241     5A    -11.374073     6A    -11.354854
       7A    -11.317883     8A    -11.278089     9A    -11.265339
      10A     -1.522895    11A     -1.384952    12A     -1.263666
      13A     -1.235265    14A     -1.061911    15A     -0.969514
      16A     -0.877859    17A     -0.848936    18A     -0.797241
      19A     -0.775812    20A     -0.689920    21A     -0.681276
      22A     -0.654811    23A     -0.628277    24A     -0.621974
      25A     -0.596401    26A     -0.591383    27A     -0.553718
      28A     -0.547001    29A     -0.490703    30A     -0.473871
      31A     -0.446743    32A     -0.399477    33A     -0.351821

  @DF-RHF Final Energy:  -451.60826775110257

   => Energetics <=

    Nuclear Repulsion Energy =            434.2186504849620405
    One-Electron Energy =               -1476.7584767827597716
    Two-Electron Energy =                 590.9315585466953280
    Total Energy =                       -451.6082677511025167
  Basis Set: (AUG-CC-PVTZ AUX)
    Blend: AUG-CC-PVTZ-RI
    Molecular point group: c1

    Geometry (in Angstrom), charge = 0, multiplicity = 1:

       Center              X                  Y                   Z               Mass
    ------------   -----------------  -----------------  -----------------  -----------------
         O            1.412887001383     0.989587158901    -0.000003872441    15.994914619570
         O           -1.309993998617     1.571875158901     0.000005127559    15.994914619570
         N           -1.769204998617    -0.692802841099    -0.000009872441    14.003074004430
         N            0.988210001383    -1.213750841099     0.000003127559    14.003074004430
         C            0.484067001383     0.000951158901    -0.000000872441    12.000000000000
         C           -0.952869998617     0.391815158901    -0.000000872441    12.000000000000
         C           -3.212883998617    -0.567110841099     0.000003127559    12.000000000000
         C            2.562983301383     0.337754958901    -0.000000972441    12.000000000000
         C            2.355482001383    -1.011780841099     0.000004127559    12.000000000000
         H           -1.326795998617    -1.605202841099    -0.000002872441     1.007825032230
         H           -3.644673998617    -1.030839841099     0.891290127559     1.007825032230
         H           -3.644688998617    -1.030864841099    -0.891262872441     1.007825032230
         H           -3.444761998617     0.497746158901    -0.000009872441     1.007825032230
         H            3.497248001383     0.943235158901    -0.000002872441     1.007825032230
         H            3.055997001383    -1.834613841099     0.000008127559     1.007825032230

  Basis Set: AUG-CC-PVTZ
    Blend: AUG-CC-PVTZ
  Basis Set: (AUG-CC-PVTZ AUX)
    Blend: AUG-CC-PVTZ-JKFIT
	 Reference Energy          =    -451.6082677511025736 [Eh]
	 Singles Energy            =      -0.0000000000000000 [Eh]
	 Same-Spin Energy          =      -0.4623213978529506 [Eh]
	 Opposite-Spin Energy      =      -1.3911247529406445 [Eh]
	 Correlation Energy        =      -1.8534461507935951 [Eh]
	 Total Energy              =    -453.4617139018961893 [Eh]

	 ================> DF-SCS-MP2 Energies <==================
	-----------------------------------------------------------
	 SCS Same-Spin Scale       =       0.3333333333333333 [-]
	 SCS Opposite-Spin Scale   =       1.2000000000000000 [-]
	 SCS Same-Spin Energy      =      -0.1541071326176502 [Eh]
	 SCS Opposite-Spin Energy  =      -1.6693497035287734 [Eh]
	 SCS Correlation Energy    =      -1.8234568361464236 [Eh]
	 SCS Total Energy          =    -453.4317245872489934 [Eh]
	-----------------------------------------------------------

  Dipole Moment: [D]
     X:     1.1303      Y:    -2.6671      Z:     0.0000     Total:     2.8967

*** Psi4 exiting successfully. Buy a developer a beer!
