                               Psi4 1.3.2 release

  ==> Input File <==

--------------------------------------------------------------------------
#psi4
#
memory 32 gb

molecule  {
0 1
  O        1.4499930     1.0206980    -0.0000040
  O       -1.2728880     1.6029860     0.0000050
  N       -1.7320990    -0.6616920    -0.0000100
  N        0.9826164    -1.1994944     0.0000031
  C        0.5211730     0.0320620    -0.0000010
  C       -0.9157640     0.4229260    -0.0000010
  C       -3.1757780    -0.5360000     0.0000030
  C        2.6470610     0.3608020    -0.0000010
  C        2.3925880    -0.9806700     0.0000040
  H       -1.2896900    -1.5740920    -0.0000030
  H       -3.6075680    -0.9997290     0.8912900
  H       -3.6075830    -0.9997540    -0.8912630
  H       -3.4076560     0.5288570    -0.0000100
  H        3.5343540     0.9743460    -0.0000030
  H        3.0931030    -1.8035030     0.0000080
units angstrom
no_reorient  #important for SAPT in psi4, default
symmetry c1  #important for SAPT in psi4, default
}

set PROPERTIES_ORIGIN ["COM"]
properties('MP2/aug-cc-pvtz', properties = ['dipole'])
--------------------------------------------------------------------------

    Molecular point group: c1
  Charge       = 0
  Multiplicity = 1
  Basis Set: AUG-CC-PVTZ
    Blend: AUG-CC-PVTZ
  Basis Set: (AUG-CC-PVTZ AUX)
    Blend: AUG-CC-PVTZ-JKFIT

    Orbital Energies [Eh]
    ---------------------

    Doubly Occupied:

       1A    -20.659152     2A    -20.533074     3A    -15.601228
       4A    -15.596346     5A    -11.373625     6A    -11.359727
       7A    -11.318017     8A    -11.285841     9A    -11.265403
      10A     -1.502809    11A     -1.384937    12A     -1.257682
      13A     -1.230248    14A     -1.061041    15A     -0.970679
      16A     -0.875531    17A     -0.846983    18A     -0.790100
      19A     -0.772952    20A     -0.679634    21A     -0.679408
      22A     -0.655499    23A     -0.627419    24A     -0.617291
      25A     -0.595960    26A     -0.590339    27A     -0.554153
      28A     -0.546278    29A     -0.496757    30A     -0.467164
      31A     -0.446372    32A     -0.399149    33A     -0.358721

  @DF-RHF Final Energy:  -451.60723054589022

   => Energetics <=

    Nuclear Repulsion Energy =            432.5990801618923456
    One-Electron Energy =               -1473.6135843939948700
    Two-Electron Energy =                 589.4072736862123065
    Total Energy =                       -451.6072305458902747
  Basis Set: (AUG-CC-PVTZ AUX)
    Blend: AUG-CC-PVTZ-RI
    Molecular point group: c1

    Geometry (in Angstrom), charge = 0, multiplicity = 1:

       Center              X                  Y                   Z               Mass
    ------------   -----------------  -----------------  -----------------  -----------------
         O            1.413158855262     0.992227362658    -0.000003893071    15.994914619570
         O           -1.309722144738     1.574515362658     0.000005106929    15.994914619570
         N           -1.768933144738    -0.690162637342    -0.000009893071    14.003074004430
         N            0.945782255262    -1.227965037342     0.000003206929    14.003074004430
         C            0.484338855262     0.003591362658    -0.000000893071    12.000000000000
         C           -0.952598144738     0.394455362658    -0.000000893071    12.000000000000
         C           -3.212612144738    -0.564470637342     0.000003106929    12.000000000000
         C            2.610226855262     0.332331362658    -0.000000893071    12.000000000000
         C            2.355753855262    -1.009140637342     0.000004106929    12.000000000000
         H           -1.326524144738    -1.602562637342    -0.000002893071     1.007825032230
         H           -3.644402144738    -1.028199637342     0.891290106929     1.007825032230
         H           -3.644417144738    -1.028224637342    -0.891262893071     1.007825032230
         H           -3.444490144738     0.500386362658    -0.000009893071     1.007825032230
         H            3.497519855262     0.945875362658    -0.000002893071     1.007825032230
         H            3.056268855262    -1.831973637342     0.000008106929     1.007825032230

  Basis Set: AUG-CC-PVTZ
    Blend: AUG-CC-PVTZ
  Basis Set: (AUG-CC-PVTZ AUX)
    Blend: AUG-CC-PVTZ-JKFIT
	 Reference Energy          =    -451.6072305458902179 [Eh]
	 Singles Energy            =      -0.0000000000000000 [Eh]
	 Same-Spin Energy          =      -0.4617436591487205 [Eh]
	 Opposite-Spin Energy      =      -1.3925855151949567 [Eh]
	 Correlation Energy        =      -1.8543291743436772 [Eh]
	 Total Energy              =    -453.4615597202338790 [Eh]

	 ================> DF-SCS-MP2 Energies <==================
	-----------------------------------------------------------
	 SCS Same-Spin Scale       =       0.3333333333333333 [-]
	 SCS Opposite-Spin Scale   =       1.2000000000000000 [-]
	 SCS Same-Spin Energy      =      -0.1539145530495735 [Eh]
	 SCS Opposite-Spin Energy  =      -1.6711026182339479 [Eh]
	 SCS Correlation Energy    =      -1.8250171712835215 [Eh]
	 SCS Total Energy          =    -453.4322477171737660 [Eh]
	-----------------------------------------------------------

  Dipole Moment: [D]
     X:     1.2023      Y:    -2.6583      Z:     0.0000     Total:     2.9176

*** Psi4 exiting successfully. Buy a developer a beer!
