                               Psi4 1.3.2 release

  ==> Input File <==

--------------------------------------------------------------------------
#psi4
#
memory 32 gb

molecule  {
0 1
  O        1.4499930     1.0206980    -0.0000040
  O       -1.2728880     1.6029860     0.0000050
  N       -1.7320990    -0.6616920    -0.0000100
  N        1.0253160    -1.1826400     0.0000030
  C        0.4544718     0.0992615    -0.0000013
  C       -0.9157640     0.4229260    -0.0000010
  C       -3.1757780    -0.5360000     0.0000030
  C        2.6470610     0.3608020    -0.0000010
  C        2.3925880    -0.9806700     0.0000040
  H       -1.2896900    -1.5740920    -0.0000030
  H       -3.6075680    -0.9997290     0.8912900
  H       -3.6075830    -0.9997540    -0.8912630
  H       -3.4076560     0.5288570    -0.0000100
  H        3.5343540     0.9743460    -0.0000030
  H        3.0931030    -1.8035030     0.0000080
units angstrom
no_reorient  #important for SAPT in psi4, default
symmetry c1  #important for SAPT in psi4, default
}

set PROPERTIES_ORIGIN ["COM"]
properties('MP2/aug-cc-pvtz', properties = ['dipole'])
--------------------------------------------------------------------------

    Molecular point group: c1
  Charge       = 0
  Multiplicity = 1
  Basis Set: AUG-CC-PVTZ
    Blend: AUG-CC-PVTZ
  Basis Set: (AUG-CC-PVTZ AUX)
    Blend: AUG-CC-PVTZ-JKFIT

    Orbital Energies [Eh]
    ---------------------

    Doubly Occupied:

       1A    -20.664531     2A    -20.531719     3A    -15.603310
       4A    -15.596476     5A    -11.369667     6A    -11.360919
       7A    -11.320005     8A    -11.283683     9A    -11.265718
      10A     -1.500498    11A     -1.388172    12A     -1.250018
      13A     -1.218992    14A     -1.070367    15A     -0.974623
      16A     -0.887426    17A     -0.844862    18A     -0.792831
      19A     -0.775066    20A     -0.688725    21A     -0.678137
      22A     -0.658808    23A     -0.627629    24A     -0.617134
      25A     -0.605059    26A     -0.586027    27A     -0.553932
      28A     -0.548840    29A     -0.478862    30A     -0.459507
      31A     -0.451090    32A     -0.399687    33A     -0.348328

  @DF-RHF Final Energy:  -451.58847847240276

   => Energetics <=

    Nuclear Repulsion Energy =            432.8995861869323676
    One-Electron Energy =               -1474.1748379229275088
    Two-Electron Energy =                 589.6867732635924995
    Total Energy =                       -451.5884784724026986
  Basis Set: (AUG-CC-PVTZ AUX)
    Blend: AUG-CC-PVTZ-RI
    Molecular point group: c1

    Geometry (in Angstrom), charge = 0, multiplicity = 1:

       Center              X                  Y                   Z               Mass
    ------------   -----------------  -----------------  -----------------  -----------------
         O            1.414765361437     0.983957105598    -0.000003853400    15.994914619570
         O           -1.308115638563     1.566245105598     0.000005146600    15.994914619570
         N           -1.767326638563    -0.698432894402    -0.000009853400    14.003074004430
         N            0.990088361437    -1.219380894402     0.000003146600    14.003074004430
         C            0.419244161437     0.062520605598    -0.000001153400    12.000000000000
         C           -0.950991638563     0.386185105598    -0.000000853400    12.000000000000
         C           -3.211005638563    -0.572740894402     0.000003146600    12.000000000000
         C            2.611833361437     0.324061105598    -0.000000853400    12.000000000000
         C            2.357360361437    -1.017410894402     0.000004146600    12.000000000000
         H           -1.324917638563    -1.610832894402    -0.000002853400     1.007825032230
         H           -3.642795638563    -1.036469894402     0.891290146600     1.007825032230
         H           -3.642810638563    -1.036494894402    -0.891262853400     1.007825032230
         H           -3.442883638563     0.492116105598    -0.000009853400     1.007825032230
         H            3.499126361437     0.937605105598    -0.000002853400     1.007825032230
         H            3.057875361437    -1.840243894402     0.000008146600     1.007825032230

  Basis Set: AUG-CC-PVTZ
    Blend: AUG-CC-PVTZ
  Basis Set: (AUG-CC-PVTZ AUX)
    Blend: AUG-CC-PVTZ-JKFIT
	 Reference Energy          =    -451.5884784724027554 [Eh]
	 Singles Energy            =      -0.0000000000000000 [Eh]
	 Same-Spin Energy          =      -0.4656986603164047 [Eh]
	 Opposite-Spin Energy      =      -1.3975366687494273 [Eh]
	 Correlation Energy        =      -1.8632353290658319 [Eh]
	 Total Energy              =    -453.4517138014685997 [Eh]

	 ================> DF-SCS-MP2 Energies <==================
	-----------------------------------------------------------
	 SCS Same-Spin Scale       =       0.3333333333333333 [-]
	 SCS Opposite-Spin Scale   =       1.2000000000000000 [-]
	 SCS Same-Spin Energy      =      -0.1552328867721349 [Eh]
	 SCS Opposite-Spin Energy  =      -1.6770440024993127 [Eh]
	 SCS Correlation Energy    =      -1.8322768892714476 [Eh]
	 SCS Total Energy          =    -453.4207553616741961 [Eh]
	-----------------------------------------------------------

  Dipole Moment: [D]
     X:     1.3517      Y:    -2.6068      Z:     0.0000     Total:     2.9364

*** Psi4 exiting successfully. Buy a developer a beer!
