                               Psi4 1.3.2 release

  ==> Input File <==

--------------------------------------------------------------------------
#psi4
#
memory 32 gb

molecule  {
0 1
  O        1.4499930     1.0206980    -0.0000040
  O       -1.2728880     1.6029860     0.0000050
  N       -1.7320990    -0.6616920    -0.0000100
  N        1.0253160    -1.1826400     0.0000030
  C        0.4229206     0.1345660    -0.0000014
  C       -0.9157640     0.4229260    -0.0000010
  C       -3.1757780    -0.5360000     0.0000030
  C        2.6470610     0.3608020    -0.0000010
  C        2.3925880    -0.9806700     0.0000040
  H       -1.2896900    -1.5740920    -0.0000030
  H       -3.6075680    -0.9997290     0.8912900
  H       -3.6075830    -0.9997540    -0.8912630
  H       -3.4076560     0.5288570    -0.0000100
  H        3.5343540     0.9743460    -0.0000030
  H        3.0931030    -1.8035030     0.0000080
units angstrom
no_reorient  #important for SAPT in psi4, default
symmetry c1  #important for SAPT in psi4, default
}

set PROPERTIES_ORIGIN ["COM"]
properties('MP2/aug-cc-pvtz', properties = ['dipole'])
--------------------------------------------------------------------------

    Molecular point group: c1
  Charge       = 0
  Multiplicity = 1
  Basis Set: AUG-CC-PVTZ
    Blend: AUG-CC-PVTZ
  Basis Set: (AUG-CC-PVTZ AUX)
    Blend: AUG-CC-PVTZ-JKFIT

    Orbital Energies [Eh]
    ---------------------

    Doubly Occupied:

       1A    -20.667356     2A    -20.530267     3A    -15.606597
       4A    -15.595494     5A    -11.365904     6A    -11.361744
       7A    -11.322848     8A    -11.285235     9A    -11.265267
      10A     -1.499431    11A     -1.389478    12A     -1.247849
      13A     -1.209865    14A     -1.075182    15A     -0.976506
      16A     -0.894354    17A     -0.842709    18A     -0.791627
      19A     -0.775455    20A     -0.693220    21A     -0.678000
      22A     -0.659503    23A     -0.627142    24A     -0.615959
      25A     -0.606740    26A     -0.582249    27A     -0.553393
      28A     -0.549845    29A     -0.473716    30A     -0.455074
      31A     -0.450680    32A     -0.399144    33A     -0.344739

  @DF-RHF Final Energy:  -451.56882125274950

   => Energetics <=

    Nuclear Repulsion Energy =            432.8454645173907807
    One-Electron Energy =               -1474.0434263340987400
    Two-Electron Energy =                 589.6291405639583445
    Total Energy =                       -451.5688212527495580
  Basis Set: (AUG-CC-PVTZ AUX)
    Blend: AUG-CC-PVTZ-RI
    Molecular point group: c1

    Geometry (in Angstrom), charge = 0, multiplicity = 1:

       Center              X                  Y                   Z               Mass
    ------------   -----------------  -----------------  -----------------  -----------------
         O            1.417769214233     0.980595917401    -0.000003843879    15.994914619570
         O           -1.305111785767     1.562883917401     0.000005156121    15.994914619570
         N           -1.764322785767    -0.701794082599    -0.000009843879    14.003074004430
         N            0.993092214233    -1.222742082599     0.000003156121    14.003074004430
         C            0.390696814233     0.094463917401    -0.000001243879    12.000000000000
         C           -0.947987785767     0.382823917401    -0.000000843879    12.000000000000
         C           -3.208001785767    -0.576102082599     0.000003156121    12.000000000000
         C            2.614837214233     0.320699917401    -0.000000843879    12.000000000000
         C            2.360364214233    -1.020772082599     0.000004156121    12.000000000000
         H           -1.321913785767    -1.614194082599    -0.000002843879     1.007825032230
         H           -3.639791785767    -1.039831082599     0.891290156121     1.007825032230
         H           -3.639806785767    -1.039856082599    -0.891262843879     1.007825032230
         H           -3.439879785767     0.488754917401    -0.000009843879     1.007825032230
         H            3.502130214233     0.934243917401    -0.000002843879     1.007825032230
         H            3.060879214233    -1.843605082599     0.000008156121     1.007825032230

  Basis Set: AUG-CC-PVTZ
    Blend: AUG-CC-PVTZ
  Basis Set: (AUG-CC-PVTZ AUX)
    Blend: AUG-CC-PVTZ-JKFIT
	 Reference Energy          =    -451.5688212527495011 [Eh]
	 Singles Energy            =      -0.0000000000000000 [Eh]
	 Same-Spin Energy          =      -0.4678309872037134 [Eh]
	 Opposite-Spin Energy      =      -1.4011089861744845 [Eh]
	 Correlation Energy        =      -1.8689399733781979 [Eh]
	 Total Energy              =    -453.4377612261276909 [Eh]

	 ================> DF-SCS-MP2 Energies <==================
	-----------------------------------------------------------
	 SCS Same-Spin Scale       =       0.3333333333333333 [-]
	 SCS Opposite-Spin Scale   =       1.2000000000000000 [-]
	 SCS Same-Spin Energy      =      -0.1559436624012378 [Eh]
	 SCS Opposite-Spin Energy  =      -1.6813307834093814 [Eh]
	 SCS Correlation Energy    =      -1.8372744458106192 [Eh]
	 SCS Total Energy          =    -453.4060956985601365 [Eh]
	-----------------------------------------------------------

  Dipole Moment: [D]
     X:     1.4601      Y:    -2.5628      Z:     0.0000     Total:     2.9495

*** Psi4 exiting successfully. Buy a developer a beer!
