                               Psi4 1.4a3.dev225

  ==> Input File <==

--------------------------------------------------------------------------
#psi4
#
memory 32 gb

molecule  {
0 1
  O        1.4499930     1.0206980    -0.0000040
  O       -1.2728880     1.6029860     0.0000050
  N       -1.7320990    -0.6616920    -0.0000100
  N        1.0253160    -1.1826400     0.0000030
  C        0.5211730     0.0320620    -0.0000010
  C       -0.9157640     0.4229260    -0.0000010
  C       -3.1757780    -0.5360000     0.0000030
  C        2.6470610     0.3608020    -0.0000010
  C        2.3925880    -0.9806700     0.0000040
  H       -1.2896900    -1.5740920    -0.0000030
  H       -3.6075680    -0.9997290     0.8912900
  H       -3.6075830    -0.9997540    -0.8912630
  H       -3.4076560     0.5288570    -0.0000100
  H        3.5343540     0.9743460    -0.0000030
  H        3.1255151    -1.8415747     0.0000082
units angstrom
no_reorient  #important for SAPT in psi4, default
symmetry c1  #important for SAPT in psi4, default
}

set PROPERTIES_ORIGIN ["COM"]
properties('MP2/aug-cc-pvtz', properties = ['dipole'])
--------------------------------------------------------------------------

    Molecular point group: c1
  Charge       = 0
  Multiplicity = 1
  Basis Set: AUG-CC-PVTZ
    Blend: AUG-CC-PVTZ
  Basis Set: (AUG-CC-PVTZ AUX)
    Blend: AUG-CC-PVTZ-JKFIT

    Orbital Energies [Eh]
    ---------------------

    Doubly Occupied:

       1A    -20.659432     2A    -20.533506     3A    -15.597366
       4A    -15.596593     5A    -11.375003     6A    -11.357769
       7A    -11.316305     8A    -11.286994     9A    -11.265959
      10A     -1.503867    11A     -1.385417    12A     -1.261409
      13A     -1.234894    14A     -1.060795    15A     -0.970957
      16A     -0.872808    17A     -0.846861    18A     -0.793166
      19A     -0.772446    20A     -0.680280    21A     -0.680190
      22A     -0.655316    23A     -0.627990    24A     -0.616335
      25A     -0.596285    26A     -0.589125    27A     -0.554385
      28A     -0.546623    29A     -0.490849    30A     -0.471848
      31A     -0.447544    32A     -0.400067    33A     -0.354813

  @DF-RHF Final Energy:  -451.60717399730913

   => Energetics <=

    Nuclear Repulsion Energy =            432.8870124590763453
    One-Electron Energy =               -1474.1819825809352551
    Two-Electron Energy =                 589.6877961245498909
    Total Energy =                       -451.6071739973091326
  Basis Set: (AUG-CC-PVTZ AUX)
    Blend: AUG-CC-PVTZ-RI
    Molecular point group: c1

    Geometry (in Angstrom), charge = 0, multiplicity = 1:

       Center              X                  Y                   Z               Mass
    ------------   -----------------  -----------------  -----------------  -----------------
         O            1.408155866223     0.990659295315    -0.000003883561    15.994914619570
         O           -1.314725133777     1.572947295315     0.000005116439    15.994914619570
         N           -1.773936133777    -0.691730704685    -0.000009883561    14.003074004430
         N            0.983478866223    -1.212678704685     0.000003116439    14.003074004430
         C            0.479335866223     0.002023295315    -0.000000883561    12.000000000000
         C           -0.957601133777     0.392887295315    -0.000000883561    12.000000000000
         C           -3.217615133777    -0.566038704685     0.000003116439    12.000000000000
         C            2.605223866223     0.330763295315    -0.000000883561    12.000000000000
         C            2.350750866223    -1.010708704685     0.000004116439    12.000000000000
         H           -1.331527133777    -1.604130704685    -0.000002883561     1.007825032230
         H           -3.649405133777    -1.029767704685     0.891290116439     1.007825032230
         H           -3.649420133777    -1.029792704685    -0.891262883561     1.007825032230
         H           -3.449493133777     0.498818295315    -0.000009883561     1.007825032230
         H            3.492516866223     0.944307295315    -0.000002883561     1.007825032230
         H            3.083677966223    -1.871613404685     0.000008316439     1.007825032230

  Basis Set: AUG-CC-PVTZ
    Blend: AUG-CC-PVTZ
  Basis Set: (AUG-CC-PVTZ AUX)
    Blend: AUG-CC-PVTZ-JKFIT
	 Reference Energy          =    -451.6071739973091326 [Eh]
	 Singles Energy            =      -0.0000000000000000 [Eh]
	 Same-Spin Energy          =      -0.4622995041203999 [Eh]
	 Opposite-Spin Energy      =      -1.3922901894198705 [Eh]
	 Correlation Energy        =      -1.8545896935402704 [Eh]
	 Total Energy              =    -453.4617636908494092 [Eh]

	 ================> DF-SCS-MP2 Energies <==================
	-----------------------------------------------------------
	 SCS Same-Spin Scale       =       0.3333333333333333 [-]
	 SCS Opposite-Spin Scale   =       1.2000000000000000 [-]
	 SCS Same-Spin Energy      =      -0.1540998347067999 [Eh]
	 SCS Opposite-Spin Energy  =      -1.6707482273038445 [Eh]
	 SCS Correlation Energy    =      -1.8248480620106444 [Eh]
	 SCS Total Energy          =    -453.4320220593197632 [Eh]
	-----------------------------------------------------------

  Dipole Moment: [D]
     X:     1.1406      Y:    -2.7020      Z:     0.0000     Total:     2.9329

*** Psi4 exiting successfully. Buy a developer a beer!
