                               Psi4 1.3.2 release

  ==> Input File <==

--------------------------------------------------------------------------
#psi4
#
memory 32 gb

molecule  {
0 1
  O        1.4499930     1.0206980    -0.0000040
  O       -1.2728880     1.6029860     0.0000050
  N       -1.7320990    -0.6616920    -0.0000100
  N        1.0253160    -1.1826400     0.0000030
  C        0.5896445     0.1049431    -0.0000012
  C       -0.9157640     0.4229260    -0.0000010
  C       -3.1757780    -0.5360000     0.0000030
  C        2.6470610     0.3608020    -0.0000010
  C        2.3925880    -0.9806700     0.0000040
  H       -1.2896900    -1.5740920    -0.0000030
  H       -3.6075680    -0.9997290     0.8912900
  H       -3.6075830    -0.9997540    -0.8912630
  H       -3.4076560     0.5288570    -0.0000100
  H        3.5343540     0.9743460    -0.0000030
  H        3.0931030    -1.8035030     0.0000080
units angstrom
no_reorient  #important for SAPT in psi4, default
symmetry c1  #important for SAPT in psi4, default
}

set PROPERTIES_ORIGIN ["COM"]
properties('MP2/aug-cc-pvtz', properties = ['dipole'])
--------------------------------------------------------------------------

    Molecular point group: c1
  Charge       = 0
  Multiplicity = 1
  Basis Set: AUG-CC-PVTZ
    Blend: AUG-CC-PVTZ
  Basis Set: (AUG-CC-PVTZ AUX)
    Blend: AUG-CC-PVTZ-JKFIT

    Orbital Energies [Eh]
    ---------------------

    Doubly Occupied:

       1A    -20.675940     2A    -20.531690     3A    -15.597194
       4A    -15.588437     5A    -11.375484     6A    -11.361299
       7A    -11.310063     8A    -11.284220     9A    -11.265958
      10A     -1.551749    11A     -1.384115    12A     -1.252654
      13A     -1.231089    14A     -1.063260    15A     -0.968120
      16A     -0.876461    17A     -0.849498    18A     -0.801822
      19A     -0.779293    20A     -0.704282    21A     -0.680241
      22A     -0.653614    23A     -0.628327    24A     -0.621161
      25A     -0.611086    26A     -0.581967    27A     -0.553719
      28A     -0.544531    29A     -0.488232    30A     -0.467360
      31A     -0.442590    32A     -0.398946    33A     -0.352089

  @DF-RHF Final Energy:  -451.60072467946509

   => Energetics <=

    Nuclear Repulsion Energy =            433.5752538662886764
    One-Electron Energy =               -1475.3989724818075047
    Two-Electron Energy =                 590.2229939360537401
    Total Energy =                       -451.6007246794650882
  Basis Set: (AUG-CC-PVTZ AUX)
    Blend: AUG-CC-PVTZ-RI
    Molecular point group: c1

    Geometry (in Angstrom), charge = 0, multiplicity = 1:

       Center              X                  Y                   Z               Mass
    ------------   -----------------  -----------------  -----------------  -----------------
         O            1.401896155422     0.983416185124    -0.000003862920    15.994914619570
         O           -1.320984844578     1.565704185124     0.000005137080    15.994914619570
         N           -1.780195844578    -0.698973814876    -0.000009862920    14.003074004430
         N            0.977219155422    -1.219921814876     0.000003137080    14.003074004430
         C            0.541547655422     0.067661285124    -0.000001062920    12.000000000000
         C           -0.963860844578     0.385644185124    -0.000000862920    12.000000000000
         C           -3.223874844578    -0.573281814876     0.000003137080    12.000000000000
         C            2.598964155422     0.323520185124    -0.000000862920    12.000000000000
         C            2.344491155422    -1.017951814876     0.000004137080    12.000000000000
         H           -1.337786844578    -1.611373814876    -0.000002862920     1.007825032230
         H           -3.655664844578    -1.037010814876     0.891290137080     1.007825032230
         H           -3.655679844578    -1.037035814876    -0.891262862920     1.007825032230
         H           -3.455752844578     0.491575185124    -0.000009862920     1.007825032230
         H            3.486257155422     0.937064185124    -0.000002862920     1.007825032230
         H            3.045006155422    -1.840784814876     0.000008137080     1.007825032230

  Basis Set: AUG-CC-PVTZ
    Blend: AUG-CC-PVTZ
  Basis Set: (AUG-CC-PVTZ AUX)
    Blend: AUG-CC-PVTZ-JKFIT
	 Reference Energy          =    -451.6007246794650882 [Eh]
	 Singles Energy            =      -0.0000000000000000 [Eh]
	 Same-Spin Energy          =      -0.4615317924313944 [Eh]
	 Opposite-Spin Energy      =      -1.3900231143911228 [Eh]
	 Correlation Energy        =      -1.8515549068225172 [Eh]
	 Total Energy              =    -453.4522795862876023 [Eh]

	 ================> DF-SCS-MP2 Energies <==================
	-----------------------------------------------------------
	 SCS Same-Spin Scale       =       0.3333333333333333 [-]
	 SCS Opposite-Spin Scale   =       1.2000000000000000 [-]
	 SCS Same-Spin Energy      =      -0.1538439308104648 [Eh]
	 SCS Opposite-Spin Energy  =      -1.6680277372693473 [Eh]
	 SCS Correlation Energy    =      -1.8218716680798122 [Eh]
	 SCS Total Energy          =    -453.4225963475449248 [Eh]
	-----------------------------------------------------------

  Dipole Moment: [D]
     X:     1.2619      Y:    -2.4924      Z:     0.0000     Total:     2.7937

*** Psi4 exiting successfully. Buy a developer a beer!
