                               Psi4 1.3.2 release

  ==> Input File <==

--------------------------------------------------------------------------
#psi4
#
memory 32 gb

molecule  {
0 1
  O        1.4499930     1.0206980    -0.0000040
  O       -1.2728880     1.6029860     0.0000050
  N       -1.7320990    -0.6616920    -0.0000100
  N        1.0219994    -1.1587471     0.0000029
  C        0.5211730     0.0320620    -0.0000010
  C       -0.9157640     0.4229260    -0.0000010
  C       -3.1757780    -0.5360000     0.0000030
  C        2.6470610     0.3608020    -0.0000010
  C        2.3925880    -0.9806700     0.0000040
  H       -1.2896900    -1.5740920    -0.0000030
  H       -3.6075680    -0.9997290     0.8912900
  H       -3.6075830    -0.9997540    -0.8912630
  H       -3.4076560     0.5288570    -0.0000100
  H        3.5343540     0.9743460    -0.0000030
  H        3.0931030    -1.8035030     0.0000080
units angstrom
no_reorient  #important for SAPT in psi4, default
symmetry c1  #important for SAPT in psi4, default
}

set PROPERTIES_ORIGIN ["COM"]
properties('MP2/aug-cc-pvtz', properties = ['dipole'])
--------------------------------------------------------------------------

    Molecular point group: c1
  Charge       = 0
  Multiplicity = 1
  Basis Set: AUG-CC-PVTZ
    Blend: AUG-CC-PVTZ
  Basis Set: (AUG-CC-PVTZ AUX)
    Blend: AUG-CC-PVTZ-JKFIT

    Orbital Energies [Eh]
    ---------------------

    Doubly Occupied:

       1A    -20.656008     2A    -20.533014     3A    -15.596969
       4A    -15.592308     5A    -11.374254     6A    -11.353378
       7A    -11.316339     8A    -11.281409     9A    -11.265713
      10A     -1.503504    11A     -1.384899    12A     -1.264889
      13A     -1.235696    14A     -1.062695    15A     -0.971019
      16A     -0.873034    17A     -0.851222    18A     -0.792848
      19A     -0.773875    20A     -0.680989    21A     -0.680637
      22A     -0.657221    23A     -0.627652    24A     -0.623547
      25A     -0.597814    26A     -0.589937    27A     -0.554137
      28A     -0.546235    29A     -0.489041    30A     -0.473207
      31A     -0.446488    32A     -0.399664    33A     -0.356548

  @DF-RHF Final Energy:  -451.61173622552042

   => Energetics <=

    Nuclear Repulsion Energy =            433.7847322127677785
    One-Electron Energy =               -1475.9805537689296671
    Two-Electron Energy =                 590.5840853306415283
    Total Energy =                       -451.6117362255204171
  Basis Set: (AUG-CC-PVTZ AUX)
    Blend: AUG-CC-PVTZ-RI
    Molecular point group: c1

    Geometry (in Angstrom), charge = 0, multiplicity = 1:

       Center              X                  Y                   Z               Mass
    ------------   -----------------  -----------------  -----------------  -----------------
         O            1.408783496210     0.987700433071    -0.000003870852    15.994914619570
         O           -1.314097503790     1.569988433071     0.000005129148    15.994914619570
         N           -1.773308503790    -0.694689566929    -0.000009870852    14.003074004430
         N            0.980789896210    -1.191744666929     0.000003029148    14.003074004430
         C            0.479963496210    -0.000935566929    -0.000000870852    12.000000000000
         C           -0.956973503790     0.389928433071    -0.000000870852    12.000000000000
         C           -3.216987503790    -0.568997566929     0.000003129148    12.000000000000
         C            2.605851496210     0.327804433071    -0.000000870852    12.000000000000
         C            2.351378496210    -1.013667566929     0.000004129148    12.000000000000
         H           -1.330899503790    -1.607089566929    -0.000002870852     1.007825032230
         H           -3.648777503790    -1.032726566929     0.891290129148     1.007825032230
         H           -3.648792503790    -1.032751566929    -0.891262870852     1.007825032230
         H           -3.448865503790     0.495859433071    -0.000009870852     1.007825032230
         H            3.493144496210     0.941348433071    -0.000002870852     1.007825032230
         H            3.051893496210    -1.836500566929     0.000008129148     1.007825032230

  Basis Set: AUG-CC-PVTZ
    Blend: AUG-CC-PVTZ
  Basis Set: (AUG-CC-PVTZ AUX)
    Blend: AUG-CC-PVTZ-JKFIT
	 Reference Energy          =    -451.6117362255204171 [Eh]
	 Singles Energy            =      -0.0000000000000000 [Eh]
	 Same-Spin Energy          =      -0.4615250583799323 [Eh]
	 Opposite-Spin Energy      =      -1.3905527881542279 [Eh]
	 Correlation Energy        =      -1.8520778465341601 [Eh]
	 Total Energy              =    -453.4638140720545607 [Eh]

	 ================> DF-SCS-MP2 Energies <==================
	-----------------------------------------------------------
	 SCS Same-Spin Scale       =       0.3333333333333333 [-]
	 SCS Opposite-Spin Scale   =       1.2000000000000000 [-]
	 SCS Same-Spin Energy      =      -0.1538416861266441 [Eh]
	 SCS Opposite-Spin Energy  =      -1.6686633457850735 [Eh]
	 SCS Correlation Energy    =      -1.8225050319117175 [Eh]
	 SCS Total Energy          =    -453.4342412574321202 [Eh]
	-----------------------------------------------------------

  Dipole Moment: [D]
     X:     1.1378      Y:    -2.7479      Z:     0.0000     Total:     2.9742

*** Psi4 exiting successfully. Buy a developer a beer!
