                               Psi4 1.4a3.dev225

  ==> Input File <==

--------------------------------------------------------------------------
#psi4
#
memory 32 gb

molecule  {
0 1
  O        1.4499930     1.0206980    -0.0000040
  O       -1.2728880     1.6029860     0.0000050
  N       -1.7320990    -0.6616920    -0.0000100
  N        1.0253160    -1.1826400     0.0000030
  C        0.5211730     0.0320620    -0.0000010
  C       -0.9157640     0.4229260    -0.0000010
  C       -3.1757780    -0.5360000     0.0000030
  C        2.6470610     0.3608020    -0.0000010
  C        2.3925880    -0.9806700     0.0000040
  H       -1.2896900    -1.5740920    -0.0000030
  H       -3.6075680    -0.9997290     0.8912900
  H       -3.6075830    -0.9997540    -0.8912630
  H       -3.4076560     0.5288570    -0.0000100
  H        3.5754796     1.0027834    -0.0000031
  H        3.0931030    -1.8035030     0.0000080
units angstrom
no_reorient  #important for SAPT in psi4, default
symmetry c1  #important for SAPT in psi4, default
}

set PROPERTIES_ORIGIN ["COM"]
properties('MP2/aug-cc-pvtz', properties = ['dipole'])
--------------------------------------------------------------------------

    Molecular point group: c1
  Charge       = 0
  Multiplicity = 1
  Basis Set: AUG-CC-PVTZ
    Blend: AUG-CC-PVTZ
  Basis Set: (AUG-CC-PVTZ AUX)
    Blend: AUG-CC-PVTZ-JKFIT

    Orbital Energies [Eh]
    ---------------------

    Doubly Occupied:

       1A    -20.659535     2A    -20.533385     3A    -15.597270
       4A    -15.596365     5A    -11.374886     6A    -11.357526
       7A    -11.321211     8A    -11.281778     9A    -11.265898
      10A     -1.503852    11A     -1.385309    12A     -1.261334
      13A     -1.234849    14A     -1.060319    15A     -0.970303
      16A     -0.873950    17A     -0.845744    18A     -0.793877
      19A     -0.772422    20A     -0.680226    21A     -0.675125
      22A     -0.655670    23A     -0.627922    24A     -0.618282
      25A     -0.597102    26A     -0.589942    27A     -0.554309
      28A     -0.546539    29A     -0.490860    30A     -0.471751
      31A     -0.447447    32A     -0.399987    33A     -0.354663

  @DF-RHF Final Energy:  -451.60714144369103

   => Energetics <=

    Nuclear Repulsion Energy =            432.8841086012801043
    One-Electron Energy =               -1474.1832269450642343
    Two-Electron Energy =                 589.6919769000930955
    Total Energy =                       -451.6071414436910345
  Basis Set: (AUG-CC-PVTZ AUX)
    Blend: AUG-CC-PVTZ-RI
    Molecular point group: c1

    Geometry (in Angstrom), charge = 0, multiplicity = 1:

       Center              X                  Y                   Z               Mass
    ------------   -----------------  -----------------  -----------------  -----------------
         O            1.408086194060     0.990127496053    -0.000003881162    15.994914619570
         O           -1.314794805940     1.572415496053     0.000005118838    15.994914619570
         N           -1.774005805940    -0.692262503947    -0.000009881162    14.003074004430
         N            0.983409194060    -1.213210503947     0.000003118838    14.003074004430
         C            0.479266194060     0.001491496053    -0.000000881162    12.000000000000
         C           -0.957670805940     0.392355496053    -0.000000881162    12.000000000000
         C           -3.217684805940    -0.566570503947     0.000003118838    12.000000000000
         C            2.605154194060     0.330231496053    -0.000000881162    12.000000000000
         C            2.350681194060    -1.011240503947     0.000004118838    12.000000000000
         H           -1.331596805940    -1.604662503947    -0.000002881162     1.007825032230
         H           -3.649474805940    -1.030299503947     0.891290118838     1.007825032230
         H           -3.649489805940    -1.030324503947    -0.891262881162     1.007825032230
         H           -3.449562805940     0.498286496053    -0.000009881162     1.007825032230
         H            3.533572794060     0.972212896053    -0.000002981162     1.007825032230
         H            3.051196194060    -1.834073503947     0.000008118838     1.007825032230

  Basis Set: AUG-CC-PVTZ
    Blend: AUG-CC-PVTZ
  Basis Set: (AUG-CC-PVTZ AUX)
    Blend: AUG-CC-PVTZ-JKFIT
	 Reference Energy          =    -451.6071414436910345 [Eh]
	 Singles Energy            =      -0.0000000000000000 [Eh]
	 Same-Spin Energy          =      -0.4623163934821126 [Eh]
	 Opposite-Spin Energy      =      -1.3923407744999008 [Eh]
	 Correlation Energy        =      -1.8546571679820134 [Eh]
	 Total Energy              =    -453.4617986116730322 [Eh]

	 ================> DF-SCS-MP2 Energies <==================
	-----------------------------------------------------------
	 SCS Same-Spin Scale       =       0.3333333333333333 [-]
	 SCS Opposite-Spin Scale   =       1.2000000000000000 [-]
	 SCS Same-Spin Energy      =      -0.1541054644940375 [Eh]
	 SCS Opposite-Spin Energy  =      -1.6708089293998809 [Eh]
	 SCS Correlation Energy    =      -1.8249143938939185 [Eh]
	 SCS Total Energy          =    -453.4320558375849259 [Eh]
	-----------------------------------------------------------

  Dipole Moment: [D]
     X:     1.1566      Y:    -2.6839      Z:     0.0000     Total:     2.9225

*** Psi4 exiting successfully. Buy a developer a beer!
