                               Psi4 1.4a3.dev225

  ==> Input File <==

--------------------------------------------------------------------------
#psi4
#
memory 32 gb

molecule  {
0 1
  O        1.4499930     1.0206980    -0.0000040
  O       -1.2728880     1.6029860     0.0000050
  N       -1.7320990    -0.6616920    -0.0000100
  N        1.0253160    -1.1826400     0.0000030
  C        0.5211730     0.0320620    -0.0000010
  C       -0.9157640     0.4229260    -0.0000010
  C       -3.1757780    -0.5360000     0.0000030
  C        2.6470610     0.3608020    -0.0000010
  C        2.4420513    -0.9733634     0.0000040
  H       -1.2896900    -1.5740920    -0.0000030
  H       -3.6075680    -0.9997290     0.8912900
  H       -3.6075830    -0.9997540    -0.8912630
  H       -3.4076560     0.5288570    -0.0000100
  H        3.5343540     0.9743460    -0.0000030
  H        3.0931030    -1.8035030     0.0000080
units angstrom
no_reorient  #important for SAPT in psi4, default
symmetry c1  #important for SAPT in psi4, default
}

set PROPERTIES_ORIGIN ["COM"]
properties('MP2/aug-cc-pvtz', properties = ['dipole'])
--------------------------------------------------------------------------

    Molecular point group: c1
  Charge       = 0
  Multiplicity = 1
  Basis Set: AUG-CC-PVTZ
    Blend: AUG-CC-PVTZ
  Basis Set: (AUG-CC-PVTZ AUX)
    Blend: AUG-CC-PVTZ-JKFIT

    Orbital Energies [Eh]
    ---------------------

    Doubly Occupied:

       1A    -20.656969     2A    -20.534068     3A    -15.597338
       4A    -15.597030     5A    -11.375287     6A    -11.357714
       7A    -11.316613     8A    -11.281121     9A    -11.265923
      10A     -1.501466    11A     -1.385770    12A     -1.254357
      13A     -1.228356    14A     -1.064287    15A     -0.972001
      16A     -0.876875    17A     -0.847032    18A     -0.791383
      19A     -0.773523    20A     -0.680137    21A     -0.678605
      22A     -0.656209    23A     -0.627950    24A     -0.620615
      25A     -0.600709    26A     -0.591565    27A     -0.554335
      28A     -0.546871    29A     -0.487723    30A     -0.463879
      31A     -0.447261    32A     -0.399993    33A     -0.361636

  @DF-RHF Final Energy:  -451.60807839465593

   => Energetics <=

    Nuclear Repulsion Energy =            432.3627834069478695
    One-Electron Energy =               -1473.1525241834619919
    Two-Electron Energy =                 589.1816623818580183
    Total Energy =                       -451.6080783946559905
  Basis Set: (AUG-CC-PVTZ AUX)
    Blend: AUG-CC-PVTZ-RI
    Molecular point group: c1

    Geometry (in Angstrom), charge = 0, multiplicity = 1:

       Center              X                  Y                   Z               Mass
    ------------   -----------------  -----------------  -----------------  -----------------
         O            1.403705843634     0.989659248626    -0.000003881961    15.994914619570
         O           -1.319175156366     1.571947248626     0.000005118039    15.994914619570
         N           -1.778386156366    -0.692730751374    -0.000009881961    14.003074004430
         N            0.979028843634    -1.213678751374     0.000003118039    14.003074004430
         C            0.474885843634     0.001023248626    -0.000000881961    12.000000000000
         C           -0.962051156366     0.391887248626    -0.000000881961    12.000000000000
         C           -3.222065156366    -0.567038751374     0.000003118039    12.000000000000
         C            2.600773843634     0.329763248626    -0.000000881961    12.000000000000
         C            2.395764143634    -1.004402151374     0.000004118039    12.000000000000
         H           -1.335977156366    -1.605130751374    -0.000002881961     1.007825032230
         H           -3.653855156366    -1.030767751374     0.891290118039     1.007825032230
         H           -3.653870156366    -1.030792751374    -0.891262881961     1.007825032230
         H           -3.453943156366     0.497818248626    -0.000009881961     1.007825032230
         H            3.488066843634     0.943307248626    -0.000002881961     1.007825032230
         H            3.046815843634    -1.834541751374     0.000008118039     1.007825032230

  Basis Set: AUG-CC-PVTZ
    Blend: AUG-CC-PVTZ
  Basis Set: (AUG-CC-PVTZ AUX)
    Blend: AUG-CC-PVTZ-JKFIT
	 Reference Energy          =    -451.6080783946559336 [Eh]
	 Singles Energy            =      -0.0000000000000000 [Eh]
	 Same-Spin Energy          =      -0.4613241157510941 [Eh]
	 Opposite-Spin Energy      =      -1.3917521792080112 [Eh]
	 Correlation Energy        =      -1.8530762949591053 [Eh]
	 Total Energy              =    -453.4611546896150571 [Eh]

	 ================> DF-SCS-MP2 Energies <==================
	-----------------------------------------------------------
	 SCS Same-Spin Scale       =       0.3333333333333333 [-]
	 SCS Opposite-Spin Scale   =       1.2000000000000000 [-]
	 SCS Same-Spin Energy      =      -0.1537747052503647 [Eh]
	 SCS Opposite-Spin Energy  =      -1.6701026150496134 [Eh]
	 SCS Correlation Energy    =      -1.8238773202999781 [Eh]
	 SCS Total Energy          =    -453.4319557149559046 [Eh]
	-----------------------------------------------------------

  Dipole Moment: [D]
     X:     1.1290      Y:    -2.6976      Z:     0.0000     Total:     2.9243

*** Psi4 exiting successfully. Buy a developer a beer!
