                               Psi4 1.4a3.dev225

  ==> Input File <==

--------------------------------------------------------------------------
#psi4
#
memory 32 gb

molecule  {
0 1
  O        1.4499930     1.0206980    -0.0000040
  O       -1.2728880     1.6029860     0.0000050
  N       -1.7320990    -0.6616920    -0.0000100
  N        1.0253160    -1.1826400     0.0000030
  C        0.5211730     0.0320620    -0.0000010
  C       -0.8964652     0.4176765    -0.0000010
  C       -3.1757780    -0.5360000     0.0000030
  C        2.6470610     0.3608020    -0.0000010
  C        2.3925880    -0.9806700     0.0000040
  H       -1.2896900    -1.5740920    -0.0000030
  H       -3.6075680    -0.9997290     0.8912900
  H       -3.6075830    -0.9997540    -0.8912630
  H       -3.4076560     0.5288570    -0.0000100
  H        3.5343540     0.9743460    -0.0000030
  H        3.0931030    -1.8035030     0.0000080
units angstrom
no_reorient  #important for SAPT in psi4, default
symmetry c1  #important for SAPT in psi4, default
}

set PROPERTIES_ORIGIN ["COM"]
properties('MP2/aug-cc-pvtz', properties = ['dipole'])
--------------------------------------------------------------------------

    Molecular point group: c1
  Charge       = 0
  Multiplicity = 1
  Basis Set: AUG-CC-PVTZ
    Blend: AUG-CC-PVTZ
  Basis Set: (AUG-CC-PVTZ AUX)
    Blend: AUG-CC-PVTZ-JKFIT

    Orbital Energies [Eh]
    ---------------------

    Doubly Occupied:

       1A    -20.660763     2A    -20.532217     3A    -15.598544
       4A    -15.596470     5A    -11.374755     6A    -11.358175
       7A    -11.318117     8A    -11.283177     9A    -11.265248
      10A     -1.505328    11A     -1.378426    12A     -1.261710
      13A     -1.231991    14A     -1.065093    15A     -0.970936
      16A     -0.878157    17A     -0.851566    18A     -0.793202
      19A     -0.772933    20A     -0.681726    21A     -0.681054
      22A     -0.655347    23A     -0.625956    24A     -0.621313
      25A     -0.598024    26A     -0.592462    27A     -0.552505
      28A     -0.543541    29A     -0.492565    30A     -0.472693
      31A     -0.447010    32A     -0.397511    33A     -0.356041

  @DF-RHF Final Energy:  -451.60763517147689

   => Energetics <=

    Nuclear Repulsion Energy =            433.1819618138025589
    One-Electron Energy =               -1474.7500765080292240
    Two-Electron Energy =                 589.9604795227496652
    Total Energy =                       -451.6076351714768862
  Basis Set: (AUG-CC-PVTZ AUX)
    Blend: AUG-CC-PVTZ-RI
    Molecular point group: c1

    Geometry (in Angstrom), charge = 0, multiplicity = 1:

       Center              X                  Y                   Z               Mass
    ------------   -----------------  -----------------  -----------------  -----------------
         O            1.406577674742     0.990854660404    -0.000003881961    15.994914619570
         O           -1.316303325258     1.573142660404     0.000005118039    15.994914619570
         N           -1.775514325258    -0.691535339596    -0.000009881961    14.003074004430
         N            0.981900674742    -1.212483339596     0.000003118039    14.003074004430
         C            0.477757674742     0.002218660404    -0.000000881961    12.000000000000
         C           -0.939880525258     0.387833160404    -0.000000881961    12.000000000000
         C           -3.219193325258    -0.565843339596     0.000003118039    12.000000000000
         C            2.603645674742     0.330958660404    -0.000000881961    12.000000000000
         C            2.349172674742    -1.010513339596     0.000004118039    12.000000000000
         H           -1.333105325258    -1.603935339596    -0.000002881961     1.007825032230
         H           -3.650983325258    -1.029572339596     0.891290118039     1.007825032230
         H           -3.650998325258    -1.029597339596    -0.891262881961     1.007825032230
         H           -3.451071325258     0.499013660404    -0.000009881961     1.007825032230
         H            3.490938674742     0.944502660404    -0.000002881961     1.007825032230
         H            3.049687674742    -1.833346339596     0.000008118039     1.007825032230

  Basis Set: AUG-CC-PVTZ
    Blend: AUG-CC-PVTZ
  Basis Set: (AUG-CC-PVTZ AUX)
    Blend: AUG-CC-PVTZ-JKFIT
	 Reference Energy          =    -451.6076351714768862 [Eh]
	 Singles Energy            =      -0.0000000000000000 [Eh]
	 Same-Spin Energy          =      -0.4626977449791269 [Eh]
	 Opposite-Spin Energy      =      -1.3928860657382811 [Eh]
	 Correlation Energy        =      -1.8555838107174081 [Eh]
	 Total Energy              =    -453.4632189821942916 [Eh]

	 ================> DF-SCS-MP2 Energies <==================
	-----------------------------------------------------------
	 SCS Same-Spin Scale       =       0.3333333333333333 [-]
	 SCS Opposite-Spin Scale   =       1.2000000000000000 [-]
	 SCS Same-Spin Energy      =      -0.1542325816597089 [Eh]
	 SCS Opposite-Spin Energy  =      -1.6714632788859374 [Eh]
	 SCS Correlation Energy    =      -1.8256958605456464 [Eh]
	 SCS Total Energy          =    -453.4333310320225223 [Eh]
	-----------------------------------------------------------

  Dipole Moment: [D]
     X:     1.2794      Y:    -2.7242      Z:     0.0000     Total:     3.0096

*** Psi4 exiting successfully. Buy a developer a beer!
