                               Psi4 1.3.2 release

  ==> Input File <==

--------------------------------------------------------------------------
#psi4
#
memory 32 gb

molecule  {
0 1
  O        1.4499930     1.0206980    -0.0000040
  O       -1.2728880     1.6029860     0.0000050
  N       -1.7320990    -0.6616920    -0.0000100
  N        1.0253160    -1.1826400     0.0000030
  C        0.5211730     0.0320620    -0.0000010
  C       -0.9157640     0.4229260    -0.0000010
  C       -3.1757780    -0.5360000     0.0000030
  C        2.6470610     0.3608020    -0.0000010
  C        2.3692148    -0.9760245     0.0000040
  H       -1.2896900    -1.5740920    -0.0000030
  H       -3.6075680    -0.9997290     0.8912900
  H       -3.6075830    -0.9997540    -0.8912630
  H       -3.4076560     0.5288570    -0.0000100
  H        3.5343540     0.9743460    -0.0000030
  H        3.0931030    -1.8035030     0.0000080
units angstrom
no_reorient  #important for SAPT in psi4, default
symmetry c1  #important for SAPT in psi4, default
}

set PROPERTIES_ORIGIN ["COM"]
properties('MP2/aug-cc-pvtz', properties = ['dipole'])
--------------------------------------------------------------------------

    Molecular point group: c1
  Charge       = 0
  Multiplicity = 1
  Basis Set: AUG-CC-PVTZ
    Blend: AUG-CC-PVTZ
  Basis Set: (AUG-CC-PVTZ AUX)
    Blend: AUG-CC-PVTZ-JKFIT

    Orbital Energies [Eh]
    ---------------------

    Doubly Occupied:

       1A    -20.659779     2A    -20.533166     3A    -15.597357
       4A    -15.595593     5A    -11.374718     6A    -11.357581
       7A    -11.314749     8A    -11.281436     9A    -11.265957
      10A     -1.504871    11A     -1.385171    12A     -1.266089
      13A     -1.236920    14A     -1.061153    15A     -0.970999
      16A     -0.873243    17A     -0.849906    18A     -0.795378
      19A     -0.774332    20A     -0.681059    21A     -0.680601
      22A     -0.656689    23A     -0.627988    24A     -0.620659
      25A     -0.596932    26A     -0.589060    27A     -0.554393
      28A     -0.546441    29A     -0.492711    30A     -0.475456
      31A     -0.447490    32A     -0.400068    33A     -0.352771

  @DF-RHF Final Energy:  -451.60885048815425

   => Energetics <=

    Nuclear Repulsion Energy =            433.6387591679064144
    One-Electron Energy =               -1475.6537854779032841
    Two-Electron Energy =                 590.4061758218424529
    Total Energy =                       -451.6088504881543031
  Basis Set: (AUG-CC-PVTZ AUX)
    Blend: AUG-CC-PVTZ-RI
    Molecular point group: c1

    Geometry (in Angstrom), charge = 0, multiplicity = 1:

       Center              X                  Y                   Z               Mass
    ------------   -----------------  -----------------  -----------------  -----------------
         O            1.410640290634     0.989912600406    -0.000003881961    15.994914619570
         O           -1.312240709366     1.572200600406     0.000005118039    15.994914619570
         N           -1.771451709366    -0.692477399594    -0.000009881961    14.003074004430
         N            0.985963290634    -1.213425399594     0.000003118039    14.003074004430
         C            0.481820290634     0.001276600406    -0.000000881961    12.000000000000
         C           -0.955116709366     0.392140600406    -0.000000881961    12.000000000000
         C           -3.215130709366    -0.566785399594     0.000003118039    12.000000000000
         C            2.607708290634     0.330016600406    -0.000000881961    12.000000000000
         C            2.329862090634    -1.006809899594     0.000004118039    12.000000000000
         H           -1.329042709366    -1.604877399594    -0.000002881961     1.007825032230
         H           -3.646920709366    -1.030514399594     0.891290118039     1.007825032230
         H           -3.646935709366    -1.030539399594    -0.891262881961     1.007825032230
         H           -3.447008709366     0.498071600406    -0.000009881961     1.007825032230
         H            3.495001290634     0.943560600406    -0.000002881961     1.007825032230
         H            3.053750290634    -1.834288399594     0.000008118039     1.007825032230

  Basis Set: AUG-CC-PVTZ
    Blend: AUG-CC-PVTZ
  Basis Set: (AUG-CC-PVTZ AUX)
    Blend: AUG-CC-PVTZ-JKFIT
	 Reference Energy          =    -451.6088504881542462 [Eh]
	 Singles Energy            =      -0.0000000000000000 [Eh]
	 Same-Spin Energy          =      -0.4625222000378283 [Eh]
	 Opposite-Spin Energy      =      -1.3919100829154538 [Eh]
	 Correlation Energy        =      -1.8544322829532822 [Eh]
	 Total Energy              =    -453.4632827711075151 [Eh]

	 ================> DF-SCS-MP2 Energies <==================
	-----------------------------------------------------------
	 SCS Same-Spin Scale       =       0.3333333333333333 [-]
	 SCS Opposite-Spin Scale   =       1.2000000000000000 [-]
	 SCS Same-Spin Energy      =      -0.1541740666792761 [Eh]
	 SCS Opposite-Spin Energy  =      -1.6702920994985446 [Eh]
	 SCS Correlation Energy    =      -1.8244661661778208 [Eh]
	 SCS Total Energy          =    -453.4333166543320885 [Eh]
	-----------------------------------------------------------

  Dipole Moment: [D]
     X:     1.1446      Y:    -2.6879      Z:     0.0000     Total:     2.9214

*** Psi4 exiting successfully. Buy a developer a beer!
