                               Psi4 1.3.2 release

  ==> Input File <==

--------------------------------------------------------------------------
#psi4
#
memory 32 gb

molecule  {
0 1
  O        1.4499930     1.0206980    -0.0000040
  O       -1.2728880     1.6029860     0.0000050
  N       -1.7320990    -0.6616920    -0.0000100
  N        1.0253160    -1.1826400     0.0000030
  C        0.5211730     0.0320620    -0.0000010
  C       -0.9157640     0.4229260    -0.0000010
  C       -3.1757780    -0.5360000     0.0000030
  C        2.6470610     0.3608020    -0.0000010
  C        2.3925880    -0.9806700     0.0000040
  H       -1.2896900    -1.5740920    -0.0000030
  H       -3.6075680    -0.9997290     0.8912900
  H       -3.6075830    -0.9997540    -0.8912630
  H       -3.4076560     0.5288570    -0.0000100
  H        3.5343540     0.9743460    -0.0000030
  H        2.9634544    -1.6512163     0.0000073
units angstrom
no_reorient  #important for SAPT in psi4, default
symmetry c1  #important for SAPT in psi4, default
}

set PROPERTIES_ORIGIN ["COM"]
properties('MP2/aug-cc-pvtz', properties = ['dipole'])
--------------------------------------------------------------------------

    Molecular point group: c1
  Charge       = 0
  Multiplicity = 1
  Basis Set: AUG-CC-PVTZ
    Blend: AUG-CC-PVTZ
  Basis Set: (AUG-CC-PVTZ AUX)
    Blend: AUG-CC-PVTZ-JKFIT

    Orbital Energies [Eh]
    ---------------------

    Doubly Occupied:

       1A    -20.658771     2A    -20.533085     3A    -15.597004
       4A    -15.595150     5A    -11.374484     6A    -11.356656
       7A    -11.316156     8A    -11.265730     9A    -11.259577
      10A     -1.503110    11A     -1.385019    12A     -1.261266
      13A     -1.234897    14A     -1.067281    15A     -0.972395
      16A     -0.889898    17A     -0.860055    18A     -0.798219
      19A     -0.779665    20A     -0.684198    21A     -0.679572
      22A     -0.668130    23A     -0.637445    24A     -0.627692
      25A     -0.601244    26A     -0.592587    27A     -0.554180
      28A     -0.546276    29A     -0.491395    30A     -0.471181
      31A     -0.447190    32A     -0.399763    33A     -0.354815

  @DF-RHF Final Energy:  -451.57326723094832

   => Energetics <=

    Nuclear Repulsion Energy =            434.3319820099638378
    One-Electron Energy =               -1476.8823240767751486
    Two-Electron Energy =                 590.9770748358629362
    Total Energy =                       -451.5732672309483178
  Basis Set: (AUG-CC-PVTZ AUX)
    Blend: AUG-CC-PVTZ-RI
    Molecular point group: c1

    Geometry (in Angstrom), charge = 0, multiplicity = 1:

       Center              X                  Y                   Z               Mass
    ------------   -----------------  -----------------  -----------------  -----------------
         O            1.409451685302     0.989137211018    -0.000003876364    15.994914619570
         O           -1.313429314698     1.571425211018     0.000005123636    15.994914619570
         N           -1.772640314698    -0.693252788982    -0.000009876364    14.003074004430
         N            0.984774685302    -1.214200788982     0.000003123636    14.003074004430
         C            0.480631685302     0.000501211018    -0.000000876364    12.000000000000
         C           -0.956305314698     0.391365211018    -0.000000876364    12.000000000000
         C           -3.216319314698    -0.567560788982     0.000003123636    12.000000000000
         C            2.606519685302     0.329241211018    -0.000000876364    12.000000000000
         C            2.352046685302    -1.012230788982     0.000004123636    12.000000000000
         H           -1.330231314698    -1.605652788982    -0.000002876364     1.007825032230
         H           -3.648109314698    -1.031289788982     0.891290123636     1.007825032230
         H           -3.648124314698    -1.031314788982    -0.891262876364     1.007825032230
         H           -3.448197314698     0.497296211018    -0.000009876364     1.007825032230
         H            3.493812685302     0.942785211018    -0.000002876364     1.007825032230
         H            2.922913085302    -1.682777088982     0.000007423636     1.007825032230

  Basis Set: AUG-CC-PVTZ
    Blend: AUG-CC-PVTZ
  Basis Set: (AUG-CC-PVTZ AUX)
    Blend: AUG-CC-PVTZ-JKFIT
	 Reference Energy          =    -451.5732672309483178 [Eh]
	 Singles Energy            =      -0.0000000000000000 [Eh]
	 Same-Spin Energy          =      -0.4619920173568424 [Eh]
	 Opposite-Spin Energy      =      -1.3915809048524825 [Eh]
	 Correlation Energy        =      -1.8535729222093249 [Eh]
	 Total Energy              =    -453.4268401531576274 [Eh]

	 ================> DF-SCS-MP2 Energies <==================
	-----------------------------------------------------------
	 SCS Same-Spin Scale       =       0.3333333333333333 [-]
	 SCS Opposite-Spin Scale   =       1.2000000000000000 [-]
	 SCS Same-Spin Energy      =      -0.1539973391189474 [Eh]
	 SCS Opposite-Spin Energy  =      -1.6698970858229789 [Eh]
	 SCS Correlation Energy    =      -1.8238944249419264 [Eh]
	 SCS Total Energy          =    -453.3971616558902724 [Eh]
	-----------------------------------------------------------

  Dipole Moment: [D]
     X:     1.1514      Y:    -2.6490      Z:     0.0000     Total:     2.8884

*** Psi4 exiting successfully. Buy a developer a beer!
