                               Psi4 1.3.2 release

  ==> Input File <==

--------------------------------------------------------------------------
#psi4
#
memory 32 gb

molecule  {
0 1
  O        1.4499930     1.0206980    -0.0000040
  O       -1.2728880     1.6029860     0.0000050
  N       -1.7320990    -0.6616920    -0.0000100
  N        1.0116944    -1.0386147     0.0000024
  C        0.5211730     0.0320620    -0.0000010
  C       -0.9157640     0.4229260    -0.0000010
  C       -3.1757780    -0.5360000     0.0000030
  C        2.6470610     0.3608020    -0.0000010
  C        2.3925880    -0.9806700     0.0000040
  H       -1.2896900    -1.5740920    -0.0000030
  H       -3.6075680    -0.9997290     0.8912900
  H       -3.6075830    -0.9997540    -0.8912630
  H       -3.4076560     0.5288570    -0.0000100
  H        3.5343540     0.9743460    -0.0000030
  H        3.0931030    -1.8035030     0.0000080
units angstrom
no_reorient  #important for SAPT in psi4, default
symmetry c1  #important for SAPT in psi4, default
}

set PROPERTIES_ORIGIN ["COM"]
properties('MP2/aug-cc-pvtz', properties = ['dipole'])
--------------------------------------------------------------------------

    Molecular point group: c1
  Charge       = 0
  Multiplicity = 1
  Basis Set: AUG-CC-PVTZ
    Blend: AUG-CC-PVTZ
  Basis Set: (AUG-CC-PVTZ AUX)
    Blend: AUG-CC-PVTZ-JKFIT

    Orbital Energies [Eh]
    ---------------------

    Doubly Occupied:

       1A    -20.638877     2A    -20.531074     3A    -15.595795
       4A    -15.571243     5A    -11.370808     6A    -11.331278
       7A    -11.317203     8A    -11.280460     9A    -11.264975
      10A     -1.505811    11A     -1.382783    12A     -1.286574
      13A     -1.237349    14A     -1.069502    15A     -0.971388
      16A     -0.872005    17A     -0.856093    18A     -0.787808
      19A     -0.773292    20A     -0.686662    21A     -0.685893
      22A     -0.659045    23A     -0.632192    24A     -0.626551
      25A     -0.597701    26A     -0.582707    27A     -0.553172
      28A     -0.544758    29A     -0.482745    30A     -0.480518
      31A     -0.437341    32A     -0.398183    33A     -0.364955

  @DF-RHF Final Energy:  -451.59676253213172

   => Energetics <=

    Nuclear Repulsion Energy =            437.1757184709454691
    One-Electron Energy =               -1482.7914778001420473
    Two-Electron Energy =                 594.0189967970649150
    Total Energy =                       -451.5967625321317200
  Basis Set: (AUG-CC-PVTZ AUX)
    Blend: AUG-CC-PVTZ-RI
    Molecular point group: c1

    Geometry (in Angstrom), charge = 0, multiplicity = 1:

       Center              X                  Y                   Z               Mass
    ------------   -----------------  -----------------  -----------------  -----------------
         O            1.409928357573     0.974354004821    -0.000003815303    15.994914619570
         O           -1.312952642427     1.556642004821     0.000005184697    15.994914619570
         N           -1.772163642427    -0.708035995179    -0.000009815303    14.003074004430
         N            0.971629757573    -1.084958695179     0.000002584697    14.003074004430
         C            0.481108357573    -0.014281995179    -0.000000815303    12.000000000000
         C           -0.955828642427     0.376582004821    -0.000000815303    12.000000000000
         C           -3.215842642427    -0.582343995179     0.000003184697    12.000000000000
         C            2.606996357573     0.314458004821    -0.000000815303    12.000000000000
         C            2.352523357573    -1.027013995179     0.000004184697    12.000000000000
         H           -1.329754642427    -1.620435995179    -0.000002815303     1.007825032230
         H           -3.647632642427    -1.046072995179     0.891290184697     1.007825032230
         H           -3.647647642427    -1.046097995179    -0.891262815303     1.007825032230
         H           -3.447720642427     0.482513004821    -0.000009815303     1.007825032230
         H            3.494289357573     0.928002004821    -0.000002815303     1.007825032230
         H            3.053038357573    -1.849846995179     0.000008184697     1.007825032230

  Basis Set: AUG-CC-PVTZ
    Blend: AUG-CC-PVTZ
  Basis Set: (AUG-CC-PVTZ AUX)
    Blend: AUG-CC-PVTZ-JKFIT
	 Reference Energy          =    -451.5967625321317200 [Eh]
	 Singles Energy            =      -0.0000000000000000 [Eh]
	 Same-Spin Energy          =      -0.4589103973715855 [Eh]
	 Opposite-Spin Energy      =      -1.3849995240207864 [Eh]
	 Correlation Energy        =      -1.8439099213923720 [Eh]
	 Total Energy              =    -453.4406724535240869 [Eh]

	 ================> DF-SCS-MP2 Energies <==================
	-----------------------------------------------------------
	 SCS Same-Spin Scale       =       0.3333333333333333 [-]
	 SCS Opposite-Spin Scale   =       1.2000000000000000 [-]
	 SCS Same-Spin Energy      =      -0.1529701324571952 [Eh]
	 SCS Opposite-Spin Energy  =      -1.6619994288249436 [Eh]
	 SCS Correlation Energy    =      -1.8149695612821386 [Eh]
	 SCS Total Energy          =    -453.4117320934138320 [Eh]
	-----------------------------------------------------------

  Dipole Moment: [D]
     X:     1.0924      Y:    -3.0608      Z:     0.0000     Total:     3.2499

*** Psi4 exiting successfully. Buy a developer a beer!
