                               Psi4 1.3.2 release

  ==> Input File <==

--------------------------------------------------------------------------
#psi4
#
memory 32 gb

molecule  {
0 1
  O        1.4499930     1.0206980    -0.0000040
  O       -1.2728880     1.6029860     0.0000050
  N       -1.7320990    -0.6616920    -0.0000100
  N        1.0253160    -1.1826400     0.0000030
  C        0.5211730     0.0320620    -0.0000010
  C       -0.9157640     0.4229260    -0.0000010
  C       -3.1757780    -0.5360000     0.0000030
  C        2.6470610     0.3608020    -0.0000010
  C        2.4395597    -0.9887338     0.0000040
  H       -1.2896900    -1.5740920    -0.0000030
  H       -3.6075680    -0.9997290     0.8912900
  H       -3.6075830    -0.9997540    -0.8912630
  H       -3.4076560     0.5288570    -0.0000100
  H        3.5343540     0.9743460    -0.0000030
  H        3.0931030    -1.8035030     0.0000080
units angstrom
no_reorient  #important for SAPT in psi4, default
symmetry c1  #important for SAPT in psi4, default
}

set PROPERTIES_ORIGIN ["COM"]
properties('MP2/aug-cc-pvtz', properties = ['dipole'])
--------------------------------------------------------------------------

    Molecular point group: c1
  Charge       = 0
  Multiplicity = 1
  Basis Set: AUG-CC-PVTZ
    Blend: AUG-CC-PVTZ
  Basis Set: (AUG-CC-PVTZ AUX)
    Blend: AUG-CC-PVTZ-JKFIT

    Orbital Energies [Eh]
    ---------------------

    Doubly Occupied:

       1A    -20.658291     2A    -20.533825     3A    -15.597212
       4A    -15.597110     5A    -11.375158     6A    -11.357358
       7A    -11.319086     8A    -11.282487     9A    -11.265788
      10A     -1.501602    11A     -1.385577    12A     -1.254585
      13A     -1.228779    14A     -1.062286    15A     -0.971269
      16A     -0.876276    17A     -0.848602    18A     -0.791325
      19A     -0.773696    20A     -0.680133    21A     -0.678434
      22A     -0.657222    23A     -0.627775    24A     -0.624647
      25A     -0.600274    26A     -0.591068    27A     -0.554184
      28A     -0.546703    29A     -0.486761    30A     -0.464536
      31A     -0.447157    32A     -0.399810    33A     -0.358657

  @DF-RHF Final Energy:  -451.60708900043250

   => Energetics <=

    Nuclear Repulsion Energy =            432.1788222107056754
    One-Electron Energy =               -1472.7764800206182372
    Two-Electron Energy =                 588.9905688094801235
    Total Energy =                       -451.6070890004324383
  Basis Set: (AUG-CC-PVTZ AUX)
    Blend: AUG-CC-PVTZ-RI
    Molecular point group: c1

    Geometry (in Angstrom), charge = 0, multiplicity = 1:

       Center              X                  Y                   Z               Mass
    ------------   -----------------  -----------------  -----------------  -----------------
         O            1.403943058055     0.991122597691    -0.000003881961    15.994914619570
         O           -1.318937941945     1.573410597691     0.000005118039    15.994914619570
         N           -1.778148941945    -0.691267402309    -0.000009881961    14.003074004430
         N            0.979266058055    -1.212215402309     0.000003118039    14.003074004430
         C            0.475123058055     0.002486597691    -0.000000881961    12.000000000000
         C           -0.961813941945     0.393350597691    -0.000000881961    12.000000000000
         C           -3.221827941945    -0.565575402309     0.000003118039    12.000000000000
         C            2.601011058055     0.331226597691    -0.000000881961    12.000000000000
         C            2.393509758055    -1.018309202309     0.000004118039    12.000000000000
         H           -1.335739941945    -1.603667402309    -0.000002881961     1.007825032230
         H           -3.653617941945    -1.029304402309     0.891290118039     1.007825032230
         H           -3.653632941945    -1.029329402309    -0.891262881961     1.007825032230
         H           -3.453705941945     0.499281597691    -0.000009881961     1.007825032230
         H            3.488304058055     0.944770597691    -0.000002881961     1.007825032230
         H            3.047053058055    -1.833078402309     0.000008118039     1.007825032230

  Basis Set: AUG-CC-PVTZ
    Blend: AUG-CC-PVTZ
  Basis Set: (AUG-CC-PVTZ AUX)
    Blend: AUG-CC-PVTZ-JKFIT
	 Reference Energy          =    -451.6070890004324951 [Eh]
	 Singles Energy            =      -0.0000000000000000 [Eh]
	 Same-Spin Energy          =      -0.4616279004843192 [Eh]
	 Opposite-Spin Energy      =      -1.3922083135024454 [Eh]
	 Correlation Energy        =      -1.8538362139867646 [Eh]
	 Total Energy              =    -453.4609252144192624 [Eh]

	 ================> DF-SCS-MP2 Energies <==================
	-----------------------------------------------------------
	 SCS Same-Spin Scale       =       0.3333333333333333 [-]
	 SCS Opposite-Spin Scale   =       1.2000000000000000 [-]
	 SCS Same-Spin Energy      =      -0.1538759668281064 [Eh]
	 SCS Opposite-Spin Energy  =      -1.6706499762029345 [Eh]
	 SCS Correlation Energy    =      -1.8245259430310410 [Eh]
	 SCS Total Energy          =    -453.4316149434635577 [Eh]
	-----------------------------------------------------------

  Dipole Moment: [D]
     X:     1.1443      Y:    -2.7049      Z:     0.0000     Total:     2.9370

*** Psi4 exiting successfully. Buy a developer a beer!
