                               Psi4 1.3.2 release

  ==> Input File <==

--------------------------------------------------------------------------
#psi4
#
memory 32 gb

molecule  {
0 1
  O        1.4499930     1.0206980    -0.0000040
  O       -1.2728880     1.6029860     0.0000050
  N       -1.7320990    -0.6616920    -0.0000100
  N        1.0253160    -1.1826400     0.0000030
  C        0.5211730     0.0320620    -0.0000010
  C       -0.9157640     0.4229260    -0.0000010
  C       -3.1757780    -0.5360000     0.0000030
  C        2.6470610     0.3608020    -0.0000010
  C        2.5342040    -0.9999209     0.0000041
  H       -1.2896900    -1.5740920    -0.0000030
  H       -3.6075680    -0.9997290     0.8912900
  H       -3.6075830    -0.9997540    -0.8912630
  H       -3.4076560     0.5288570    -0.0000100
  H        3.5343540     0.9743460    -0.0000030
  H        3.0931030    -1.8035030     0.0000080
units angstrom
no_reorient  #important for SAPT in psi4, default
symmetry c1  #important for SAPT in psi4, default
}

set PROPERTIES_ORIGIN ["COM"]
properties('MP2/aug-cc-pvtz', properties = ['dipole'])
--------------------------------------------------------------------------

    Molecular point group: c1
  Charge       = 0
  Multiplicity = 1
  Basis Set: AUG-CC-PVTZ
    Blend: AUG-CC-PVTZ
  Basis Set: (AUG-CC-PVTZ AUX)
    Blend: AUG-CC-PVTZ-JKFIT

    Orbital Energies [Eh]
    ---------------------

    Doubly Occupied:

       1A    -20.657246     2A    -20.534639     3A    -15.598434
       4A    -15.596862     5A    -11.375740     6A    -11.357292
       7A    -11.326012     8A    -11.285202     9A    -11.265619
      10A     -1.498978    11A     -1.386120    12A     -1.249226
      13A     -1.213188    14A     -1.064120    15A     -0.971908
      16A     -0.883304    17A     -0.847998    18A     -0.789357
      19A     -0.774215    20A     -0.679091    21A     -0.676357
      22A     -0.658715    23A     -0.637400    24A     -0.627644
      25A     -0.600900    26A     -0.584058    27A     -0.553875
      28A     -0.547112    29A     -0.476808    30A     -0.452570
      31A     -0.445316    32A     -0.399518    33A     -0.366760

  @DF-RHF Final Energy:  -451.58636503888499

   => Energetics <=

    Nuclear Repulsion Energy =            430.4002534394485906
    One-Electron Energy =               -1469.2100685881027857
    Two-Electron Energy =                 587.2234501097692601
    Total Energy =                       -451.5863650388849919
  Basis Set: (AUG-CC-PVTZ AUX)
    Blend: AUG-CC-PVTZ-RI
    Molecular point group: c1

    Geometry (in Angstrom), charge = 0, multiplicity = 1:

       Center              X                  Y                   Z               Mass
    ------------   -----------------  -----------------  -----------------  -----------------
         O            1.394932385080     0.992187672922    -0.000003891482    15.994914619570
         O           -1.327948614920     1.574475672922     0.000005108518    15.994914619570
         N           -1.787159614920    -0.690202327078    -0.000009891482    14.003074004430
         N            0.970255385080    -1.211150327078     0.000003108518    14.003074004430
         C            0.466112385080     0.003551672922    -0.000000891482    12.000000000000
         C           -0.970824614920     0.394415672922    -0.000000891482    12.000000000000
         C           -3.230838614920    -0.564510327078     0.000003108518    12.000000000000
         C            2.592000385080     0.332291672922    -0.000000891482    12.000000000000
         C            2.479143385080    -1.028431227078     0.000004208518    12.000000000000
         H           -1.344750614920    -1.602602327078    -0.000002891482     1.007825032230
         H           -3.662628614920    -1.028239327078     0.891290108518     1.007825032230
         H           -3.662643614920    -1.028264327078    -0.891262891482     1.007825032230
         H           -3.462716614920     0.500346672922    -0.000009891482     1.007825032230
         H            3.479293385080     0.945835672922    -0.000002891482     1.007825032230
         H            3.038042385080    -1.832013327078     0.000008108518     1.007825032230

  Basis Set: AUG-CC-PVTZ
    Blend: AUG-CC-PVTZ
  Basis Set: (AUG-CC-PVTZ AUX)
    Blend: AUG-CC-PVTZ-JKFIT
	 Reference Energy          =    -451.5863650388849919 [Eh]
	 Singles Energy            =      -0.0000000000000000 [Eh]
	 Same-Spin Energy          =      -0.4609528275085517 [Eh]
	 Opposite-Spin Energy      =      -1.3937753763582310 [Eh]
	 Correlation Energy        =      -1.8547282038667827 [Eh]
	 Total Energy              =    -453.4410932427517764 [Eh]

	 ================> DF-SCS-MP2 Energies <==================
	-----------------------------------------------------------
	 SCS Same-Spin Scale       =       0.3333333333333333 [-]
	 SCS Opposite-Spin Scale   =       1.2000000000000000 [-]
	 SCS Same-Spin Energy      =      -0.1536509425028506 [Eh]
	 SCS Opposite-Spin Energy  =      -1.6725304516298771 [Eh]
	 SCS Correlation Energy    =      -1.8261813941327276 [Eh]
	 SCS Total Energy          =    -453.4125464330177238 [Eh]
	-----------------------------------------------------------

  Dipole Moment: [D]
     X:     1.1121      Y:    -2.7111      Z:     0.0000     Total:     2.9303

*** Psi4 exiting successfully. Buy a developer a beer!
