                               Psi4 1.4a3.dev225

  ==> Input File <==

--------------------------------------------------------------------------
#psi4
#
memory 32 gb

molecule  {
0 1
  O        1.4499930     1.0206980    -0.0000040
  O       -1.2728880     1.6029860     0.0000050
  N       -1.7320990    -0.6616920    -0.0000100
  N        1.0253160    -1.1826400     0.0000030
  C        0.5135064     0.0505342    -0.0000011
  C       -0.9157640     0.4229260    -0.0000010
  C       -3.1757780    -0.5360000     0.0000030
  C        2.6470610     0.3608020    -0.0000010
  C        2.3925880    -0.9806700     0.0000040
  H       -1.2896900    -1.5740920    -0.0000030
  H       -3.6075680    -0.9997290     0.8912900
  H       -3.6075830    -0.9997540    -0.8912630
  H       -3.4076560     0.5288570    -0.0000100
  H        3.5343540     0.9743460    -0.0000030
  H        3.0931030    -1.8035030     0.0000080
units angstrom
no_reorient  #important for SAPT in psi4, default
symmetry c1  #important for SAPT in psi4, default
}

set PROPERTIES_ORIGIN ["COM"]
properties('MP2/aug-cc-pvtz', properties = ['dipole'])
--------------------------------------------------------------------------

    Molecular point group: c1
  Charge       = 0
  Multiplicity = 1
  Basis Set: AUG-CC-PVTZ
    Blend: AUG-CC-PVTZ
  Basis Set: (AUG-CC-PVTZ AUX)
    Blend: AUG-CC-PVTZ-JKFIT

    Orbital Energies [Eh]
    ---------------------

    Doubly Occupied:

       1A    -20.661541     2A    -20.533066     3A    -15.597221
       4A    -15.596965     5A    -11.374211     6A    -11.358527
       7A    -11.316213     8A    -11.282115     9A    -11.265938
      10A     -1.506318    11A     -1.385815    12A     -1.257055
      13A     -1.232342    14A     -1.063080    15A     -0.971440
      16A     -0.875920    17A     -0.849234    18A     -0.794139
      19A     -0.774820    20A     -0.681935    21A     -0.681116
      22A     -0.656992    23A     -0.628015    24A     -0.620154
      25A     -0.599756    26A     -0.590856    27A     -0.554274
      28A     -0.546846    29A     -0.488405    30A     -0.468570
      31A     -0.448293    32A     -0.399914    33A     -0.353421

  @DF-RHF Final Energy:  -451.60793286104121

   => Energetics <=

    Nuclear Repulsion Energy =            433.1068223580516019
    One-Electron Energy =               -1474.6004956851613770
    Two-Electron Energy =                 589.8857404660685688
    Total Energy =                       -451.6079328610411494
  Basis Set: (AUG-CC-PVTZ AUX)
    Blend: AUG-CC-PVTZ-RI
    Molecular point group: c1

    Geometry (in Angstrom), charge = 0, multiplicity = 1:

       Center              X                  Y                   Z               Mass
    ------------   -----------------  -----------------  -----------------  -----------------
         O            1.409144933426     0.988596220317    -0.000003872441    15.994914619570
         O           -1.313736066574     1.570884220317     0.000005127559    15.994914619570
         N           -1.772947066574    -0.693793779683    -0.000009872441    14.003074004430
         N            0.984467933426    -1.214741779683     0.000003127559    14.003074004430
         C            0.472658333426     0.018432420317    -0.000000972441    12.000000000000
         C           -0.956612066574     0.390824220317    -0.000000872441    12.000000000000
         C           -3.216626066574    -0.568101779683     0.000003127559    12.000000000000
         C            2.606212933426     0.328700220317    -0.000000872441    12.000000000000
         C            2.351739933426    -1.012771779683     0.000004127559    12.000000000000
         H           -1.330538066574    -1.606193779683    -0.000002872441     1.007825032230
         H           -3.648416066574    -1.031830779683     0.891290127559     1.007825032230
         H           -3.648431066574    -1.031855779683    -0.891262872441     1.007825032230
         H           -3.448504066574     0.496755220317    -0.000009872441     1.007825032230
         H            3.493505933426     0.942244220317    -0.000002872441     1.007825032230
         H            3.052254933426    -1.835604779683     0.000008127559     1.007825032230

  Basis Set: AUG-CC-PVTZ
    Blend: AUG-CC-PVTZ
  Basis Set: (AUG-CC-PVTZ AUX)
    Blend: AUG-CC-PVTZ-JKFIT
	 Reference Energy          =    -451.6079328610412063 [Eh]
	 Singles Energy            =      -0.0000000000000000 [Eh]
	 Same-Spin Energy          =      -0.4627075349052949 [Eh]
	 Opposite-Spin Energy      =      -1.3926490214847851 [Eh]
	 Correlation Energy        =      -1.8553565563900800 [Eh]
	 Total Energy              =    -453.4632894174312696 [Eh]

	 ================> DF-SCS-MP2 Energies <==================
	-----------------------------------------------------------
	 SCS Same-Spin Scale       =       0.3333333333333333 [-]
	 SCS Opposite-Spin Scale   =       1.2000000000000000 [-]
	 SCS Same-Spin Energy      =      -0.1542358449684316 [Eh]
	 SCS Opposite-Spin Energy  =      -1.6711788257817421 [Eh]
	 SCS Correlation Energy    =      -1.8254146707501737 [Eh]
	 SCS Total Energy          =    -453.4333475317913553 [Eh]
	-----------------------------------------------------------

  Dipole Moment: [D]
     X:     1.1931      Y:    -2.6610      Z:     0.0000     Total:     2.9163

*** Psi4 exiting successfully. Buy a developer a beer!
