                               Psi4 1.3.2 release

  ==> Input File <==

--------------------------------------------------------------------------
#psi4
#
memory 32 gb

molecule  {
0 1
  O        1.5482454     0.9181940    -0.0000037
  O       -1.2728880     1.6029860     0.0000050
  N       -1.7320990    -0.6616920    -0.0000100
  N        1.0253160    -1.1826400     0.0000030
  C        0.5211730     0.0320620    -0.0000010
  C       -0.9157640     0.4229260    -0.0000010
  C       -3.1757780    -0.5360000     0.0000030
  C        2.6470610     0.3608020    -0.0000010
  C        2.3925880    -0.9806700     0.0000040
  H       -1.2896900    -1.5740920    -0.0000030
  H       -3.6075680    -0.9997290     0.8912900
  H       -3.6075830    -0.9997540    -0.8912630
  H       -3.4076560     0.5288570    -0.0000100
  H        3.5343540     0.9743460    -0.0000030
  H        3.0931030    -1.8035030     0.0000080
units angstrom
no_reorient  #important for SAPT in psi4, default
symmetry c1  #important for SAPT in psi4, default
}

set PROPERTIES_ORIGIN ["COM"]
properties('MP2/aug-cc-pvtz', properties = ['dipole'])
--------------------------------------------------------------------------

    Molecular point group: c1
  Charge       = 0
  Multiplicity = 1
  Basis Set: AUG-CC-PVTZ
    Blend: AUG-CC-PVTZ
  Basis Set: (AUG-CC-PVTZ AUX)
    Blend: AUG-CC-PVTZ-JKFIT

    Orbital Energies [Eh]
    ---------------------

    Doubly Occupied:

       1A    -20.661378     2A    -20.532870     3A    -15.597331
       4A    -15.596526     5A    -11.378223     6A    -11.349647
       7A    -11.311252     8A    -11.266671     9A    -11.266257
      10A     -1.557321    11A     -1.386673    12A     -1.261318
      13A     -1.234533    14A     -1.071380    15A     -0.973999
      16A     -0.883344    17A     -0.856687    18A     -0.798313
      19A     -0.782318    20A     -0.708711    21A     -0.707204
      22A     -0.655374    23A     -0.630634    24A     -0.620957
      25A     -0.598758    26A     -0.569639    27A     -0.554607
      28A     -0.550180    29A     -0.490355    30A     -0.468685
      31A     -0.448209    32A     -0.400427    33A     -0.346780

  @DF-RHF Final Energy:  -451.59550805002493

   => Energetics <=

    Nuclear Repulsion Energy =            435.5615980277798371
    One-Electron Energy =               -1479.2810915690661204
    Two-Electron Energy =                 592.1239854912613509
    Total Energy =                       -451.5955080500249323
  Basis Set: (AUG-CC-PVTZ AUX)
    Blend: AUG-CC-PVTZ-RI
    Molecular point group: c1

    Geometry (in Angstrom), charge = 0, multiplicity = 1:

       Center              X                  Y                   Z               Mass
    ------------   -----------------  -----------------  -----------------  -----------------
         O            1.494199147832     0.900858690487    -0.000003620032    15.994914619570
         O           -1.326934252168     1.585650690487     0.000005079968    15.994914619570
         N           -1.786145252168    -0.679027309513    -0.000009920032    14.003074004430
         N            0.971269747832    -1.199975309513     0.000003079968    14.003074004430
         C            0.467126747832     0.014726690487    -0.000000920032    12.000000000000
         C           -0.969810252168     0.405590690487    -0.000000920032    12.000000000000
         C           -3.229824252168    -0.553335309513     0.000003079968    12.000000000000
         C            2.593014747832     0.343466690487    -0.000000920032    12.000000000000
         C            2.338541747832    -0.998005309513     0.000004079968    12.000000000000
         H           -1.343736252168    -1.591427309513    -0.000002920032     1.007825032230
         H           -3.661614252168    -1.017064309513     0.891290079968     1.007825032230
         H           -3.661629252168    -1.017089309513    -0.891262920032     1.007825032230
         H           -3.461702252168     0.511521690487    -0.000009920032     1.007825032230
         H            3.480307747832     0.957010690487    -0.000002920032     1.007825032230
         H            3.039056747832    -1.820838309513     0.000008079968     1.007825032230

  Basis Set: AUG-CC-PVTZ
    Blend: AUG-CC-PVTZ
  Basis Set: (AUG-CC-PVTZ AUX)
    Blend: AUG-CC-PVTZ-JKFIT
	 Reference Energy          =    -451.5955080500249323 [Eh]
	 Singles Energy            =      -0.0000000000000000 [Eh]
	 Same-Spin Energy          =      -0.4622492140387827 [Eh]
	 Opposite-Spin Energy      =      -1.3877954887842727 [Eh]
	 Correlation Energy        =      -1.8500447028230553 [Eh]
	 Total Energy              =    -453.4455527528480161 [Eh]

	 ================> DF-SCS-MP2 Energies <==================
	-----------------------------------------------------------
	 SCS Same-Spin Scale       =       0.3333333333333333 [-]
	 SCS Opposite-Spin Scale   =       1.2000000000000000 [-]
	 SCS Same-Spin Energy      =      -0.1540830713462609 [Eh]
	 SCS Opposite-Spin Energy  =      -1.6653545865411272 [Eh]
	 SCS Correlation Energy    =      -1.8194376578873881 [Eh]
	 SCS Total Energy          =    -453.4149457079122953 [Eh]
	-----------------------------------------------------------

  Dipole Moment: [D]
     X:     1.0236      Y:    -2.3220      Z:     0.0000     Total:     2.5376

*** Psi4 exiting successfully. Buy a developer a beer!
