                               Psi4 1.3.2 release

  ==> Input File <==

--------------------------------------------------------------------------
#psi4
#
memory 32 gb

molecule  {
0 1
  O        1.4499930     1.0206980    -0.0000040
  O       -1.2728880     1.6029860     0.0000050
  N       -1.7320990    -0.6616920    -0.0000100
  N        1.0290491    -1.2064714     0.0000031
  C        0.5211730     0.0320620    -0.0000010
  C       -0.9157640     0.4229260    -0.0000010
  C       -3.1757780    -0.5360000     0.0000030
  C        2.6470610     0.3608020    -0.0000010
  C        2.3925880    -0.9806700     0.0000040
  H       -1.2896900    -1.5740920    -0.0000030
  H       -3.6075680    -0.9997290     0.8912900
  H       -3.6075830    -0.9997540    -0.8912630
  H       -3.4076560     0.5288570    -0.0000100
  H        3.5343540     0.9743460    -0.0000030
  H        3.0931030    -1.8035030     0.0000080
units angstrom
no_reorient  #important for SAPT in psi4, default
symmetry c1  #important for SAPT in psi4, default
}

set PROPERTIES_ORIGIN ["COM"]
properties('MP2/aug-cc-pvtz', properties = ['dipole'])
--------------------------------------------------------------------------

    Molecular point group: c1
  Charge       = 0
  Multiplicity = 1
  Basis Set: AUG-CC-PVTZ
    Blend: AUG-CC-PVTZ
  Basis Set: (AUG-CC-PVTZ AUX)
    Blend: AUG-CC-PVTZ-JKFIT

    Orbital Energies [Eh]
    ---------------------

    Doubly Occupied:

       1A    -20.662334     2A    -20.533749     3A    -15.599909
       4A    -15.597573     5A    -11.375435     6A    -11.361424
       7A    -11.315856     8A    -11.282018     9A    -11.266079
      10A     -1.503898    11A     -1.385695    12A     -1.258081
      13A     -1.233579    14A     -1.060381    15A     -0.971136
      16A     -0.874965    17A     -0.847615    18A     -0.794740
      19A     -0.774187    20A     -0.680090    21A     -0.679594
      22A     -0.656480    23A     -0.628155    24A     -0.618373
      25A     -0.597763    26A     -0.592256    27A     -0.554514
      28A     -0.546799    29A     -0.492974    30A     -0.470148
      31A     -0.448166    32A     -0.400286    33A     -0.352825

  @DF-RHF Final Energy:  -451.60646485250561

   => Energetics <=

    Nuclear Repulsion Energy =            432.5048212360064213
    One-Electron Energy =               -1473.3884165038648462
    Two-Electron Energy =                 589.2771304153528718
    Total Energy =                       -451.6064648525056100
  Basis Set: (AUG-CC-PVTZ AUX)
    Blend: AUG-CC-PVTZ-RI
    Molecular point group: c1

    Geometry (in Angstrom), charge = 0, multiplicity = 1:

       Center              X                  Y                   Z               Mass
    ------------   -----------------  -----------------  -----------------  -----------------
         O            1.408000291053     0.993002491015    -0.000003893071    15.994914619570
         O           -1.314880708947     1.575290491015     0.000005106929    15.994914619570
         N           -1.774091708947    -0.689387508985    -0.000009893071    14.003074004430
         N            0.987056391053    -1.234166908985     0.000003206929    14.003074004430
         C            0.479180291053     0.004366491015    -0.000000893071    12.000000000000
         C           -0.957756708947     0.395230491015    -0.000000893071    12.000000000000
         C           -3.217770708947    -0.563695508985     0.000003106929    12.000000000000
         C            2.605068291053     0.333106491015    -0.000000893071    12.000000000000
         C            2.350595291053    -1.008365508985     0.000004106929    12.000000000000
         H           -1.331682708947    -1.601787508985    -0.000002893071     1.007825032230
         H           -3.649560708947    -1.027424508985     0.891290106929     1.007825032230
         H           -3.649575708947    -1.027449508985    -0.891262893071     1.007825032230
         H           -3.449648708947     0.501161491015    -0.000009893071     1.007825032230
         H            3.492361291053     0.946650491015    -0.000002893071     1.007825032230
         H            3.051110291053    -1.831198508985     0.000008106929     1.007825032230

  Basis Set: AUG-CC-PVTZ
    Blend: AUG-CC-PVTZ
  Basis Set: (AUG-CC-PVTZ AUX)
    Blend: AUG-CC-PVTZ-JKFIT
	 Reference Energy          =    -451.6064648525056100 [Eh]
	 Singles Energy            =      -0.0000000000000000 [Eh]
	 Same-Spin Energy          =      -0.4628945007276375 [Eh]
	 Opposite-Spin Energy      =      -1.3933694389892584 [Eh]
	 Correlation Energy        =      -1.8562639397168958 [Eh]
	 Total Energy              =    -453.4627287922224923 [Eh]

	 ================> DF-SCS-MP2 Energies <==================
	-----------------------------------------------------------
	 SCS Same-Spin Scale       =       0.3333333333333333 [-]
	 SCS Opposite-Spin Scale   =       1.2000000000000000 [-]
	 SCS Same-Spin Energy      =      -0.1542981669092125 [Eh]
	 SCS Opposite-Spin Energy  =      -1.6720433267871100 [Eh]
	 SCS Correlation Energy    =      -1.8263414936963225 [Eh]
	 SCS Total Energy          =    -453.4328063462019145 [Eh]
	-----------------------------------------------------------

  Dipole Moment: [D]
     X:     1.1578      Y:    -2.6457      Z:     0.0000     Total:     2.8879

*** Psi4 exiting successfully. Buy a developer a beer!
