                               Psi4 1.3.2 release

  ==> Input File <==

--------------------------------------------------------------------------
#psi4
#
memory 32 gb

molecule  {
0 1
  O        1.4499930     1.0206980    -0.0000040
  O       -1.2522387     1.6090389     0.0000051
  N       -1.7320990    -0.6616920    -0.0000100
  N        1.0253160    -1.1826400     0.0000030
  C        0.5211730     0.0320620    -0.0000010
  C       -0.9157640     0.4229260    -0.0000010
  C       -3.1757780    -0.5360000     0.0000030
  C        2.6470610     0.3608020    -0.0000010
  C        2.3925880    -0.9806700     0.0000040
  H       -1.2896900    -1.5740920    -0.0000030
  H       -3.6075680    -0.9997290     0.8912900
  H       -3.6075830    -0.9997540    -0.8912630
  H       -3.4076560     0.5288570    -0.0000100
  H        3.5343540     0.9743460    -0.0000030
  H        3.0931030    -1.8035030     0.0000080
units angstrom
no_reorient  #important for SAPT in psi4, default
symmetry c1  #important for SAPT in psi4, default
}

set PROPERTIES_ORIGIN ["COM"]
properties('MP2/aug-cc-pvtz', properties = ['dipole'])
--------------------------------------------------------------------------

    Molecular point group: c1
  Charge       = 0
  Multiplicity = 1
  Basis Set: AUG-CC-PVTZ
    Blend: AUG-CC-PVTZ
  Basis Set: (AUG-CC-PVTZ AUX)
    Blend: AUG-CC-PVTZ-JKFIT

    Orbital Energies [Eh]
    ---------------------

    Doubly Occupied:

       1A    -20.658479     2A    -20.533803     3A    -15.598264
       4A    -15.595394     5A    -11.375020     6A    -11.356501
       7A    -11.315482     8A    -11.281109     9A    -11.266715
      10A     -1.502968    11A     -1.385247    12A     -1.261220
      13A     -1.235455    14A     -1.060801    15A     -0.971433
      16A     -0.873432    17A     -0.849031    18A     -0.793957
      19A     -0.774023    20A     -0.680200    21A     -0.679510
      22A     -0.657015    23A     -0.628385    24A     -0.620821
      25A     -0.597813    26A     -0.590417    27A     -0.555362
      28A     -0.546873    29A     -0.490447    30A     -0.471052
      31A     -0.447357    32A     -0.400759    33A     -0.354123

  @DF-RHF Final Energy:  -451.60968222164587

   => Energetics <=

    Nuclear Repulsion Energy =            433.2006418768609137
    One-Electron Energy =               -1474.8037143643716718
    Two-Electron Energy =                 589.9933902658650595
    Total Energy =                       -451.6096822216458122
  Basis Set: (AUG-CC-PVTZ AUX)
    Blend: AUG-CC-PVTZ-RI
    Molecular point group: c1

    Geometry (in Angstrom), charge = 0, multiplicity = 1:

       Center              X                  Y                   Z               Mass
    ------------   -----------------  -----------------  -----------------  -----------------
         O            1.405794622552     0.989586762063    -0.000003894651    15.994914619570
         O           -1.296437077448     1.577927662063     0.000005205349    15.994914619570
         N           -1.776297377448    -0.692803237937    -0.000009894651    14.003074004430
         N            0.981117622552    -1.213751237937     0.000003105349    14.003074004430
         C            0.476974622552     0.000950762063    -0.000000894651    12.000000000000
         C           -0.959962377448     0.391814762063    -0.000000894651    12.000000000000
         C           -3.219976377448    -0.567111237937     0.000003105349    12.000000000000
         C            2.602862622552     0.329690762063    -0.000000894651    12.000000000000
         C            2.348389622552    -1.011781237937     0.000004105349    12.000000000000
         H           -1.333888377448    -1.605203237937    -0.000002894651     1.007825032230
         H           -3.651766377448    -1.030840237937     0.891290105349     1.007825032230
         H           -3.651781377448    -1.030865237937    -0.891262894651     1.007825032230
         H           -3.451854377448     0.497745762063    -0.000009894651     1.007825032230
         H            3.490155622552     0.943234762063    -0.000002894651     1.007825032230
         H            3.048904622552    -1.834614237937     0.000008105349     1.007825032230

  Basis Set: AUG-CC-PVTZ
    Blend: AUG-CC-PVTZ
  Basis Set: (AUG-CC-PVTZ AUX)
    Blend: AUG-CC-PVTZ-JKFIT
	 Reference Energy          =    -451.6096822216458690 [Eh]
	 Singles Energy            =      -0.0000000000000000 [Eh]
	 Same-Spin Energy          =      -0.4621489153945738 [Eh]
	 Opposite-Spin Energy      =      -1.3918882158424299 [Eh]
	 Correlation Energy        =      -1.8540371312370039 [Eh]
	 Total Energy              =    -453.4637193528828902 [Eh]

	 ================> DF-SCS-MP2 Energies <==================
	-----------------------------------------------------------
	 SCS Same-Spin Scale       =       0.3333333333333333 [-]
	 SCS Opposite-Spin Scale   =       1.2000000000000000 [-]
	 SCS Same-Spin Energy      =      -0.1540496384648579 [Eh]
	 SCS Opposite-Spin Energy  =      -1.6702658590109158 [Eh]
	 SCS Correlation Energy    =      -1.8243154974757738 [Eh]
	 SCS Total Energy          =    -453.4339977191216349 [Eh]
	-----------------------------------------------------------

  Dipole Moment: [D]
     X:     1.0757      Y:    -2.7037      Z:     0.0000     Total:     2.9098

*** Psi4 exiting successfully. Buy a developer a beer!
