                               Psi4 1.3.2 release

  ==> Input File <==

--------------------------------------------------------------------------
#psi4
#
memory 32 gb

molecule  {
0 1
  O        1.4499930     1.0206980    -0.0000040
  O       -1.2728880     1.6029860     0.0000050
  N       -1.7320990    -0.6616920    -0.0000100
  N        1.0253160    -1.1826400     0.0000030
  C        0.5211730     0.0320620    -0.0000010
  C       -0.9157640     0.4229260    -0.0000010
  C       -3.1757780    -0.5360000     0.0000030
  C        2.6470610     0.3608020    -0.0000010
  C        2.2996315    -0.9596511     0.0000039
  H       -1.2896900    -1.5740920    -0.0000030
  H       -3.6075680    -0.9997290     0.8912900
  H       -3.6075830    -0.9997540    -0.8912630
  H       -3.4076560     0.5288570    -0.0000100
  H        3.5343540     0.9743460    -0.0000030
  H        3.0931030    -1.8035030     0.0000080
units angstrom
no_reorient  #important for SAPT in psi4, default
symmetry c1  #important for SAPT in psi4, default
}

set PROPERTIES_ORIGIN ["COM"]
properties('MP2/aug-cc-pvtz', properties = ['dipole'])
--------------------------------------------------------------------------

    Molecular point group: c1
  Charge       = 0
  Multiplicity = 1
  Basis Set: AUG-CC-PVTZ
    Blend: AUG-CC-PVTZ
  Basis Set: (AUG-CC-PVTZ AUX)
    Blend: AUG-CC-PVTZ-JKFIT

    Orbital Energies [Eh]
    ---------------------

    Doubly Occupied:

       1A    -20.662007     2A    -20.532593     3A    -15.597774
       4A    -15.593740     5A    -11.374429     6A    -11.358283
       7A    -11.311233     8A    -11.281195     9A    -11.266244
      10A     -1.509700    11A     -1.384894    12A     -1.285711
      13A     -1.240660    14A     -1.060261    15A     -0.971066
      16A     -0.874075    17A     -0.850226    18A     -0.801121
      19A     -0.775627    20A     -0.685009    21A     -0.681023
      22A     -0.656485    23A     -0.628399    24A     -0.622958
      25A     -0.596854    26A     -0.577514    27A     -0.554415
      28A     -0.546329    29A     -0.494763    30A     -0.488250
      31A     -0.447417    32A     -0.400455    33A     -0.347233

  @DF-RHF Final Energy:  -451.59648767937415

   => Energetics <=

    Nuclear Repulsion Energy =            435.2154576924694425
    One-Electron Energy =               -1478.7080053206350385
    Two-Electron Energy =                 591.8960599487913896
    Total Energy =                       -451.5964876793741496
  Basis Set: (AUG-CC-PVTZ AUX)
    Blend: AUG-CC-PVTZ-RI
    Molecular point group: c1

    Geometry (in Angstrom), charge = 0, multiplicity = 1:

       Center              X                  Y                   Z               Mass
    ------------   -----------------  -----------------  -----------------  -----------------
         O            1.417265014582     0.988353760065    -0.000003872441    15.994914619570
         O           -1.305615985418     1.570641760065     0.000005127559    15.994914619570
         N           -1.764826985418    -0.694036239935    -0.000009872441    14.003074004430
         N            0.992588014582    -1.214984239935     0.000003127559    14.003074004430
         C            0.488445014582    -0.000282239935    -0.000000872441    12.000000000000
         C           -0.948491985418     0.390581760065    -0.000000872441    12.000000000000
         C           -3.208505985418    -0.568344239935     0.000003127559    12.000000000000
         C            2.614333014582     0.328457760065    -0.000000872441    12.000000000000
         C            2.266903514582    -0.991995339935     0.000004027559    12.000000000000
         H           -1.322417985418    -1.606436239935    -0.000002872441     1.007825032230
         H           -3.640295985418    -1.032073239935     0.891290127559     1.007825032230
         H           -3.640310985418    -1.032098239935    -0.891262872441     1.007825032230
         H           -3.440383985418     0.496512760065    -0.000009872441     1.007825032230
         H            3.501626014582     0.942001760065    -0.000002872441     1.007825032230
         H            3.060375014582    -1.835847239935     0.000008127559     1.007825032230

  Basis Set: AUG-CC-PVTZ
    Blend: AUG-CC-PVTZ
  Basis Set: (AUG-CC-PVTZ AUX)
    Blend: AUG-CC-PVTZ-JKFIT
	 Reference Energy          =    -451.5964876793741496 [Eh]
	 Singles Energy            =      -0.0000000000000000 [Eh]
	 Same-Spin Energy          =      -0.4637021708635470 [Eh]
	 Opposite-Spin Energy      =      -1.3924146912669415 [Eh]
	 Correlation Energy        =      -1.8561168621304884 [Eh]
	 Total Energy              =    -453.4526045415046269 [Eh]

	 ================> DF-SCS-MP2 Energies <==================
	-----------------------------------------------------------
	 SCS Same-Spin Scale       =       0.3333333333333333 [-]
	 SCS Opposite-Spin Scale   =       1.2000000000000000 [-]
	 SCS Same-Spin Energy      =      -0.1545673902878490 [Eh]
	 SCS Opposite-Spin Energy  =      -1.6708976295203297 [Eh]
	 SCS Correlation Energy    =      -1.8254650198081788 [Eh]
	 SCS Total Energy          =    -453.4219526991823273 [Eh]
	-----------------------------------------------------------

  Dipole Moment: [D]
     X:     1.1125      Y:    -2.6526      Z:     0.0000     Total:     2.8764

*** Psi4 exiting successfully. Buy a developer a beer!
