                               Psi4 1.3.2 release

  ==> Input File <==

--------------------------------------------------------------------------
#psi4
#
memory 32 gb

molecule  {
0 1
  O        1.4499930     1.0206980    -0.0000040
  O       -1.2728880     1.6029860     0.0000050
  N       -1.7320990    -0.6616920    -0.0000100
  N        1.0253160    -1.1826400     0.0000030
  C        0.4872359     0.0650796    -0.0000011
  C       -0.9157640     0.4229260    -0.0000010
  C       -3.1757780    -0.5360000     0.0000030
  C        2.6470610     0.3608020    -0.0000010
  C        2.3925880    -0.9806700     0.0000040
  H       -1.2896900    -1.5740920    -0.0000030
  H       -3.6075680    -0.9997290     0.8912900
  H       -3.6075830    -0.9997540    -0.8912630
  H       -3.4076560     0.5288570    -0.0000100
  H        3.5343540     0.9743460    -0.0000030
  H        3.0931030    -1.8035030     0.0000080
units angstrom
no_reorient  #important for SAPT in psi4, default
symmetry c1  #important for SAPT in psi4, default
}

set PROPERTIES_ORIGIN ["COM"]
properties('MP2/aug-cc-pvtz', properties = ['dipole'])
--------------------------------------------------------------------------

    Molecular point group: c1
  Charge       = 0
  Multiplicity = 1
  Basis Set: AUG-CC-PVTZ
    Blend: AUG-CC-PVTZ
  Basis Set: (AUG-CC-PVTZ AUX)
    Blend: AUG-CC-PVTZ-JKFIT

    Orbital Energies [Eh]
    ---------------------

    Doubly Occupied:

       1A    -20.661794     2A    -20.532768     3A    -15.599815
       4A    -15.597063     5A    -11.372702     6A    -11.359460
       7A    -11.317762     8A    -11.282477     9A    -11.265926
      10A     -1.501875    11A     -1.386803    12A     -1.253685
      13A     -1.228108    14A     -1.065755    15A     -0.972830
      16A     -0.880389    17A     -0.847341    18A     -0.793526
      19A     -0.774566    20A     -0.684454    21A     -0.678792
      22A     -0.657910    23A     -0.627891    24A     -0.618853
      25A     -0.602091    26A     -0.588988    27A     -0.554241
      28A     -0.547747    29A     -0.484686    30A     -0.465011
      31A     -0.449956    32A     -0.399970    33A     -0.351653

  @DF-RHF Final Energy:  -451.60229118042184

   => Energetics <=

    Nuclear Repulsion Energy =            432.9963810993104403
    One-Electron Energy =               -1474.3835740146205353
    Two-Electron Energy =                 589.7849017348883081
    Total Energy =                       -451.6022911804218438
  Basis Set: (AUG-CC-PVTZ AUX)
    Blend: AUG-CC-PVTZ-RI
    Molecular point group: c1

    Geometry (in Angstrom), charge = 0, multiplicity = 1:

       Center              X                  Y                   Z               Mass
    ------------   -----------------  -----------------  -----------------  -----------------
         O            1.411646033697     0.987211415922    -0.000003872441    15.994914619570
         O           -1.311234966303     1.569499415922     0.000005127559    15.994914619570
         N           -1.770445966303    -0.695178584078    -0.000009872441    14.003074004430
         N            0.986969033697    -1.216126584078     0.000003127559    14.003074004430
         C            0.448888933697     0.031593015922    -0.000000972441    12.000000000000
         C           -0.954110966303     0.389439415922    -0.000000872441    12.000000000000
         C           -3.214124966303    -0.569486584078     0.000003127559    12.000000000000
         C            2.608714033697     0.327315415922    -0.000000872441    12.000000000000
         C            2.354241033697    -1.014156584078     0.000004127559    12.000000000000
         H           -1.328036966303    -1.607578584078    -0.000002872441     1.007825032230
         H           -3.645914966303    -1.033215584078     0.891290127559     1.007825032230
         H           -3.645929966303    -1.033240584078    -0.891262872441     1.007825032230
         H           -3.446002966303     0.495370415922    -0.000009872441     1.007825032230
         H            3.496007033697     0.940859415922    -0.000002872441     1.007825032230
         H            3.054756033697    -1.836989584078     0.000008127559     1.007825032230

  Basis Set: AUG-CC-PVTZ
    Blend: AUG-CC-PVTZ
  Basis Set: (AUG-CC-PVTZ AUX)
    Blend: AUG-CC-PVTZ-JKFIT
	 Reference Energy          =    -451.6022911804218438 [Eh]
	 Singles Energy            =      -0.0000000000000000 [Eh]
	 Same-Spin Energy          =      -0.4638111107749118 [Eh]
	 Opposite-Spin Energy      =      -1.3944642379743573 [Eh]
	 Correlation Energy        =      -1.8582753487492689 [Eh]
	 Total Energy              =    -453.4605665291711034 [Eh]

	 ================> DF-SCS-MP2 Energies <==================
	-----------------------------------------------------------
	 SCS Same-Spin Scale       =       0.3333333333333333 [-]
	 SCS Opposite-Spin Scale   =       1.2000000000000000 [-]
	 SCS Same-Spin Energy      =      -0.1546037035916372 [Eh]
	 SCS Opposite-Spin Energy  =      -1.6733570855692286 [Eh]
	 SCS Correlation Energy    =      -1.8279607891608658 [Eh]
	 SCS Total Energy          =    -453.4302519695826845 [Eh]
	-----------------------------------------------------------

  Dipole Moment: [D]
     X:     1.2430      Y:    -2.6494      Z:     0.0000     Total:     2.9265

*** Psi4 exiting successfully. Buy a developer a beer!
