                               Psi4 1.3.2 release

  ==> Input File <==

--------------------------------------------------------------------------
#psi4
#
memory 32 gb

molecule  {
0 1
  O        1.4499930     1.0206980    -0.0000040
  O       -1.2728880     1.6029860     0.0000050
  N       -1.7320990    -0.6616920    -0.0000100
  N        1.0253160    -1.1826400     0.0000030
  C        0.3969638    -0.0272896    -0.0000010
  C       -0.9157640     0.4229260    -0.0000010
  C       -3.1757780    -0.5360000     0.0000030
  C        2.6470610     0.3608020    -0.0000010
  C        2.3925880    -0.9806700     0.0000040
  H       -1.2896900    -1.5740920    -0.0000030
  H       -3.6075680    -0.9997290     0.8912900
  H       -3.6075830    -0.9997540    -0.8912630
  H       -3.4076560     0.5288570    -0.0000100
  H        3.5343540     0.9743460    -0.0000030
  H        3.0931030    -1.8035030     0.0000080
units angstrom
no_reorient  #important for SAPT in psi4, default
symmetry c1  #important for SAPT in psi4, default
}

set PROPERTIES_ORIGIN ["COM"]
properties('MP2/aug-cc-pvtz', properties = ['dipole'])
--------------------------------------------------------------------------

    Molecular point group: c1
  Charge       = 0
  Multiplicity = 1
  Basis Set: AUG-CC-PVTZ
    Blend: AUG-CC-PVTZ
  Basis Set: (AUG-CC-PVTZ AUX)
    Blend: AUG-CC-PVTZ-JKFIT

    Orbital Energies [Eh]
    ---------------------

    Doubly Occupied:

       1A    -20.639395     2A    -20.534610     3A    -15.610597
       4A    -15.597559     5A    -11.371175     6A    -11.357887
       7A    -11.324552     8A    -11.280529     9A    -11.266047
      10A     -1.456672    11A     -1.387709    12A     -1.263256
      13A     -1.233693    14A     -1.069372    15A     -0.979539
      16A     -0.889664    17A     -0.839923    18A     -0.790078
      19A     -0.763469    20A     -0.685277    21A     -0.662217
      22A     -0.660796    23A     -0.624016    24A     -0.619988
      25A     -0.604973    26A     -0.569749    27A     -0.555073
      28A     -0.550339    29A     -0.483380    30A     -0.470190
      31A     -0.452305    32A     -0.401809    33A     -0.352295

  @DF-RHF Final Energy:  -451.57826235173644

   => Energetics <=

    Nuclear Repulsion Energy =            432.6721302348831841
    One-Electron Energy =               -1473.8045165710207129
    Two-Electron Energy =                 589.5541239844011443
    Total Energy =                       -451.5782623517364982
  Basis Set: (AUG-CC-PVTZ AUX)
    Blend: AUG-CC-PVTZ-RI
    Molecular point group: c1

    Geometry (in Angstrom), charge = 0, multiplicity = 1:

       Center              X                  Y                   Z               Mass
    ------------   -----------------  -----------------  -----------------  -----------------
         O            1.420240448489     0.996005486501    -0.000003881961    15.994914619570
         O           -1.302640551511     1.578293486501     0.000005118039    15.994914619570
         N           -1.761851551511    -0.686384513499    -0.000009881961    14.003074004430
         N            0.995563448489    -1.207332513499     0.000003118039    14.003074004430
         C            0.367211248489    -0.051982113499    -0.000000881961    12.000000000000
         C           -0.945516551511     0.398233486501    -0.000000881961    12.000000000000
         C           -3.205530551511    -0.560692513499     0.000003118039    12.000000000000
         C            2.617308448489     0.336109486501    -0.000000881961    12.000000000000
         C            2.362835448489    -1.005362513499     0.000004118039    12.000000000000
         H           -1.319442551511    -1.598784513499    -0.000002881961     1.007825032230
         H           -3.637320551511    -1.024421513499     0.891290118039     1.007825032230
         H           -3.637335551511    -1.024446513499    -0.891262881961     1.007825032230
         H           -3.437408551511     0.504164486501    -0.000009881961     1.007825032230
         H            3.504601448489     0.949653486501    -0.000002881961     1.007825032230
         H            3.063350448489    -1.828195513499     0.000008118039     1.007825032230

  Basis Set: AUG-CC-PVTZ
    Blend: AUG-CC-PVTZ
  Basis Set: (AUG-CC-PVTZ AUX)
    Blend: AUG-CC-PVTZ-JKFIT
	 Reference Energy          =    -451.5782623517364414 [Eh]
	 Singles Energy            =      -0.0000000000000000 [Eh]
	 Same-Spin Energy          =      -0.4657931973495478 [Eh]
	 Opposite-Spin Energy      =      -1.3986191204660920 [Eh]
	 Correlation Energy        =      -1.8644123178156398 [Eh]
	 Total Energy              =    -453.4426746695521047 [Eh]

	 ================> DF-SCS-MP2 Energies <==================
	-----------------------------------------------------------
	 SCS Same-Spin Scale       =       0.3333333333333333 [-]
	 SCS Opposite-Spin Scale   =       1.2000000000000000 [-]
	 SCS Same-Spin Energy      =      -0.1552643991165159 [Eh]
	 SCS Opposite-Spin Energy  =      -1.6783429445593103 [Eh]
	 SCS Correlation Energy    =      -1.8336073436758262 [Eh]
	 SCS Total Energy          =    -453.4118696954122925 [Eh]
	-----------------------------------------------------------

  Dipole Moment: [D]
     X:     1.0269      Y:    -2.8993      Z:     0.0000     Total:     3.0758

*** Psi4 exiting successfully. Buy a developer a beer!
