                               Psi4 1.3.2 release

  ==> Input File <==

--------------------------------------------------------------------------
#psi4
#
memory 32 gb

molecule  {
0 1
  O        1.4499930     1.0206980    -0.0000040
  O       -1.2728880     1.6029860     0.0000050
  N       -1.7320990    -0.6616920    -0.0000100
  N        1.0253160    -1.1826400     0.0000030
  C        0.5211730     0.0320620    -0.0000010
  C       -0.9157640     0.4229260    -0.0000010
  C       -3.1757780    -0.5360000     0.0000030
  C        2.6704342     0.3561565    -0.0000010
  C        2.3925880    -0.9806700     0.0000040
  H       -1.2896900    -1.5740920    -0.0000030
  H       -3.6075680    -0.9997290     0.8912900
  H       -3.6075830    -0.9997540    -0.8912630
  H       -3.4076560     0.5288570    -0.0000100
  H        3.5343540     0.9743460    -0.0000030
  H        3.0931030    -1.8035030     0.0000080
units angstrom
no_reorient  #important for SAPT in psi4, default
symmetry c1  #important for SAPT in psi4, default
}

set PROPERTIES_ORIGIN ["COM"]
properties('MP2/aug-cc-pvtz', properties = ['dipole'])
--------------------------------------------------------------------------

    Molecular point group: c1
  Charge       = 0
  Multiplicity = 1
  Basis Set: AUG-CC-PVTZ
    Blend: AUG-CC-PVTZ
  Basis Set: (AUG-CC-PVTZ AUX)
    Blend: AUG-CC-PVTZ-JKFIT

    Orbital Energies [Eh]
    ---------------------

    Doubly Occupied:

       1A    -20.655981     2A    -20.533843     3A    -15.597754
       4A    -15.595478     5A    -11.375226     6A    -11.358738
       7A    -11.315510     8A    -11.283634     9A    -11.266158
      10A     -1.494891    11A     -1.385425    12A     -1.260260
      13A     -1.234502    14A     -1.061383    15A     -0.971865
      16A     -0.872803    17A     -0.849615    18A     -0.792585
      19A     -0.772827    20A     -0.680617    21A     -0.675703
      22A     -0.657886    23A     -0.627610    24A     -0.622183
      25A     -0.598347    26A     -0.588355    27A     -0.554595
      28A     -0.546268    29A     -0.491014    30A     -0.470555
      31A     -0.447765    32A     -0.400217    33A     -0.356168

  @DF-RHF Final Energy:  -451.60841648633163

   => Energetics <=

    Nuclear Repulsion Energy =            432.6201310672480531
    One-Electron Energy =               -1473.6655711901969426
    Two-Electron Energy =                 589.4370236366173685
    Total Energy =                       -451.6084164863316346
  Basis Set: (AUG-CC-PVTZ AUX)
    Blend: AUG-CC-PVTZ-RI
    Molecular point group: c1

    Geometry (in Angstrom), charge = 0, multiplicity = 1:

       Center              X                  Y                   Z               Mass
    ------------   -----------------  -----------------  -----------------  -----------------
         O            1.406189768804     0.990797156186    -0.000003881961    15.994914619570
         O           -1.316691231196     1.573085156186     0.000005118039    15.994914619570
         N           -1.775902231196    -0.691592843814    -0.000009881961    14.003074004430
         N            0.981512768804    -1.212540843814     0.000003118039    14.003074004430
         C            0.477369768804     0.002161156186    -0.000000881961    12.000000000000
         C           -0.959567231196     0.393025156186    -0.000000881961    12.000000000000
         C           -3.219581231196    -0.565900843814     0.000003118039    12.000000000000
         C            2.626630968804     0.326255656186    -0.000000881961    12.000000000000
         C            2.348784768804    -1.010570843814     0.000004118039    12.000000000000
         H           -1.333493231196    -1.603992843814    -0.000002881961     1.007825032230
         H           -3.651371231196    -1.029629843814     0.891290118039     1.007825032230
         H           -3.651386231196    -1.029654843814    -0.891262881961     1.007825032230
         H           -3.451459231196     0.498956156186    -0.000009881961     1.007825032230
         H            3.490550768804     0.944445156186    -0.000002881961     1.007825032230
         H            3.049299768804    -1.833403843814     0.000008118039     1.007825032230

  Basis Set: AUG-CC-PVTZ
    Blend: AUG-CC-PVTZ
  Basis Set: (AUG-CC-PVTZ AUX)
    Blend: AUG-CC-PVTZ-JKFIT
	 Reference Energy          =    -451.6084164863316346 [Eh]
	 Singles Energy            =      -0.0000000000000000 [Eh]
	 Same-Spin Energy          =      -0.4621440671080993 [Eh]
	 Opposite-Spin Energy      =      -1.3923765329903279 [Eh]
	 Correlation Energy        =      -1.8545206000984273 [Eh]
	 Total Energy              =    -453.4629370864300881 [Eh]

	 ================> DF-SCS-MP2 Energies <==================
	-----------------------------------------------------------
	 SCS Same-Spin Scale       =       0.3333333333333333 [-]
	 SCS Opposite-Spin Scale   =       1.2000000000000000 [-]
	 SCS Same-Spin Energy      =      -0.1540480223693664 [Eh]
	 SCS Opposite-Spin Energy  =      -1.6708518395883936 [Eh]
	 SCS Correlation Energy    =      -1.8248998619577601 [Eh]
	 SCS Total Energy          =    -453.4333163482893951 [Eh]
	-----------------------------------------------------------

  Dipole Moment: [D]
     X:     1.1538      Y:    -2.7099      Z:     0.0000     Total:     2.9453

*** Psi4 exiting successfully. Buy a developer a beer!
