                               Psi4 1.3.2 release

  ==> Input File <==

--------------------------------------------------------------------------
#psi4
#
memory 32 gb

molecule  {
0 1
  O        1.4499930     1.0206980    -0.0000040
  O       -1.2728880     1.6029860     0.0000050
  N       -1.7320990    -0.6616920    -0.0000100
  N        1.0253160    -1.1826400     0.0000030
  C        0.5211730     0.0320620    -0.0000010
  C       -0.8192701     0.3966785    -0.0000010
  C       -3.1757780    -0.5360000     0.0000030
  C        2.6470610     0.3608020    -0.0000010
  C        2.3925880    -0.9806700     0.0000040
  H       -1.2896900    -1.5740920    -0.0000030
  H       -3.6075680    -0.9997290     0.8912900
  H       -3.6075830    -0.9997540    -0.8912630
  H       -3.4076560     0.5288570    -0.0000100
  H        3.5343540     0.9743460    -0.0000030
  H        3.0931030    -1.8035030     0.0000080
units angstrom
no_reorient  #important for SAPT in psi4, default
symmetry c1  #important for SAPT in psi4, default
}

set PROPERTIES_ORIGIN ["COM"]
properties('MP2/aug-cc-pvtz', properties = ['dipole'])
--------------------------------------------------------------------------

    Molecular point group: c1
  Charge       = 0
  Multiplicity = 1
  Basis Set: AUG-CC-PVTZ
    Blend: AUG-CC-PVTZ
  Basis Set: (AUG-CC-PVTZ AUX)
    Blend: AUG-CC-PVTZ-JKFIT

    Orbital Energies [Eh]
    ---------------------

    Doubly Occupied:

       1A    -20.666788     2A    -20.527904     3A    -15.608251
       4A    -15.593323     5A    -11.374319     6A    -11.358540
       7A    -11.326657     8A    -11.289255     9A    -11.262665
      10A     -1.512070    11A     -1.351644    12A     -1.266443
      13A     -1.217638    14A     -1.081104    15A     -0.971592
      16A     -0.894957    17A     -0.859333    18A     -0.796528
      19A     -0.762284    20A     -0.688691    21A     -0.683984
      22A     -0.653211    23A     -0.621147    24A     -0.618559
      25A     -0.600536    26A     -0.593286    27A     -0.544285
      28A     -0.532972    29A     -0.498925    30A     -0.476171
      31A     -0.442171    32A     -0.387634    33A     -0.360774

  @DF-RHF Final Energy:  -451.58750314502282

   => Energetics <=

    Nuclear Repulsion Energy =            433.4090311491031002
    One-Electron Energy =               -1475.1457919803960976
    Two-Electron Energy =                 590.1492576862700616
    Total Energy =                       -451.5875031450228789
  Basis Set: (AUG-CC-PVTZ AUX)
    Blend: AUG-CC-PVTZ-RI
    Molecular point group: c1

    Geometry (in Angstrom), charge = 0, multiplicity = 1:

       Center              X                  Y                   Z               Mass
    ------------   -----------------  -----------------  -----------------  -----------------
         O            1.399228264357     0.992853788837    -0.000003881961    15.994914619570
         O           -1.323652735643     1.575141788837     0.000005118039    15.994914619570
         N           -1.782863735643    -0.689536211163    -0.000009881961    14.003074004430
         N            0.974551264357    -1.210484211163     0.000003118039    14.003074004430
         C            0.470408264357     0.004217788837    -0.000000881961    12.000000000000
         C           -0.870034835643     0.368834288837    -0.000000881961    12.000000000000
         C           -3.226542735643    -0.563844211163     0.000003118039    12.000000000000
         C            2.596296264357     0.332957788837    -0.000000881961    12.000000000000
         C            2.341823264357    -1.008514211163     0.000004118039    12.000000000000
         H           -1.340454735643    -1.601936211163    -0.000002881961     1.007825032230
         H           -3.658332735643    -1.027573211163     0.891290118039     1.007825032230
         H           -3.658347735643    -1.027598211163    -0.891262881961     1.007825032230
         H           -3.458420735643     0.501012788837    -0.000009881961     1.007825032230
         H            3.483589264357     0.946501788837    -0.000002881961     1.007825032230
         H            3.042338264357    -1.831347211163     0.000008118039     1.007825032230

  Basis Set: AUG-CC-PVTZ
    Blend: AUG-CC-PVTZ
  Basis Set: (AUG-CC-PVTZ AUX)
    Blend: AUG-CC-PVTZ-JKFIT
	 Reference Energy          =    -451.5875031450228221 [Eh]
	 Singles Energy            =      -0.0000000000000000 [Eh]
	 Same-Spin Energy          =      -0.4652818439052812 [Eh]
	 Opposite-Spin Energy      =      -1.3977459078799397 [Eh]
	 Correlation Energy        =      -1.8630277517852210 [Eh]
	 Total Energy              =    -453.4505308968080612 [Eh]

	 ================> DF-SCS-MP2 Energies <==================
	-----------------------------------------------------------
	 SCS Same-Spin Scale       =       0.3333333333333333 [-]
	 SCS Opposite-Spin Scale   =       1.2000000000000000 [-]
	 SCS Same-Spin Energy      =      -0.1550939479684270 [Eh]
	 SCS Opposite-Spin Energy  =      -1.6772950894559275 [Eh]
	 SCS Correlation Energy    =      -1.8323890374243545 [Eh]
	 SCS Total Energy          =    -453.4198921824471995 [Eh]
	-----------------------------------------------------------

  Dipole Moment: [D]
     X:     1.7778      Y:    -2.8149      Z:     0.0000     Total:     3.3293

*** Psi4 exiting successfully. Buy a developer a beer!
