                               Psi4 1.3.2 release

  ==> Input File <==

--------------------------------------------------------------------------
#psi4
#
memory 32 gb

molecule  {
0 1
  O        1.4499930     1.0206980    -0.0000040
  O       -1.2728880     1.6029860     0.0000050
  N       -1.7320990    -0.6616920    -0.0000100
  N        1.0253160    -1.1826400     0.0000030
  C        0.5211730     0.0320620    -0.0000010
  C       -0.9157640     0.4229260    -0.0000010
  C       -3.1757780    -0.5360000     0.0000030
  C        2.6470610     0.3608020    -0.0000010
  C        2.3459263    -0.9709718     0.0000039
  H       -1.2896900    -1.5740920    -0.0000030
  H       -3.6075680    -0.9997290     0.8912900
  H       -3.6075830    -0.9997540    -0.8912630
  H       -3.4076560     0.5288570    -0.0000100
  H        3.5343540     0.9743460    -0.0000030
  H        3.0931030    -1.8035030     0.0000080
units angstrom
no_reorient  #important for SAPT in psi4, default
symmetry c1  #important for SAPT in psi4, default
}

set PROPERTIES_ORIGIN ["COM"]
properties('MP2/aug-cc-pvtz', properties = ['dipole'])
--------------------------------------------------------------------------

    Molecular point group: c1
  Charge       = 0
  Multiplicity = 1
  Basis Set: AUG-CC-PVTZ
    Blend: AUG-CC-PVTZ
  Basis Set: (AUG-CC-PVTZ AUX)
    Blend: AUG-CC-PVTZ-JKFIT

    Orbital Energies [Eh]
    ---------------------

    Doubly Occupied:

       1A    -20.660432     2A    -20.532959     3A    -15.597472
       4A    -15.594981     5A    -11.374598     6A    -11.357746
       7A    -11.313479     8A    -11.281262     9A    -11.266036
      10A     -1.506283    11A     -1.385058    12A     -1.271863
      13A     -1.238516    14A     -1.060825    15A     -0.970976
      16A     -0.872994    17A     -0.850210    18A     -0.797134
      19A     -0.774712    20A     -0.682206    21A     -0.680731
      22A     -0.656587    23A     -0.628098    24A     -0.621019
      25A     -0.596685    26A     -0.585559    27A     -0.554443
      28A     -0.546381    29A     -0.494011    30A     -0.479506
      31A     -0.447499    32A     -0.400178    33A     -0.350876

  @DF-RHF Final Energy:  -451.60640190794356

   => Energetics <=

    Nuclear Repulsion Energy =            434.1510661368462252
    One-Electron Energy =               -1476.6523142358919358
    Two-Electron Energy =                 590.8948461911022605
    Total Energy =                       -451.6064019079435639
  Basis Set: (AUG-CC-PVTZ AUX)
    Blend: AUG-CC-PVTZ-RI
    Molecular point group: c1

    Geometry (in Angstrom), charge = 0, multiplicity = 1:

       Center              X                  Y                   Z               Mass
    ------------   -----------------  -----------------  -----------------  -----------------
         O            1.412857487629     0.989431554772    -0.000003872441    15.994914619570
         O           -1.310023512371     1.571719554772     0.000005127559    15.994914619570
         N           -1.769234512371    -0.692958445228    -0.000009872441    14.003074004430
         N            0.988180487629    -1.213906445228     0.000003127559    14.003074004430
         C            0.484037487629     0.000795554772    -0.000000872441    12.000000000000
         C           -0.952899512371     0.391659554772    -0.000000872441    12.000000000000
         C           -3.212913512371    -0.567266445228     0.000003127559    12.000000000000
         C            2.609925487629     0.329535554772    -0.000000872441    12.000000000000
         C            2.308790787629    -1.002238245228     0.000004027559    12.000000000000
         H           -1.326825512371    -1.605358445228    -0.000002872441     1.007825032230
         H           -3.644703512371    -1.030995445228     0.891290127559     1.007825032230
         H           -3.644718512371    -1.031020445228    -0.891262872441     1.007825032230
         H           -3.444791512371     0.497590554772    -0.000009872441     1.007825032230
         H            3.497218487629     0.943079554772    -0.000002872441     1.007825032230
         H            3.055967487629    -1.834769445228     0.000008127559     1.007825032230

  Basis Set: AUG-CC-PVTZ
    Blend: AUG-CC-PVTZ
  Basis Set: (AUG-CC-PVTZ AUX)
    Blend: AUG-CC-PVTZ-JKFIT
	 Reference Energy          =    -451.6064019079435639 [Eh]
	 Singles Energy            =      -0.0000000000000000 [Eh]
	 Same-Spin Energy          =      -0.4628864697411185 [Eh]
	 Opposite-Spin Energy      =      -1.3919873345639200 [Eh]
	 Correlation Energy        =      -1.8548738043050386 [Eh]
	 Total Energy              =    -453.4612757122486073 [Eh]

	 ================> DF-SCS-MP2 Energies <==================
	-----------------------------------------------------------
	 SCS Same-Spin Scale       =       0.3333333333333333 [-]
	 SCS Opposite-Spin Scale   =       1.2000000000000000 [-]
	 SCS Same-Spin Energy      =      -0.1542954899137061 [Eh]
	 SCS Opposite-Spin Energy  =      -1.6703848014767040 [Eh]
	 SCS Correlation Energy    =      -1.8246802913904101 [Eh]
	 SCS Total Energy          =    -453.4310821993339573 [Eh]
	-----------------------------------------------------------

  Dipole Moment: [D]
     X:     1.1382      Y:    -2.6786      Z:     0.0000     Total:     2.9104

*** Psi4 exiting successfully. Buy a developer a beer!
