                               Psi4 1.3.2 release

  ==> Input File <==

--------------------------------------------------------------------------
#psi4
#
memory 32 gb

molecule  {
0 1
  O        1.4499930     1.0206980    -0.0000040
  O       -1.2728880     1.6029860     0.0000050
  N       -1.7320990    -0.6616920    -0.0000100
  N        1.0253160    -1.1826400     0.0000030
  C        0.5211730     0.0320620    -0.0000010
  C       -0.9157640     0.4229260    -0.0000010
  C       -3.1757780    -0.5360000     0.0000030
  C        2.5054450     0.3800529    -0.0000012
  C        2.3925880    -0.9806700     0.0000040
  H       -1.2896900    -1.5740920    -0.0000030
  H       -3.6075680    -0.9997290     0.8912900
  H       -3.6075830    -0.9997540    -0.8912630
  H       -3.4076560     0.5288570    -0.0000100
  H        3.5343540     0.9743460    -0.0000030
  H        3.0931030    -1.8035030     0.0000080
units angstrom
no_reorient  #important for SAPT in psi4, default
symmetry c1  #important for SAPT in psi4, default
}

set PROPERTIES_ORIGIN ["COM"]
properties('MP2/aug-cc-pvtz', properties = ['dipole'])
--------------------------------------------------------------------------

    Molecular point group: c1
  Charge       = 0
  Multiplicity = 1
  Basis Set: AUG-CC-PVTZ
    Blend: AUG-CC-PVTZ
  Basis Set: (AUG-CC-PVTZ AUX)
    Blend: AUG-CC-PVTZ-JKFIT

    Orbital Energies [Eh]
    ---------------------

    Doubly Occupied:

       1A    -20.678736     2A    -20.530434     3A    -15.601663
       4A    -15.594205     5A    -11.372542     6A    -11.349667
       7A    -11.323822     8A    -11.272052     9A    -11.264252
      10A     -1.569085    11A     -1.384096    12A     -1.270527
      13A     -1.235733    14A     -1.063363    15A     -0.966887
      16A     -0.891652    17A     -0.846729    18A     -0.808362
      19A     -0.776894    20A     -0.714712    21A     -0.687855
      22A     -0.652577    23A     -0.631239    24A     -0.628528
      25A     -0.595545    26A     -0.572873    27A     -0.552050
      28A     -0.548059    29A     -0.488312    30A     -0.479113
      31A     -0.445344    32A     -0.398573    33A     -0.346357

  @DF-RHF Final Energy:  -451.58608937977453

   => Energetics <=

    Nuclear Repulsion Energy =            436.5466124414008391
    One-Electron Energy =               -1481.1817263367443047
    Two-Electron Energy =                 593.0490245155689308
    Total Energy =                       -451.5860893797745348
  Basis Set: (AUG-CC-PVTZ AUX)
    Blend: AUG-CC-PVTZ-RI
    Molecular point group: c1

    Geometry (in Angstrom), charge = 0, multiplicity = 1:

       Center              X                  Y                   Z               Mass
    ------------   -----------------  -----------------  -----------------  -----------------
         O            1.421897674358     0.988522083671    -0.000003862920    15.994914619570
         O           -1.300983325642     1.570810083671     0.000005137080    15.994914619570
         N           -1.760194325642    -0.693867916329    -0.000009862920    14.003074004430
         N            0.997220674358    -1.214815916329     0.000003137080    14.003074004430
         C            0.493077674358    -0.000113916329    -0.000000862920    12.000000000000
         C           -0.943859325642     0.390750083671    -0.000000862920    12.000000000000
         C           -3.203873325642    -0.568175916329     0.000003137080    12.000000000000
         C            2.477349674358     0.347876983671    -0.000001062920    12.000000000000
         C            2.364492674358    -1.012845916329     0.000004137080    12.000000000000
         H           -1.317785325642    -1.606267916329    -0.000002862920     1.007825032230
         H           -3.635663325642    -1.031904916329     0.891290137080     1.007825032230
         H           -3.635678325642    -1.031929916329    -0.891262862920     1.007825032230
         H           -3.435751325642     0.496681083671    -0.000009862920     1.007825032230
         H            3.506258674358     0.942170083671    -0.000002862920     1.007825032230
         H            3.065007674358    -1.835678916329     0.000008137080     1.007825032230

  Basis Set: AUG-CC-PVTZ
    Blend: AUG-CC-PVTZ
  Basis Set: (AUG-CC-PVTZ AUX)
    Blend: AUG-CC-PVTZ-JKFIT
	 Reference Energy          =    -451.5860893797745348 [Eh]
	 Singles Energy            =      -0.0000000000000000 [Eh]
	 Same-Spin Energy          =      -0.4627126901532432 [Eh]
	 Opposite-Spin Energy      =      -1.3900179076273436 [Eh]
	 Correlation Energy        =      -1.8527305977805868 [Eh]
	 Total Energy              =    -453.4388199775551129 [Eh]

	 ================> DF-SCS-MP2 Energies <==================
	-----------------------------------------------------------
	 SCS Same-Spin Scale       =       0.3333333333333333 [-]
	 SCS Opposite-Spin Scale   =       1.2000000000000000 [-]
	 SCS Same-Spin Energy      =      -0.1542375633844144 [Eh]
	 SCS Opposite-Spin Energy  =      -1.6680214891528122 [Eh]
	 SCS Correlation Energy    =      -1.8222590525372266 [Eh]
	 SCS Total Energy          =    -453.4083484323117546 [Eh]
	-----------------------------------------------------------

  Dipole Moment: [D]
     X:     1.0645      Y:    -2.6204      Z:     0.0000     Total:     2.8284

*** Psi4 exiting successfully. Buy a developer a beer!
