                               Psi4 1.3.2 release

  ==> Input File <==

--------------------------------------------------------------------------
#psi4
#
memory 32 gb

molecule  {
0 1
  O        1.4499930     1.0206980    -0.0000040
  O       -1.2728880     1.6029860     0.0000050
  N       -1.7320990    -0.6616920    -0.0000100
  N        1.0253160    -1.1826400     0.0000030
  C        0.5211730     0.0320620    -0.0000010
  C       -0.9157640     0.4229260    -0.0000010
  C       -3.1757780    -0.5360000     0.0000030
  C        2.6470610     0.3608020    -0.0000010
  C        2.4915145    -0.9660568     0.0000041
  H       -1.2896900    -1.5740920    -0.0000030
  H       -3.6075680    -0.9997290     0.8912900
  H       -3.6075830    -0.9997540    -0.8912630
  H       -3.4076560     0.5288570    -0.0000100
  H        3.5343540     0.9743460    -0.0000030
  H        3.0931030    -1.8035030     0.0000080
units angstrom
no_reorient  #important for SAPT in psi4, default
symmetry c1  #important for SAPT in psi4, default
}

set PROPERTIES_ORIGIN ["COM"]
properties('MP2/aug-cc-pvtz', properties = ['dipole'])
--------------------------------------------------------------------------

    Molecular point group: c1
  Charge       = 0
  Multiplicity = 1
  Basis Set: AUG-CC-PVTZ
    Blend: AUG-CC-PVTZ
  Basis Set: (AUG-CC-PVTZ AUX)
    Blend: AUG-CC-PVTZ-JKFIT

    Orbital Energies [Eh]
    ---------------------

    Doubly Occupied:

       1A    -20.655196     2A    -20.534609     3A    -15.597530
       4A    -15.597340     5A    -11.375626     6A    -11.357816
       7A    -11.317516     8A    -11.281094     9A    -11.265910
      10A     -1.499673    11A     -1.386134    12A     -1.250973
      13A     -1.220158    14A     -1.067201    15A     -0.972814
      16A     -0.879836    17A     -0.845269    18A     -0.789892
      19A     -0.773368    20A     -0.679669    21A     -0.677458
      22A     -0.655712    23A     -0.627968    24A     -0.624629
      25A     -0.601896    26A     -0.588363    27A     -0.554256
      28A     -0.547160    29A     -0.483238    30A     -0.457189
      31A     -0.446606    32A     -0.399999    33A     -0.368326

  @DF-RHF Final Energy:  -451.60160946940221

   => Energetics <=

    Nuclear Repulsion Energy =            431.6123632481301229
    One-Electron Energy =               -1471.6670949039262268
    Two-Electron Energy =                 588.4531221863938981
    Total Energy =                       -451.6016094694022058
  Basis Set: (AUG-CC-PVTZ AUX)
    Blend: AUG-CC-PVTZ-RI
    Molecular point group: c1

    Geometry (in Angstrom), charge = 0, multiplicity = 1:

       Center              X                  Y                   Z               Mass
    ------------   -----------------  -----------------  -----------------  -----------------
         O            1.398996667070     0.988963618956    -0.000003891482    15.994914619570
         O           -1.323884332930     1.571251618956     0.000005108518    15.994914619570
         N           -1.783095332930    -0.693426381044    -0.000009891482    14.003074004430
         N            0.974319667070    -1.214374381044     0.000003108518    14.003074004430
         C            0.470176667070     0.000327618956    -0.000000891482    12.000000000000
         C           -0.966760332930     0.391191618956    -0.000000891482    12.000000000000
         C           -3.226774332930    -0.567734381044     0.000003108518    12.000000000000
         C            2.596064667070     0.329067618956    -0.000000891482    12.000000000000
         C            2.440518167070    -0.997791181044     0.000004208518    12.000000000000
         H           -1.340686332930    -1.605826381044    -0.000002891482     1.007825032230
         H           -3.658564332930    -1.031463381044     0.891290108518     1.007825032230
         H           -3.658579332930    -1.031488381044    -0.891262891482     1.007825032230
         H           -3.458652332930     0.497122618956    -0.000009891482     1.007825032230
         H            3.483357667070     0.942611618956    -0.000002891482     1.007825032230
         H            3.042106667070    -1.835237381044     0.000008108518     1.007825032230

  Basis Set: AUG-CC-PVTZ
    Blend: AUG-CC-PVTZ
  Basis Set: (AUG-CC-PVTZ AUX)
    Blend: AUG-CC-PVTZ-JKFIT
	 Reference Energy          =    -451.6016094694022058 [Eh]
	 Singles Energy            =      -0.0000000000000000 [Eh]
	 Same-Spin Energy          =      -0.4606772319526747 [Eh]
	 Opposite-Spin Energy      =      -1.3919626082701475 [Eh]
	 Correlation Energy        =      -1.8526398402228221 [Eh]
	 Total Energy              =    -453.4542493096250269 [Eh]

	 ================> DF-SCS-MP2 Energies <==================
	-----------------------------------------------------------
	 SCS Same-Spin Scale       =       0.3333333333333333 [-]
	 SCS Opposite-Spin Scale   =       1.2000000000000000 [-]
	 SCS Same-Spin Energy      =      -0.1535590773175582 [Eh]
	 SCS Opposite-Spin Energy  =      -1.6703551299241770 [Eh]
	 SCS Correlation Energy    =      -1.8239142072417351 [Eh]
	 SCS Total Energy          =    -453.4255236766439339 [Eh]
	-----------------------------------------------------------

  Dipole Moment: [D]
     X:     1.1083      Y:    -2.7034      Z:     0.0000     Total:     2.9218

*** Psi4 exiting successfully. Buy a developer a beer!
