                               Psi4 1.3.2 release

  ==> Input File <==

--------------------------------------------------------------------------
#psi4
#
memory 32 gb

molecule  {
0 1
  O        1.4989410     1.1025938    -0.0000043
  O       -1.2728880     1.6029860     0.0000050
  N       -1.7320990    -0.6616920    -0.0000100
  N        1.0253160    -1.1826400     0.0000030
  C        0.5211730     0.0320620    -0.0000010
  C       -0.9157640     0.4229260    -0.0000010
  C       -3.1757780    -0.5360000     0.0000030
  C        2.6470610     0.3608020    -0.0000010
  C        2.3925880    -0.9806700     0.0000040
  H       -1.2896900    -1.5740920    -0.0000030
  H       -3.6075680    -0.9997290     0.8912900
  H       -3.6075830    -0.9997540    -0.8912630
  H       -3.4076560     0.5288570    -0.0000100
  H        3.5343540     0.9743460    -0.0000030
  H        3.0931030    -1.8035030     0.0000080
units angstrom
no_reorient  #important for SAPT in psi4, default
symmetry c1  #important for SAPT in psi4, default
}

set PROPERTIES_ORIGIN ["COM"]
properties('MP2/aug-cc-pvtz', properties = ['dipole'])
--------------------------------------------------------------------------

    Molecular point group: c1
  Charge       = 0
  Multiplicity = 1
  Basis Set: AUG-CC-PVTZ
    Blend: AUG-CC-PVTZ
  Basis Set: (AUG-CC-PVTZ AUX)
    Blend: AUG-CC-PVTZ-JKFIT

    Orbital Energies [Eh]
    ---------------------

    Doubly Occupied:

       1A    -20.657801     2A    -20.533310     3A    -15.609114
       4A    -15.597944     5A    -11.376132     6A    -11.364714
       7A    -11.319067     8A    -11.281491     9A    -11.266434
      10A     -1.473640    11A     -1.385224    12A     -1.268269
      13A     -1.237634    14A     -1.052339    15A     -0.970047
      16A     -0.873546    17A     -0.843752    18A     -0.792559
      19A     -0.768533    20A     -0.672885    21A     -0.664929
      22A     -0.656702    23A     -0.627225    24A     -0.616838
      25A     -0.600239    26A     -0.587424    27A     -0.554975
      28A     -0.547517    29A     -0.499011    30A     -0.479328
      31A     -0.447554    32A     -0.400500    33A     -0.351764

  @DF-RHF Final Energy:  -451.59584025282516

   => Energetics <=

    Nuclear Repulsion Energy =            430.4352021757712805
    One-Electron Energy =               -1469.3052040344823581
    Two-Electron Energy =                 587.2741616058858654
    Total Energy =                       -451.5958402528251554
  Basis Set: (AUG-CC-PVTZ AUX)
    Blend: AUG-CC-PVTZ-RI
    Molecular point group: c1

    Geometry (in Angstrom), charge = 0, multiplicity = 1:

       Center              X                  Y                   Z               Mass
    ------------   -----------------  -----------------  -----------------  -----------------
         O            1.451151502451     1.061858057661    -0.000004143891    15.994914619570
         O           -1.320677497549     1.562250257661     0.000005156109    15.994914619570
         N           -1.779888497549    -0.702427742339    -0.000009843891    14.003074004430
         N            0.977526502451    -1.223375742339     0.000003156109    14.003074004430
         C            0.473383502451    -0.008673742339    -0.000000843891    12.000000000000
         C           -0.963553497549     0.382190257661    -0.000000843891    12.000000000000
         C           -3.223567497549    -0.576735742339     0.000003156109    12.000000000000
         C            2.599271502451     0.320066257661    -0.000000843891    12.000000000000
         C            2.344798502451    -1.021405742339     0.000004156109    12.000000000000
         H           -1.337479497549    -1.614827742339    -0.000002843891     1.007825032230
         H           -3.655357497549    -1.040464742339     0.891290156109     1.007825032230
         H           -3.655372497549    -1.040489742339    -0.891262843891     1.007825032230
         H           -3.455445497549     0.488121257661    -0.000009843891     1.007825032230
         H            3.486564502451     0.933610257661    -0.000002843891     1.007825032230
         H            3.045313502451    -1.844238742339     0.000008156109     1.007825032230

  Basis Set: AUG-CC-PVTZ
    Blend: AUG-CC-PVTZ
  Basis Set: (AUG-CC-PVTZ AUX)
    Blend: AUG-CC-PVTZ-JKFIT
	 Reference Energy          =    -451.5958402528251554 [Eh]
	 Singles Energy            =      -0.0000000000000000 [Eh]
	 Same-Spin Energy          =      -0.4634701714336130 [Eh]
	 Opposite-Spin Energy      =      -1.3963122839858317 [Eh]
	 Correlation Energy        =      -1.8597824554194446 [Eh]
	 Total Energy              =    -453.4556227082446185 [Eh]

	 ================> DF-SCS-MP2 Energies <==================
	-----------------------------------------------------------
	 SCS Same-Spin Scale       =       0.3333333333333333 [-]
	 SCS Opposite-Spin Scale   =       1.2000000000000000 [-]
	 SCS Same-Spin Energy      =      -0.1544900571445376 [Eh]
	 SCS Opposite-Spin Energy  =      -1.6755747407829980 [Eh]
	 SCS Correlation Energy    =      -1.8300647979275355 [Eh]
	 SCS Total Energy          =    -453.4259050507527036 [Eh]
	-----------------------------------------------------------

  Dipole Moment: [D]
     X:     1.0041      Y:    -2.9320      Z:     0.0000     Total:     3.0991

*** Psi4 exiting successfully. Buy a developer a beer!
