                               Psi4 1.4a3.dev225

  ==> Input File <==

--------------------------------------------------------------------------
#psi4
#
memory 32 gb

molecule  {
0 1
  O        1.4499930     1.0206980    -0.0000040
  O       -1.2728880     1.6029860     0.0000050
  N       -1.7320990    -0.6616920    -0.0000100
  N        1.0253160    -1.1826400     0.0000030
  C        0.5211730     0.0320620    -0.0000010
  C       -0.9157640     0.4229260    -0.0000010
  C       -3.1757780    -0.5360000     0.0000030
  C        2.6470610     0.3608020    -0.0000010
  C        2.3925880    -0.9806700     0.0000040
  H       -1.2896900    -1.5740920    -0.0000030
  H       -3.6075680    -0.9997290     0.8912900
  H       -3.6075830    -0.9997540    -0.8912630
  H       -3.4076560     0.5288570    -0.0000100
  H        3.5343540     0.9743460    -0.0000030
  H        3.0801381    -1.7882743     0.0000079
units angstrom
no_reorient  #important for SAPT in psi4, default
symmetry c1  #important for SAPT in psi4, default
}

set PROPERTIES_ORIGIN ["COM"]
properties('MP2/aug-cc-pvtz', properties = ['dipole'])
--------------------------------------------------------------------------

    Molecular point group: c1
  Charge       = 0
  Multiplicity = 1
  Basis Set: AUG-CC-PVTZ
    Blend: AUG-CC-PVTZ
  Basis Set: (AUG-CC-PVTZ AUX)
    Blend: AUG-CC-PVTZ-JKFIT

    Orbital Energies [Eh]
    ---------------------

    Doubly Occupied:

       1A    -20.659130     2A    -20.533338     3A    -15.597224
       4A    -15.596028     5A    -11.374802     6A    -11.357361
       7A    -11.316053     8A    -11.279524     9A    -11.265868
      10A     -1.503548    11A     -1.385256    12A     -1.261209
      13A     -1.234776    14A     -1.061856    15A     -0.971119
      16A     -0.874560    17A     -0.850633    18A     -0.794123
      19A     -0.774663    20A     -0.680619    21A     -0.679979
      22A     -0.657589    23A     -0.627868    24A     -0.623085
      25A     -0.598414    26A     -0.591557    27A     -0.554307
      28A     -0.546480    29A     -0.491050    30A     -0.471535
      31A     -0.447400    32A     -0.399940    33A     -0.354676

  @DF-RHF Final Energy:  -451.60985216270291

   => Energetics <=

    Nuclear Repulsion Energy =            433.2448060079890411
    One-Electron Energy =               -1474.8781755624681864
    Two-Electron Energy =                 590.0235173917761813
    Total Energy =                       -451.6098521627028504
  Basis Set: (AUG-CC-PVTZ AUX)
    Blend: AUG-CC-PVTZ-RI
    Molecular point group: c1

    Geometry (in Angstrom), charge = 0, multiplicity = 1:

       Center              X                  Y                   Z               Mass
    ------------   -----------------  -----------------  -----------------  -----------------
         O            1.408518695597     0.990233111328    -0.000003881162    15.994914619570
         O           -1.314362304403     1.572521111328     0.000005118838    15.994914619570
         N           -1.773573304403    -0.692156888672    -0.000009881162    14.003074004430
         N            0.983841695597    -1.213104888672     0.000003118838    14.003074004430
         C            0.479698695597     0.001597111328    -0.000000881162    12.000000000000
         C           -0.957238304403     0.392461111328    -0.000000881162    12.000000000000
         C           -3.217252304403    -0.566464888672     0.000003118838    12.000000000000
         C            2.605586695597     0.330337111328    -0.000000881162    12.000000000000
         C            2.351113695597    -1.011134888672     0.000004118838    12.000000000000
         H           -1.331164304403    -1.604556888672    -0.000002881162     1.007825032230
         H           -3.649042304403    -1.030193888672     0.891290118838     1.007825032230
         H           -3.649057304403    -1.030218888672    -0.891262881162     1.007825032230
         H           -3.449130304403     0.498392111328    -0.000009881162     1.007825032230
         H            3.492879695597     0.943881111328    -0.000002881162     1.007825032230
         H            3.038663795597    -1.818739188672     0.000008018838     1.007825032230

  Basis Set: AUG-CC-PVTZ
    Blend: AUG-CC-PVTZ
  Basis Set: (AUG-CC-PVTZ AUX)
    Blend: AUG-CC-PVTZ-JKFIT
	 Reference Energy          =    -451.6098521627029072 [Eh]
	 Singles Energy            =      -0.0000000000000000 [Eh]
	 Same-Spin Energy          =      -0.4621513468035669 [Eh]
	 Opposite-Spin Energy      =      -1.3918063254141018 [Eh]
	 Correlation Energy        =      -1.8539576722176687 [Eh]
	 Total Energy              =    -453.4638098349205961 [Eh]

	 ================> DF-SCS-MP2 Energies <==================
	-----------------------------------------------------------
	 SCS Same-Spin Scale       =       0.3333333333333333 [-]
	 SCS Opposite-Spin Scale   =       1.2000000000000000 [-]
	 SCS Same-Spin Energy      =      -0.1540504489345223 [Eh]
	 SCS Opposite-Spin Energy  =      -1.6701675904969220 [Eh]
	 SCS Correlation Energy    =      -1.8242180394314442 [Eh]
	 SCS Total Energy          =    -453.4340702021343645 [Eh]
	-----------------------------------------------------------

  Dipole Moment: [D]
     X:     1.1496      Y:    -2.6919      Z:     0.0000     Total:     2.9271

*** Psi4 exiting successfully. Buy a developer a beer!
