                               Psi4 1.4a3.dev225

  ==> Input File <==

--------------------------------------------------------------------------
#psi4
#
memory 32 gb

molecule  {
0 1
  O        1.4499930     1.0206980    -0.0000040
  O       -1.2728880     1.6029860     0.0000050
  N       -1.7320990    -0.6616920    -0.0000100
  N        1.0253160    -1.1826400     0.0000030
  C        0.5211730     0.0320620    -0.0000010
  C       -0.9157640     0.4229260    -0.0000010
  C       -3.1757780    -0.5360000     0.0000030
  C        2.6470610     0.3608020    -0.0000010
  C        2.3888605    -1.0003196     0.0000041
  H       -1.2896900    -1.5740920    -0.0000030
  H       -3.6075680    -0.9997290     0.8912900
  H       -3.6075830    -0.9997540    -0.8912630
  H       -3.4076560     0.5288570    -0.0000100
  H        3.5343540     0.9743460    -0.0000030
  H        3.0931030    -1.8035030     0.0000080
units angstrom
no_reorient  #important for SAPT in psi4, default
symmetry c1  #important for SAPT in psi4, default
}

set PROPERTIES_ORIGIN ["COM"]
properties('MP2/aug-cc-pvtz', properties = ['dipole'])
--------------------------------------------------------------------------

    Molecular point group: c1
  Charge       = 0
  Multiplicity = 1
  Basis Set: AUG-CC-PVTZ
    Blend: AUG-CC-PVTZ
  Basis Set: (AUG-CC-PVTZ AUX)
    Blend: AUG-CC-PVTZ-JKFIT

    Orbital Energies [Eh]
    ---------------------

    Doubly Occupied:

       1A    -20.660959     2A    -20.532978     3A    -15.596905
       4A    -15.596329     5A    -11.374615     6A    -11.356861
       7A    -11.319074     8A    -11.283436     9A    -11.265676
      10A     -1.503736    11A     -1.384970    12A     -1.262081
      13A     -1.235069    14A     -1.059231    15A     -0.970040
      16A     -0.872683    17A     -0.851676    18A     -0.793715
      19A     -0.774134    20A     -0.680469    21A     -0.679807
      22A     -0.658289    23A     -0.627629    24A     -0.625588
      25A     -0.598035    26A     -0.590184    27A     -0.554077
      28A     -0.546247    29A     -0.489408    30A     -0.472729
      31A     -0.447217    32A     -0.399717    33A     -0.350922

  @DF-RHF Final Energy:  -451.60818274457927

   => Energetics <=

    Nuclear Repulsion Energy =            432.9157386639396918
    One-Electron Energy =               -1474.2188755136814962
    Two-Electron Energy =                 589.6949541051625374
    Total Energy =                       -451.6081827445792669
  Basis Set: (AUG-CC-PVTZ AUX)
    Blend: AUG-CC-PVTZ-RI
    Molecular point group: c1

    Geometry (in Angstrom), charge = 0, multiplicity = 1:

       Center              X                  Y                   Z               Mass
    ------------   -----------------  -----------------  -----------------  -----------------
         O            1.408769908814     0.992225631418    -0.000003891482    15.994914619570
         O           -1.314111091186     1.574513631418     0.000005108518    15.994914619570
         N           -1.773322091186    -0.690164368582    -0.000009891482    14.003074004430
         N            0.984092908814    -1.211112368582     0.000003108518    14.003074004430
         C            0.479949908814     0.003589631418    -0.000000891482    12.000000000000
         C           -0.956987091186     0.394453631418    -0.000000891482    12.000000000000
         C           -3.217001091186    -0.564472368582     0.000003108518    12.000000000000
         C            2.605837908814     0.332329631418    -0.000000891482    12.000000000000
         C            2.347637408814    -1.028791968582     0.000004208518    12.000000000000
         H           -1.330913091186    -1.602564368582    -0.000002891482     1.007825032230
         H           -3.648791091186    -1.028201368582     0.891290108518     1.007825032230
         H           -3.648806091186    -1.028226368582    -0.891262891482     1.007825032230
         H           -3.448879091186     0.500384631418    -0.000009891482     1.007825032230
         H            3.493130908814     0.945873631418    -0.000002891482     1.007825032230
         H            3.051879908814    -1.831975368582     0.000008108518     1.007825032230

  Basis Set: AUG-CC-PVTZ
    Blend: AUG-CC-PVTZ
  Basis Set: (AUG-CC-PVTZ AUX)
    Blend: AUG-CC-PVTZ-JKFIT
	 Reference Energy          =    -451.6081827445792669 [Eh]
	 Singles Energy            =      -0.0000000000000000 [Eh]
	 Same-Spin Energy          =      -0.4626193143188114 [Eh]
	 Opposite-Spin Energy      =      -1.3925261375707076 [Eh]
	 Correlation Energy        =      -1.8551454518895190 [Eh]
	 Total Energy              =    -453.4633281964688081 [Eh]

	 ================> DF-SCS-MP2 Energies <==================
	-----------------------------------------------------------
	 SCS Same-Spin Scale       =       0.3333333333333333 [-]
	 SCS Opposite-Spin Scale   =       1.2000000000000000 [-]
	 SCS Same-Spin Energy      =      -0.1542064381062705 [Eh]
	 SCS Opposite-Spin Energy  =      -1.6710313650848492 [Eh]
	 SCS Correlation Energy    =      -1.8252378031911196 [Eh]
	 SCS Total Energy          =    -453.4334205477703676 [Eh]
	-----------------------------------------------------------

  Dipole Moment: [D]
     X:     1.1704      Y:    -2.7107      Z:     0.0000     Total:     2.9526

*** Psi4 exiting successfully. Buy a developer a beer!
