                               Psi4 1.3.2 release

  ==> Input File <==

--------------------------------------------------------------------------
#psi4
#
memory 32 gb

molecule  {
0 1
  O        1.4499930     1.0206980    -0.0000040
  O       -1.1475818     1.6338511     0.0000054
  N       -1.7320990    -0.6616920    -0.0000100
  N        1.0253160    -1.1826400     0.0000030
  C        0.5211730     0.0320620    -0.0000010
  C       -0.9157640     0.4229260    -0.0000010
  C       -3.1757780    -0.5360000     0.0000030
  C        2.6470610     0.3608020    -0.0000010
  C        2.3925880    -0.9806700     0.0000040
  H       -1.2896900    -1.5740920    -0.0000030
  H       -3.6075680    -0.9997290     0.8912900
  H       -3.6075830    -0.9997540    -0.8912630
  H       -3.4076560     0.5288570    -0.0000100
  H        3.5343540     0.9743460    -0.0000030
  H        3.0931030    -1.8035030     0.0000080
units angstrom
no_reorient  #important for SAPT in psi4, default
symmetry c1  #important for SAPT in psi4, default
}

set PROPERTIES_ORIGIN ["COM"]
properties('MP2/aug-cc-pvtz', properties = ['dipole'])
--------------------------------------------------------------------------

    Molecular point group: c1
  Charge       = 0
  Multiplicity = 1
  Basis Set: AUG-CC-PVTZ
    Blend: AUG-CC-PVTZ
  Basis Set: (AUG-CC-PVTZ AUX)
    Blend: AUG-CC-PVTZ-JKFIT

    Orbital Energies [Eh]
    ---------------------

    Doubly Occupied:

       1A    -20.654667     2A    -20.535663     3A    -15.603161
       4A    -15.591316     5A    -11.375964     6A    -11.351602
       7A    -11.312217     8A    -11.278042     9A    -11.270606
      10A     -1.499608    11A     -1.385463    12A     -1.261899
      13A     -1.237381    14A     -1.057120    15A     -0.973286
      16A     -0.870828    17A     -0.846619    18A     -0.795051
      19A     -0.773376    20A     -0.678990    21A     -0.676798
      22A     -0.658208    23A     -0.630729    24A     -0.619536
      25A     -0.597734    26A     -0.586419    27A     -0.560267
      28A     -0.548600    29A     -0.487480    30A     -0.468138
      31A     -0.446038    32A     -0.404586    33A     -0.351010

  @DF-RHF Final Energy:  -451.60685043585011

   => Energetics <=

    Nuclear Repulsion Energy =            433.6264426051125156
    One-Electron Energy =               -1475.6897842725545615
    Two-Electron Energy =                 590.4564912315919400
    Total Energy =                       -451.6068504358501059
  Basis Set: (AUG-CC-PVTZ AUX)
    Blend: AUG-CC-PVTZ-RI
    Molecular point group: c1

    Geometry (in Angstrom), charge = 0, multiplicity = 1:

       Center              X                  Y                   Z               Mass
    ------------   -----------------  -----------------  -----------------  -----------------
         O            1.392513606204     0.986438080668    -0.000003932722    15.994914619570
         O           -1.205061193796     1.599591180668     0.000005467278    15.994914619570
         N           -1.789578393796    -0.695951919332    -0.000009932722    14.003074004430
         N            0.967836606204    -1.216899919332     0.000003067278    14.003074004430
         C            0.463693606204    -0.002197919332    -0.000000932722    12.000000000000
         C           -0.973243393796     0.388666080668    -0.000000932722    12.000000000000
         C           -3.233257393796    -0.570259919332     0.000003067278    12.000000000000
         C            2.589581606204     0.326542080668    -0.000000932722    12.000000000000
         C            2.335108606204    -1.014929919332     0.000004067278    12.000000000000
         H           -1.347169393796    -1.608351919332    -0.000002932722     1.007825032230
         H           -3.665047393796    -1.033988919332     0.891290067278     1.007825032230
         H           -3.665062393796    -1.034013919332    -0.891262932722     1.007825032230
         H           -3.465135393796     0.494597080668    -0.000009932722     1.007825032230
         H            3.476874606204     0.940086080668    -0.000002932722     1.007825032230
         H            3.035623606204    -1.837762919332     0.000008067278     1.007825032230

  Basis Set: AUG-CC-PVTZ
    Blend: AUG-CC-PVTZ
  Basis Set: (AUG-CC-PVTZ AUX)
    Blend: AUG-CC-PVTZ-JKFIT
	 Reference Energy          =    -451.6068504358501059 [Eh]
	 Singles Energy            =      -0.0000000000000000 [Eh]
	 Same-Spin Energy          =      -0.4620617795139867 [Eh]
	 Opposite-Spin Energy      =      -1.3919064908332330 [Eh]
	 Correlation Energy        =      -1.8539682703472198 [Eh]
	 Total Energy              =    -453.4608187061973013 [Eh]

	 ================> DF-SCS-MP2 Energies <==================
	-----------------------------------------------------------
	 SCS Same-Spin Scale       =       0.3333333333333333 [-]
	 SCS Opposite-Spin Scale   =       1.2000000000000000 [-]
	 SCS Same-Spin Energy      =      -0.1540205931713289 [Eh]
	 SCS Opposite-Spin Energy  =      -1.6702877889998795 [Eh]
	 SCS Correlation Energy    =      -1.8243083821712085 [Eh]
	 SCS Total Energy          =    -453.4311588180212880 [Eh]
	-----------------------------------------------------------

  Dipole Moment: [D]
     X:     0.7120      Y:    -2.7287      Z:     0.0000     Total:     2.8200

*** Psi4 exiting successfully. Buy a developer a beer!
