                               Psi4 1.3.2 release

  ==> Input File <==

--------------------------------------------------------------------------
#psi4
#
memory 32 gb

molecule  {
0 1
  O        1.4499930     1.0206980    -0.0000040
  O       -1.2728880     1.6029860     0.0000050
  N       -1.7320990    -0.6616920    -0.0000100
  N        1.0464387    -1.1736565     0.0000029
  C        0.5211730     0.0320620    -0.0000010
  C       -0.9157640     0.4229260    -0.0000010
  C       -3.1757780    -0.5360000     0.0000030
  C        2.6470610     0.3608020    -0.0000010
  C        2.3925880    -0.9806700     0.0000040
  H       -1.2896900    -1.5740920    -0.0000030
  H       -3.6075680    -0.9997290     0.8912900
  H       -3.6075830    -0.9997540    -0.8912630
  H       -3.4076560     0.5288570    -0.0000100
  H        3.5343540     0.9743460    -0.0000030
  H        3.0931030    -1.8035030     0.0000080
units angstrom
no_reorient  #important for SAPT in psi4, default
symmetry c1  #important for SAPT in psi4, default
}

set PROPERTIES_ORIGIN ["COM"]
properties('MP2/aug-cc-pvtz', properties = ['dipole'])
--------------------------------------------------------------------------

    Molecular point group: c1
  Charge       = 0
  Multiplicity = 1
  Basis Set: AUG-CC-PVTZ
    Blend: AUG-CC-PVTZ
  Basis Set: (AUG-CC-PVTZ AUX)
    Blend: AUG-CC-PVTZ-JKFIT

    Orbital Energies [Eh]
    ---------------------

    Doubly Occupied:

       1A    -20.659283     2A    -20.533468     3A    -15.597646
       4A    -15.593530     5A    -11.375416     6A    -11.356276
       7A    -11.315236     8A    -11.279568     9A    -11.266095
      10A     -1.504172    11A     -1.385426    12A     -1.263723
      13A     -1.236764    14A     -1.061738    15A     -0.971194
      16A     -0.873208    17A     -0.850971    18A     -0.795617
      19A     -0.774487    20A     -0.681233    21A     -0.680365
      22A     -0.657461    23A     -0.628111    24A     -0.623050
      25A     -0.598563    26A     -0.591457    27A     -0.554404
      28A     -0.546603    29A     -0.487667    30A     -0.474102
      31A     -0.447848    32A     -0.400336    33A     -0.352650

  @DF-RHF Final Energy:  -451.60961459495849

   => Energetics <=

    Nuclear Repulsion Energy =            433.4322818897861112
    One-Electron Energy =               -1475.2484602336539865
    Two-Electron Energy =                 590.2065637489093888
    Total Energy =                       -451.6096145949585434
  Basis Set: (AUG-CC-PVTZ AUX)
    Blend: AUG-CC-PVTZ-RI
    Molecular point group: c1

    Geometry (in Angstrom), charge = 0, multiplicity = 1:

       Center              X                  Y                   Z               Mass
    ------------   -----------------  -----------------  -----------------  -----------------
         O            1.406068347225     0.989356832488    -0.000003870852    15.994914619570
         O           -1.316812652775     1.571644832488     0.000005129148    15.994914619570
         N           -1.776023652775    -0.693033167512    -0.000009870852    14.003074004430
         N            1.002514047225    -1.204997667512     0.000003029148    14.003074004430
         C            0.477248347225     0.000720832488    -0.000000870852    12.000000000000
         C           -0.959688652775     0.391584832488    -0.000000870852    12.000000000000
         C           -3.219702652775    -0.567341167512     0.000003129148    12.000000000000
         C            2.603136347225     0.329460832488    -0.000000870852    12.000000000000
         C            2.348663347225    -1.012011167512     0.000004129148    12.000000000000
         H           -1.333614652775    -1.605433167512    -0.000002870852     1.007825032230
         H           -3.651492652775    -1.031070167512     0.891290129148     1.007825032230
         H           -3.651507652775    -1.031095167512    -0.891262870852     1.007825032230
         H           -3.451580652775     0.497515832488    -0.000009870852     1.007825032230
         H            3.490429347225     0.943004832488    -0.000002870852     1.007825032230
         H            3.049178347225    -1.834844167512     0.000008129148     1.007825032230

  Basis Set: AUG-CC-PVTZ
    Blend: AUG-CC-PVTZ
  Basis Set: (AUG-CC-PVTZ AUX)
    Blend: AUG-CC-PVTZ-JKFIT
	 Reference Energy          =    -451.6096145949584866 [Eh]
	 Singles Energy            =      -0.0000000000000000 [Eh]
	 Same-Spin Energy          =      -0.4624653092422283 [Eh]
	 Opposite-Spin Energy      =      -1.3916877326514741 [Eh]
	 Correlation Energy        =      -1.8541530418937024 [Eh]
	 Total Energy              =    -453.4637676368521966 [Eh]

	 ================> DF-SCS-MP2 Energies <==================
	-----------------------------------------------------------
	 SCS Same-Spin Scale       =       0.3333333333333333 [-]
	 SCS Opposite-Spin Scale   =       1.2000000000000000 [-]
	 SCS Same-Spin Energy      =      -0.1541551030807428 [Eh]
	 SCS Opposite-Spin Energy  =      -1.6700252791817689 [Eh]
	 SCS Correlation Energy    =      -1.8241803822625116 [Eh]
	 SCS Total Energy          =    -453.4337949772209981 [Eh]
	-----------------------------------------------------------

  Dipole Moment: [D]
     X:     1.1209      Y:    -2.7166      Z:     0.0000     Total:     2.9388

*** Psi4 exiting successfully. Buy a developer a beer!
