                               Psi4 1.3.2 release

  ==> Input File <==

--------------------------------------------------------------------------
#psi4
#
memory 32 gb

molecule  {
0 1
  O        1.4499930     1.0206980    -0.0000040
  O       -1.2728880     1.6029860     0.0000050
  N       -1.7320990    -0.6616920    -0.0000100
  N        1.0253160    -1.1826400     0.0000030
  C        0.5978391    -0.1526603    -0.0000004
  C       -0.9157640     0.4229260    -0.0000010
  C       -3.1757780    -0.5360000     0.0000030
  C        2.6470610     0.3608020    -0.0000010
  C        2.3925880    -0.9806700     0.0000040
  H       -1.2896900    -1.5740920    -0.0000030
  H       -3.6075680    -0.9997290     0.8912900
  H       -3.6075830    -0.9997540    -0.8912630
  H       -3.4076560     0.5288570    -0.0000100
  H        3.5343540     0.9743460    -0.0000030
  H        3.0931030    -1.8035030     0.0000080
units angstrom
no_reorient  #important for SAPT in psi4, default
symmetry c1  #important for SAPT in psi4, default
}

set PROPERTIES_ORIGIN ["COM"]
properties('MP2/aug-cc-pvtz', properties = ['dipole'])
--------------------------------------------------------------------------

    Molecular point group: c1
  Charge       = 0
  Multiplicity = 1
  Basis Set: AUG-CC-PVTZ
    Blend: AUG-CC-PVTZ
  Basis Set: (AUG-CC-PVTZ AUX)
    Blend: AUG-CC-PVTZ-JKFIT

    Orbital Energies [Eh]
    ---------------------

    Doubly Occupied:

       1A    -20.632516     2A    -20.535098     3A    -15.596910
       4A    -15.583343     5A    -11.377661     6A    -11.342591
       7A    -11.316860     8A    -11.280263     9A    -11.264806
      10A     -1.483611    11A     -1.380181    12A     -1.332001
      13A     -1.240634    14A     -1.050090    15A     -0.968385
      16A     -0.862677    17A     -0.843276    18A     -0.788177
      19A     -0.768251    20A     -0.678673    21A     -0.671328
      22A     -0.654665    23A     -0.628652    24A     -0.626339
      25A     -0.587747    26A     -0.572133    27A     -0.554807
      28A     -0.542865    29A     -0.514146    30A     -0.512477
      31A     -0.428022    32A     -0.399757    33A     -0.362537

  @DF-RHF Final Energy:  -451.54896123804053

   => Energetics <=

    Nuclear Repulsion Energy =            433.9108448455058351
    One-Electron Energy =               -1476.1566546341773574
    Two-Electron Energy =                 590.6968485506309889
    Total Energy =                       -451.5489612380405333
  Basis Set: (AUG-CC-PVTZ AUX)
    Blend: AUG-CC-PVTZ-RI
    Molecular point group: c1

    Geometry (in Angstrom), charge = 0, multiplicity = 1:

       Center              X                  Y                   Z               Mass
    ------------   -----------------  -----------------  -----------------  -----------------
         O            1.401115983127     1.007941486645    -0.000003939085    15.994914619570
         O           -1.321765016873     1.590229486645     0.000005060915    15.994914619570
         N           -1.780976016873    -0.674448513355    -0.000009939085    14.003074004430
         N            0.976438983127    -1.195396513355     0.000003060915    14.003074004430
         C            0.548962083127    -0.165416813355    -0.000000339085    12.000000000000
         C           -0.964641016873     0.410169486645    -0.000000939085    12.000000000000
         C           -3.224655016873    -0.548756513355     0.000003060915    12.000000000000
         C            2.598183983127     0.348045486645    -0.000000939085    12.000000000000
         C            2.343710983127    -0.993426513355     0.000004060915    12.000000000000
         H           -1.338567016873    -1.586848513355    -0.000002939085     1.007825032230
         H           -3.656445016873    -1.012485513355     0.891290060915     1.007825032230
         H           -3.656460016873    -1.012510513355    -0.891262939085     1.007825032230
         H           -3.456533016873     0.516100486645    -0.000009939085     1.007825032230
         H            3.485476983127     0.961589486645    -0.000002939085     1.007825032230
         H            3.044225983127    -1.816259513355     0.000008060915     1.007825032230

  Basis Set: AUG-CC-PVTZ
    Blend: AUG-CC-PVTZ
  Basis Set: (AUG-CC-PVTZ AUX)
    Blend: AUG-CC-PVTZ-JKFIT
	 Reference Energy          =    -451.5489612380405333 [Eh]
	 Singles Energy            =      -0.0000000000000000 [Eh]
	 Same-Spin Energy          =      -0.4591119106815892 [Eh]
	 Opposite-Spin Energy      =      -1.3884130563174826 [Eh]
	 Correlation Energy        =      -1.8475249669990719 [Eh]
	 Total Energy              =    -453.3964862050395936 [Eh]

	 ================> DF-SCS-MP2 Energies <==================
	-----------------------------------------------------------
	 SCS Same-Spin Scale       =       0.3333333333333333 [-]
	 SCS Opposite-Spin Scale   =       1.2000000000000000 [-]
	 SCS Same-Spin Energy      =      -0.1530373035605297 [Eh]
	 SCS Opposite-Spin Energy  =      -1.6660956675809790 [Eh]
	 SCS Correlation Energy    =      -1.8191329711415087 [Eh]
	 SCS Total Energy          =    -453.3680942091820611 [Eh]
	-----------------------------------------------------------

  Dipole Moment: [D]
     X:     0.7630      Y:    -3.1702      Z:     0.0000     Total:     3.2607

*** Psi4 exiting successfully. Buy a developer a beer!
