                               Psi4 1.3.2 release

  ==> Input File <==

--------------------------------------------------------------------------
#psi4
#
memory 32 gb

molecule  {
0 1
  O        1.4325975     1.0367576    -0.0000041
  O       -1.2728880     1.6029860     0.0000050
  N       -1.7320990    -0.6616920    -0.0000100
  N        1.0253160    -1.1826400     0.0000030
  C        0.5211730     0.0320620    -0.0000010
  C       -0.9157640     0.4229260    -0.0000010
  C       -3.1757780    -0.5360000     0.0000030
  C        2.6470610     0.3608020    -0.0000010
  C        2.3925880    -0.9806700     0.0000040
  H       -1.2896900    -1.5740920    -0.0000030
  H       -3.6075680    -0.9997290     0.8912900
  H       -3.6075830    -0.9997540    -0.8912630
  H       -3.4076560     0.5288570    -0.0000100
  H        3.5343540     0.9743460    -0.0000030
  H        3.0931030    -1.8035030     0.0000080
units angstrom
no_reorient  #important for SAPT in psi4, default
symmetry c1  #important for SAPT in psi4, default
}

set PROPERTIES_ORIGIN ["COM"]
properties('MP2/aug-cc-pvtz', properties = ['dipole'])
--------------------------------------------------------------------------

    Molecular point group: c1
  Charge       = 0
  Multiplicity = 1
  Basis Set: AUG-CC-PVTZ
    Blend: AUG-CC-PVTZ
  Basis Set: (AUG-CC-PVTZ AUX)
    Blend: AUG-CC-PVTZ-JKFIT

    Orbital Energies [Eh]
    ---------------------

    Doubly Occupied:

       1A    -20.658771     2A    -20.533307     3A    -15.597152
       4A    -15.596076     5A    -11.374196     6A    -11.358675
       7A    -11.317157     8A    -11.284117     9A    -11.265764
      10A     -1.496453    11A     -1.384868    12A     -1.261493
      13A     -1.234907    14A     -1.060127    15A     -0.970720
      16A     -0.873296    17A     -0.848047    18A     -0.792971
      19A     -0.772455    20A     -0.676688    21A     -0.676496
      22A     -0.657051    23A     -0.627275    24A     -0.620999
      25A     -0.598497    26A     -0.591993    27A     -0.554195
      28A     -0.545812    29A     -0.491090    30A     -0.472333
      31A     -0.447165    32A     -0.399826    33A     -0.355749

  @DF-RHF Final Energy:  -451.60803347744229

   => Energetics <=

    Nuclear Repulsion Energy =            432.8001005972648159
    One-Electron Energy =               -1474.0248284834917740
    Two-Electron Energy =                 589.6166944087846105
    Total Energy =                       -451.6080334774422909
  Basis Set: (AUG-CC-PVTZ AUX)
    Blend: AUG-CC-PVTZ-RI
    Molecular point group: c1

    Geometry (in Angstrom), charge = 0, multiplicity = 1:

       Center              X                  Y                   Z               Mass
    ------------   -----------------  -----------------  -----------------  -----------------
         O            1.393227027933     1.004376506503    -0.000003969271    15.994914619570
         O           -1.312258472067     1.570604906503     0.000005130729    15.994914619570
         N           -1.771469472067    -0.694073093497    -0.000009869271    14.003074004430
         N            0.985945527933    -1.215021093497     0.000003130729    14.003074004430
         C            0.481802527933    -0.000319093497    -0.000000869271    12.000000000000
         C           -0.955134472067     0.390544906503    -0.000000869271    12.000000000000
         C           -3.215148472067    -0.568381093497     0.000003130729    12.000000000000
         C            2.607690527933     0.328420906503    -0.000000869271    12.000000000000
         C            2.353217527933    -1.013051093497     0.000004130729    12.000000000000
         H           -1.329060472067    -1.606473093497    -0.000002869271     1.007825032230
         H           -3.646938472067    -1.032110093497     0.891290130729     1.007825032230
         H           -3.646953472067    -1.032135093497    -0.891262869271     1.007825032230
         H           -3.447026472067     0.496475906503    -0.000009869271     1.007825032230
         H            3.494983527933     0.941964906503    -0.000002869271     1.007825032230
         H            3.053732527933    -1.835884093497     0.000008130729     1.007825032230

  Basis Set: AUG-CC-PVTZ
    Blend: AUG-CC-PVTZ
  Basis Set: (AUG-CC-PVTZ AUX)
    Blend: AUG-CC-PVTZ-JKFIT
	 Reference Energy          =    -451.6080334774422909 [Eh]
	 Singles Energy            =      -0.0000000000000000 [Eh]
	 Same-Spin Energy          =      -0.4622391466655465 [Eh]
	 Opposite-Spin Energy      =      -1.3927118521232216 [Eh]
	 Correlation Energy        =      -1.8549509987887680 [Eh]
	 Total Energy              =    -453.4629844762310427 [Eh]

	 ================> DF-SCS-MP2 Energies <==================
	-----------------------------------------------------------
	 SCS Same-Spin Scale       =       0.3333333333333333 [-]
	 SCS Opposite-Spin Scale   =       1.2000000000000000 [-]
	 SCS Same-Spin Energy      =      -0.1540797155551822 [Eh]
	 SCS Opposite-Spin Energy  =      -1.6712542225478659 [Eh]
	 SCS Correlation Energy    =      -1.8253339381030480 [Eh]
	 SCS Total Energy          =    -453.4333674155453195 [Eh]
	-----------------------------------------------------------

  Dipole Moment: [D]
     X:     1.1735      Y:    -2.7472      Z:     0.0000     Total:     2.9873

*** Psi4 exiting successfully. Buy a developer a beer!
