                               Psi4 1.3.2 release

  ==> Input File <==

--------------------------------------------------------------------------
#psi4
#
memory 32 gb

molecule  {
0 1
  O        1.4499930     1.0206980    -0.0000040
  O       -1.2728880     1.6029860     0.0000050
  N       -1.8057696    -0.6021053    -0.0000097
  N        1.0253160    -1.1826400     0.0000030
  C        0.5211730     0.0320620    -0.0000010
  C       -0.9157640     0.4229260    -0.0000010
  C       -3.1757780    -0.5360000     0.0000030
  C        2.6470610     0.3608020    -0.0000010
  C        2.3925880    -0.9806700     0.0000040
  H       -1.2896900    -1.5740920    -0.0000030
  H       -3.6075680    -0.9997290     0.8912900
  H       -3.6075830    -0.9997540    -0.8912630
  H       -3.4076560     0.5288570    -0.0000100
  H        3.5343540     0.9743460    -0.0000030
  H        3.0931030    -1.8035030     0.0000080
units angstrom
no_reorient  #important for SAPT in psi4, default
symmetry c1  #important for SAPT in psi4, default
}

set PROPERTIES_ORIGIN ["COM"]
properties('MP2/aug-cc-pvtz', properties = ['dipole'])
--------------------------------------------------------------------------

    Molecular point group: c1
  Charge       = 0
  Multiplicity = 1
  Basis Set: AUG-CC-PVTZ
    Blend: AUG-CC-PVTZ
  Basis Set: (AUG-CC-PVTZ AUX)
    Blend: AUG-CC-PVTZ-JKFIT

    Orbital Energies [Eh]
    ---------------------

    Doubly Occupied:

       1A    -20.662506     2A    -20.529641     3A    -15.599839
       4A    -15.599822     5A    -11.374696     6A    -11.362365
       7A    -11.319109     8A    -11.284124     9A    -11.258632
      10A     -1.506643    11A     -1.386377    12A     -1.262737
      13A     -1.240979    14A     -1.066067    15A     -0.977869
      16A     -0.873668    17A     -0.850615    18A     -0.787770
      19A     -0.764285    20A     -0.685389    21A     -0.683028
      22A     -0.661149    23A     -0.636377    24A     -0.629459
      25A     -0.602575    26A     -0.593969    27A     -0.543740
      28A     -0.537345    29A     -0.492980    30A     -0.474087
      31A     -0.445975    32A     -0.391708    33A     -0.357428

  @DF-RHF Final Energy:  -451.59534534841526

   => Energetics <=

    Nuclear Repulsion Energy =            433.3896326502639909
    One-Electron Energy =               -1475.0840469026986739
    Two-Electron Energy =                 590.0990689040194184
    Total Energy =                       -451.5953453484152078
  Basis Set: (AUG-CC-PVTZ AUX)
    Blend: AUG-CC-PVTZ-RI
    Molecular point group: c1

    Geometry (in Angstrom), charge = 0, multiplicity = 1:

       Center              X                  Y                   Z               Mass
    ------------   -----------------  -----------------  -----------------  -----------------
         O            1.416599660818     0.983734935498    -0.000003915291    15.994914619570
         O           -1.306281339182     1.566022935498     0.000005084709    15.994914619570
         N           -1.839162939182    -0.639068364502    -0.000009615291    14.003074004430
         N            0.991922660818    -1.219603064502     0.000003084709    14.003074004430
         C            0.487779660818    -0.004901064502    -0.000000915291    12.000000000000
         C           -0.949157339182     0.385962935498    -0.000000915291    12.000000000000
         C           -3.209171339182    -0.572963064502     0.000003084709    12.000000000000
         C            2.613667660818     0.323838935498    -0.000000915291    12.000000000000
         C            2.359194660818    -1.017633064502     0.000004084709    12.000000000000
         H           -1.323083339182    -1.611055064502    -0.000002915291     1.007825032230
         H           -3.640961339182    -1.036692064502     0.891290084709     1.007825032230
         H           -3.640976339182    -1.036717064502    -0.891262915291     1.007825032230
         H           -3.441049339182     0.491893935498    -0.000009915291     1.007825032230
         H            3.500960660818     0.937382935498    -0.000002915291     1.007825032230
         H            3.059709660818    -1.840466064502     0.000008084709     1.007825032230

  Basis Set: AUG-CC-PVTZ
    Blend: AUG-CC-PVTZ
  Basis Set: (AUG-CC-PVTZ AUX)
    Blend: AUG-CC-PVTZ-JKFIT
	 Reference Energy          =    -451.5953453484152647 [Eh]
	 Singles Energy            =      -0.0000000000000000 [Eh]
	 Same-Spin Energy          =      -0.4633405790118446 [Eh]
	 Opposite-Spin Energy      =      -1.3935171016258012 [Eh]
	 Correlation Energy        =      -1.8568576806376458 [Eh]
	 Total Energy              =    -453.4522030290528960 [Eh]

	 ================> DF-SCS-MP2 Energies <==================
	-----------------------------------------------------------
	 SCS Same-Spin Scale       =       0.3333333333333333 [-]
	 SCS Opposite-Spin Scale   =       1.2000000000000000 [-]
	 SCS Same-Spin Energy      =      -0.1544468596706149 [Eh]
	 SCS Opposite-Spin Energy  =      -1.6722205219509614 [Eh]
	 SCS Correlation Energy    =      -1.8266673816215762 [Eh]
	 SCS Total Energy          =    -453.4220127300368404 [Eh]
	-----------------------------------------------------------

  Dipole Moment: [D]
     X:     1.4264      Y:    -2.7570      Z:     0.0000     Total:     3.1041

*** Psi4 exiting successfully. Buy a developer a beer!
