                               Psi4 1.3.2 release

  ==> Input File <==

--------------------------------------------------------------------------
#psi4
#
memory 32 gb

molecule  {
0 1
  O        1.4499930     1.0206980    -0.0000040
  O       -1.2728880     1.6029860     0.0000050
  N       -1.7320990    -0.6616920    -0.0000100
  N        1.0253160    -1.1826400     0.0000030
  C        0.4445069     0.2167843    -0.0000016
  C       -0.9157640     0.4229260    -0.0000010
  C       -3.1757780    -0.5360000     0.0000030
  C        2.6470610     0.3608020    -0.0000010
  C        2.3925880    -0.9806700     0.0000040
  H       -1.2896900    -1.5740920    -0.0000030
  H       -3.6075680    -0.9997290     0.8912900
  H       -3.6075830    -0.9997540    -0.8912630
  H       -3.4076560     0.5288570    -0.0000100
  H        3.5343540     0.9743460    -0.0000030
  H        3.0931030    -1.8035030     0.0000080
units angstrom
no_reorient  #important for SAPT in psi4, default
symmetry c1  #important for SAPT in psi4, default
}

set PROPERTIES_ORIGIN ["COM"]
properties('MP2/aug-cc-pvtz', properties = ['dipole'])
--------------------------------------------------------------------------

    Molecular point group: c1
  Charge       = 0
  Multiplicity = 1
  Basis Set: AUG-CC-PVTZ
    Blend: AUG-CC-PVTZ
  Basis Set: (AUG-CC-PVTZ AUX)
    Blend: AUG-CC-PVTZ-JKFIT

    Orbital Energies [Eh]
    ---------------------

    Doubly Occupied:

       1A    -20.680074     2A    -20.530456     3A    -15.599124
       4A    -15.596538     5A    -11.367627     6A    -11.365782
       7A    -11.318226     8A    -11.286153     9A    -11.266088
      10A     -1.529267    11A     -1.392146    12A     -1.244917
      13A     -1.198053    14A     -1.077418    15A     -0.977072
      16A     -0.894175    17A     -0.851779    18A     -0.793116
      19A     -0.780641    20A     -0.696317    21A     -0.692873
      22A     -0.658954    23A     -0.628803    24A     -0.617182
      25A     -0.611054    26A     -0.574417    27A     -0.553769
      28A     -0.550325    29A     -0.467810    30A     -0.451025
      31A     -0.445513    32A     -0.399298    33A     -0.338075

  @DF-RHF Final Energy:  -451.55142466526900

   => Energetics <=

    Nuclear Repulsion Energy =            433.0100366150030595
    One-Electron Energy =               -1474.2547831924441653
    Two-Electron Energy =                 589.6933219121722232
    Total Energy =                       -451.5514246652689963
  Basis Set: (AUG-CC-PVTZ AUX)
    Blend: AUG-CC-PVTZ-RI
    Molecular point group: c1

    Geometry (in Angstrom), charge = 0, multiplicity = 1:

       Center              X                  Y                   Z               Mass
    ------------   -----------------  -----------------  -----------------  -----------------
         O            1.415714076311     0.972768269948    -0.000003824838    15.994914619570
         O           -1.307166923689     1.555056269948     0.000005175162    15.994914619570
         N           -1.766377923689    -0.709621730052    -0.000009824838    14.003074004430
         N            0.991037076311    -1.230569730052     0.000003175162    14.003074004430
         C            0.410227976311     0.168854569948    -0.000001424838    12.000000000000
         C           -0.950042923689     0.374996269948    -0.000000824838    12.000000000000
         C           -3.210056923689    -0.583929730052     0.000003175162    12.000000000000
         C            2.612782076311     0.312872269948    -0.000000824838    12.000000000000
         C            2.358309076311    -1.028599730052     0.000004175162    12.000000000000
         H           -1.323968923689    -1.622021730052    -0.000002824838     1.007825032230
         H           -3.641846923689    -1.047658730052     0.891290175162     1.007825032230
         H           -3.641861923689    -1.047683730052    -0.891262824838     1.007825032230
         H           -3.441934923689     0.480927269948    -0.000009824838     1.007825032230
         H            3.500075076311     0.926416269948    -0.000002824838     1.007825032230
         H            3.058824076311    -1.851432730052     0.000008175162     1.007825032230

  Basis Set: AUG-CC-PVTZ
    Blend: AUG-CC-PVTZ
  Basis Set: (AUG-CC-PVTZ AUX)
    Blend: AUG-CC-PVTZ-JKFIT
	 Reference Energy          =    -451.5514246652689963 [Eh]
	 Singles Energy            =      -0.0000000000000000 [Eh]
	 Same-Spin Energy          =      -0.4688651036462503 [Eh]
	 Opposite-Spin Energy      =      -1.4022494709782412 [Eh]
	 Correlation Energy        =      -1.8711145746244915 [Eh]
	 Total Energy              =    -453.4225392398934673 [Eh]

	 ================> DF-SCS-MP2 Energies <==================
	-----------------------------------------------------------
	 SCS Same-Spin Scale       =       0.3333333333333333 [-]
	 SCS Opposite-Spin Scale   =       1.2000000000000000 [-]
	 SCS Same-Spin Energy      =      -0.1562883678820834 [Eh]
	 SCS Opposite-Spin Energy  =      -1.6826993651738893 [Eh]
	 SCS Correlation Energy    =      -1.8389877330559727 [Eh]
	 SCS Total Energy          =    -453.3904123983249974 [Eh]
	-----------------------------------------------------------

  Dipole Moment: [D]
     X:     1.5943      Y:    -2.4050      Z:     0.0000     Total:     2.8854

*** Psi4 exiting successfully. Buy a developer a beer!
