                               Psi4 1.3.2 release

  ==> Input File <==

--------------------------------------------------------------------------
#psi4
#
memory 32 gb

molecule  {
0 1
  O        1.4499930     1.0206980    -0.0000040
  O       -1.2728880     1.6029860     0.0000050
  N       -1.7320990    -0.6616920    -0.0000100
  N        1.0427353    -1.2775241     0.0000034
  C        0.5211730     0.0320620    -0.0000010
  C       -0.9157640     0.4229260    -0.0000010
  C       -3.1757780    -0.5360000     0.0000030
  C        2.6470610     0.3608020    -0.0000010
  C        2.3925880    -0.9806700     0.0000040
  H       -1.2896900    -1.5740920    -0.0000030
  H       -3.6075680    -0.9997290     0.8912900
  H       -3.6075830    -0.9997540    -0.8912630
  H       -3.4076560     0.5288570    -0.0000100
  H        3.5343540     0.9743460    -0.0000030
  H        3.0931030    -1.8035030     0.0000080
units angstrom
no_reorient  #important for SAPT in psi4, default
symmetry c1  #important for SAPT in psi4, default
}

set PROPERTIES_ORIGIN ["COM"]
properties('MP2/aug-cc-pvtz', properties = ['dipole'])
--------------------------------------------------------------------------

    Molecular point group: c1
  Charge       = 0
  Multiplicity = 1
  Basis Set: AUG-CC-PVTZ
    Blend: AUG-CC-PVTZ
  Basis Set: (AUG-CC-PVTZ AUX)
    Blend: AUG-CC-PVTZ-JKFIT

    Orbital Energies [Eh]
    ---------------------

    Doubly Occupied:

       1A    -20.671285     2A    -20.534864     3A    -15.610216
       4A    -15.598625     5A    -11.377088     6A    -11.372390
       7A    -11.314933     8A    -11.283136     9A    -11.266702
      10A     -1.505349    11A     -1.386881    12A     -1.251818
      13A     -1.227668    14A     -1.057375    15A     -0.971580
      16A     -0.878646    17A     -0.841602    18A     -0.797234
      19A     -0.774727    20A     -0.679575    21A     -0.678761
      22A     -0.655817    23A     -0.628966    24A     -0.611216
      25A     -0.597881    26A     -0.592843    27A     -0.555025
      28A     -0.547655    29A     -0.498664    30A     -0.466529
      31A     -0.449280    32A     -0.401248    33A     -0.347054

  @DF-RHF Final Energy:  -451.59053994094319

   => Energetics <=

    Nuclear Repulsion Energy =            430.6631931203012300
    One-Electron Energy =               -1469.6421939349040713
    Two-Electron Energy =                 587.3884608736595965
    Total Energy =                       -451.5905399409432448
  Basis Set: (AUG-CC-PVTZ AUX)
    Blend: AUG-CC-PVTZ-RI
    Molecular point group: c1

    Geometry (in Angstrom), charge = 0, multiplicity = 1:

       Center              X                  Y                   Z               Mass
    ------------   -----------------  -----------------  -----------------  -----------------
         O            1.406479786291     1.000896279556    -0.000003926400    15.994914619570
         O           -1.316401213709     1.583184279556     0.000005073600    15.994914619570
         N           -1.775612213709    -0.681493720444    -0.000009926400    14.003074004430
         N            0.999222086291    -1.297325820444     0.000003473600    14.003074004430
         C            0.477659786291     0.012260279556    -0.000000926400    12.000000000000
         C           -0.959277213709     0.403124279556    -0.000000926400    12.000000000000
         C           -3.219291213709    -0.555801720444     0.000003073600    12.000000000000
         C            2.603547786291     0.341000279556    -0.000000926400    12.000000000000
         C            2.349074786291    -1.000471720444     0.000004073600    12.000000000000
         H           -1.333203213709    -1.593893720444    -0.000002926400     1.007825032230
         H           -3.651081213709    -1.019530720444     0.891290073600     1.007825032230
         H           -3.651096213709    -1.019555720444    -0.891262926400     1.007825032230
         H           -3.451169213709     0.509055279556    -0.000009926400     1.007825032230
         H            3.490840786291     0.954544279556    -0.000002926400     1.007825032230
         H            3.049589786291    -1.823304720444     0.000008073600     1.007825032230

  Basis Set: AUG-CC-PVTZ
    Blend: AUG-CC-PVTZ
  Basis Set: (AUG-CC-PVTZ AUX)
    Blend: AUG-CC-PVTZ-JKFIT
	 Reference Energy          =    -451.5905399409431880 [Eh]
	 Singles Energy            =      -0.0000000000000000 [Eh]
	 Same-Spin Energy          =      -0.4652091844445478 [Eh]
	 Opposite-Spin Energy      =      -1.3981286176166123 [Eh]
	 Correlation Energy        =      -1.8633378020611602 [Eh]
	 Total Energy              =    -453.4538777430043410 [Eh]

	 ================> DF-SCS-MP2 Energies <==================
	-----------------------------------------------------------
	 SCS Same-Spin Scale       =       0.3333333333333333 [-]
	 SCS Opposite-Spin Scale   =       1.2000000000000000 [-]
	 SCS Same-Spin Energy      =      -0.1550697281481826 [Eh]
	 SCS Opposite-Spin Energy  =      -1.6777543411399347 [Eh]
	 SCS Correlation Energy    =      -1.8328240692881173 [Eh]
	 SCS Total Energy          =    -453.4233640102312961 [Eh]
	-----------------------------------------------------------

  Dipole Moment: [D]
     X:     1.1946      Y:    -2.5168      Z:     0.0000     Total:     2.7859

*** Psi4 exiting successfully. Buy a developer a beer!
