                               Psi4 1.3.2 release

  ==> Input File <==

--------------------------------------------------------------------------
#psi4
#
memory 32 gb

molecule  {
0 1
  O        1.4499930     1.0206980    -0.0000040
  O       -1.2728880     1.6029860     0.0000050
  N       -1.7320990    -0.6616920    -0.0000100
  N        1.0253160    -1.1826400     0.0000030
  C        0.4527015    -0.0408191    -0.0000008
  C       -0.9157640     0.4229260    -0.0000010
  C       -3.1757780    -0.5360000     0.0000030
  C        2.6470610     0.3608020    -0.0000010
  C        2.3925880    -0.9806700     0.0000040
  H       -1.2896900    -1.5740920    -0.0000030
  H       -3.6075680    -0.9997290     0.8912900
  H       -3.6075830    -0.9997540    -0.8912630
  H       -3.4076560     0.5288570    -0.0000100
  H        3.5343540     0.9743460    -0.0000030
  H        3.0931030    -1.8035030     0.0000080
units angstrom
no_reorient  #important for SAPT in psi4, default
symmetry c1  #important for SAPT in psi4, default
}

set PROPERTIES_ORIGIN ["COM"]
properties('MP2/aug-cc-pvtz', properties = ['dipole'])
--------------------------------------------------------------------------

    Molecular point group: c1
  Charge       = 0
  Multiplicity = 1
  Basis Set: AUG-CC-PVTZ
    Blend: AUG-CC-PVTZ
  Basis Set: (AUG-CC-PVTZ AUX)
    Blend: AUG-CC-PVTZ-JKFIT

    Orbital Energies [Eh]
    ---------------------

    Doubly Occupied:

       1A    -20.641307     2A    -20.535702     3A    -15.602786
       4A    -15.598219     5A    -11.375229     6A    -11.355821
       7A    -11.320460     8A    -11.279409     9A    -11.266306
      10A     -1.467065    11A     -1.386737    12A     -1.270046
      13A     -1.238824    14A     -1.062732    15A     -0.976150
      16A     -0.879358    17A     -0.845035    18A     -0.790609
      19A     -0.765771    20A     -0.681342    21A     -0.664388
      22A     -0.660341    23A     -0.626147    24A     -0.621798
      25A     -0.601565    26A     -0.575106    27A     -0.555354
      28A     -0.548786    29A     -0.489999    30A     -0.476834
      31A     -0.449967    32A     -0.401728    33A     -0.354798

  @DF-RHF Final Energy:  -451.59582941205389

   => Energetics <=

    Nuclear Repulsion Energy =            432.8523136748076467
    One-Electron Energy =               -1474.1648531431951596
    Two-Electron Energy =                 589.7167100563336817
    Total Energy =                       -451.5958294120538312
  Basis Set: (AUG-CC-PVTZ AUX)
    Blend: AUG-CC-PVTZ-RI
    Molecular point group: c1

    Geometry (in Angstrom), charge = 0, multiplicity = 1:

       Center              X                  Y                   Z               Mass
    ------------   -----------------  -----------------  -----------------  -----------------
         O            1.414933904016     0.997293571468    -0.000003901003    15.994914619570
         O           -1.307947095984     1.579581571468     0.000005098997    15.994914619570
         N           -1.767158095984    -0.685096428532    -0.000009901003    14.003074004430
         N            0.990256904016    -1.206044428532     0.000003098997    14.003074004430
         C            0.417642404016    -0.064223528532    -0.000000701003    12.000000000000
         C           -0.950823095984     0.399521571468    -0.000000901003    12.000000000000
         C           -3.210837095984    -0.559404428532     0.000003098997    12.000000000000
         C            2.612001904016     0.337397571468    -0.000000901003    12.000000000000
         C            2.357528904016    -1.004074428532     0.000004098997    12.000000000000
         H           -1.324749095984    -1.597496428532    -0.000002901003     1.007825032230
         H           -3.642627095984    -1.023133428532     0.891290098997     1.007825032230
         H           -3.642642095984    -1.023158428532    -0.891262901003     1.007825032230
         H           -3.442715095984     0.505452571468    -0.000009901003     1.007825032230
         H            3.499294904016     0.950941571468    -0.000002901003     1.007825032230
         H            3.058043904016    -1.826907428532     0.000008098997     1.007825032230

  Basis Set: AUG-CC-PVTZ
    Blend: AUG-CC-PVTZ
  Basis Set: (AUG-CC-PVTZ AUX)
    Blend: AUG-CC-PVTZ-JKFIT
	 Reference Energy          =    -451.5958294120538881 [Eh]
	 Singles Energy            =      -0.0000000000000000 [Eh]
	 Same-Spin Energy          =      -0.4633971111575260 [Eh]
	 Opposite-Spin Energy      =      -1.3946231293950699 [Eh]
	 Correlation Energy        =      -1.8580202405525958 [Eh]
	 Total Energy              =    -453.4538496526064932 [Eh]

	 ================> DF-SCS-MP2 Energies <==================
	-----------------------------------------------------------
	 SCS Same-Spin Scale       =       0.3333333333333333 [-]
	 SCS Opposite-Spin Scale   =       1.2000000000000000 [-]
	 SCS Same-Spin Energy      =      -0.1544657037191753 [Eh]
	 SCS Opposite-Spin Energy  =      -1.6735477552740838 [Eh]
	 SCS Correlation Energy    =      -1.8280134589932593 [Eh]
	 SCS Total Energy          =    -453.4238428710471567 [Eh]
	-----------------------------------------------------------

  Dipole Moment: [D]
     X:     0.9602      Y:    -2.9009      Z:     0.0000     Total:     3.0557

*** Psi4 exiting successfully. Buy a developer a beer!
