                               Psi4 1.3.2 release

  ==> Input File <==

--------------------------------------------------------------------------
#psi4
#
memory 32 gb

molecule  {
0 1
  O        1.4499930     1.0206980    -0.0000040
  O       -1.2728880     1.6029860     0.0000050
  N       -1.7320990    -0.6616920    -0.0000100
  N        1.0253160    -1.1826400     0.0000030
  C        0.5211730     0.0320620    -0.0000010
  C       -0.9157640     0.4229260    -0.0000010
  C       -3.1757780    -0.5360000     0.0000030
  C        2.6470610     0.3608020    -0.0000010
  C        2.5904410    -0.9514436     0.0000041
  H       -1.2896900    -1.5740920    -0.0000030
  H       -3.6075680    -0.9997290     0.8912900
  H       -3.6075830    -0.9997540    -0.8912630
  H       -3.4076560     0.5288570    -0.0000100
  H        3.5343540     0.9743460    -0.0000030
  H        3.0931030    -1.8035030     0.0000080
units angstrom
no_reorient  #important for SAPT in psi4, default
symmetry c1  #important for SAPT in psi4, default
}

set PROPERTIES_ORIGIN ["COM"]
properties('MP2/aug-cc-pvtz', properties = ['dipole'])
--------------------------------------------------------------------------

    Molecular point group: c1
  Charge       = 0
  Multiplicity = 1
  Basis Set: AUG-CC-PVTZ
    Blend: AUG-CC-PVTZ
  Basis Set: (AUG-CC-PVTZ AUX)
    Blend: AUG-CC-PVTZ-JKFIT

    Orbital Energies [Eh]
    ---------------------

    Doubly Occupied:

       1A    -20.652833     2A    -20.535270     3A    -15.597372
       4A    -15.597095     5A    -11.376001     6A    -11.357521
       7A    -11.320736     8A    -11.282996     9A    -11.265724
      10A     -1.496984    11A     -1.386532    12A     -1.248176
      13A     -1.204124    14A     -1.073235    15A     -0.974030
      16A     -0.885334    17A     -0.844085    18A     -0.789865
      19A     -0.773772    20A     -0.678635    21A     -0.675829
      22A     -0.655019    23A     -0.637273    24A     -0.627876
      25A     -0.601115    26A     -0.576799    27A     -0.553869
      28A     -0.547519    29A     -0.472736    30A     -0.446358
      31A     -0.442843    32A     -0.400147    33A     -0.380538

  @DF-RHF Final Energy:  -451.57746691950905

   => Energetics <=

    Nuclear Repulsion Energy =            430.1663655753172293
    One-Electron Energy =               -1468.7711877079207170
    Two-Electron Energy =                 587.0273552130943244
    Total Energy =                       -451.5774669195091064
  Basis Set: (AUG-CC-PVTZ AUX)
    Blend: AUG-CC-PVTZ-RI
    Molecular point group: c1

    Geometry (in Angstrom), charge = 0, multiplicity = 1:

       Center              X                  Y                   Z               Mass
    ------------   -----------------  -----------------  -----------------  -----------------
         O            1.389578304421     0.987572359617    -0.000003891482    15.994914619570
         O           -1.333302695579     1.569860359617     0.000005108518    15.994914619570
         N           -1.792513695579    -0.694817640383    -0.000009891482    14.003074004430
         N            0.964901304421    -1.215765640383     0.000003108518    14.003074004430
         C            0.460758304421    -0.001063640383    -0.000000891482    12.000000000000
         C           -0.976178695579     0.389800359617    -0.000000891482    12.000000000000
         C           -3.236192695579    -0.569125640383     0.000003108518    12.000000000000
         C            2.586646304421     0.327676359617    -0.000000891482    12.000000000000
         C            2.530026304421    -0.984569240383     0.000004208518    12.000000000000
         H           -1.350104695579    -1.607217640383    -0.000002891482     1.007825032230
         H           -3.667982695579    -1.032854640383     0.891290108518     1.007825032230
         H           -3.667997695579    -1.032879640383    -0.891262891482     1.007825032230
         H           -3.468070695579     0.495731359617    -0.000009891482     1.007825032230
         H            3.473939304421     0.941220359617    -0.000002891482     1.007825032230
         H            3.032688304421    -1.836628640383     0.000008108518     1.007825032230

  Basis Set: AUG-CC-PVTZ
    Blend: AUG-CC-PVTZ
  Basis Set: (AUG-CC-PVTZ AUX)
    Blend: AUG-CC-PVTZ-JKFIT
	 Reference Energy          =    -451.5774669195090496 [Eh]
	 Singles Energy            =      -0.0000000000000000 [Eh]
	 Same-Spin Energy          =      -0.4600692738496976 [Eh]
	 Opposite-Spin Energy      =      -1.3934734699222162 [Eh]
	 Correlation Energy        =      -1.8535427437719139 [Eh]
	 Total Energy              =    -453.4310096632809746 [Eh]

	 ================> DF-SCS-MP2 Energies <==================
	-----------------------------------------------------------
	 SCS Same-Spin Scale       =       0.3333333333333333 [-]
	 SCS Opposite-Spin Scale   =       1.2000000000000000 [-]
	 SCS Same-Spin Energy      =      -0.1533564246165658 [Eh]
	 SCS Opposite-Spin Energy  =      -1.6721681639066595 [Eh]
	 SCS Correlation Energy    =      -1.8255245885232254 [Eh]
	 SCS Total Energy          =    -453.4029915080323008 [Eh]
	-----------------------------------------------------------

  Dipole Moment: [D]
     X:     1.0612      Y:    -2.7225      Z:     0.0000     Total:     2.9220

*** Psi4 exiting successfully. Buy a developer a beer!
