                               Psi4 1.3.2 release

  ==> Input File <==

--------------------------------------------------------------------------
#psi4
#
memory 32 gb

molecule  {
0 1
  O        1.4499930     1.0206980    -0.0000040
  O       -1.2728880     1.6029860     0.0000050
  N       -1.7509039    -0.6472798    -0.0000099
  N        1.0253160    -1.1826400     0.0000030
  C        0.5211730     0.0320620    -0.0000010
  C       -0.9157640     0.4229260    -0.0000010
  C       -3.1757780    -0.5360000     0.0000030
  C        2.6470610     0.3608020    -0.0000010
  C        2.3925880    -0.9806700     0.0000040
  H       -1.2896900    -1.5740920    -0.0000030
  H       -3.6075680    -0.9997290     0.8912900
  H       -3.6075830    -0.9997540    -0.8912630
  H       -3.4076560     0.5288570    -0.0000100
  H        3.5343540     0.9743460    -0.0000030
  H        3.0931030    -1.8035030     0.0000080
units angstrom
no_reorient  #important for SAPT in psi4, default
symmetry c1  #important for SAPT in psi4, default
}

set PROPERTIES_ORIGIN ["COM"]
properties('MP2/aug-cc-pvtz', properties = ['dipole'])
--------------------------------------------------------------------------

    Molecular point group: c1
  Charge       = 0
  Multiplicity = 1
  Basis Set: AUG-CC-PVTZ
    Blend: AUG-CC-PVTZ
  Basis Set: (AUG-CC-PVTZ AUX)
    Blend: AUG-CC-PVTZ-JKFIT

    Orbital Energies [Eh]
    ---------------------

    Doubly Occupied:

       1A    -20.660033     2A    -20.532379     3A    -15.597945
       4A    -15.597095     5A    -11.374621     6A    -11.358686
       7A    -11.316858     8A    -11.282306     9A    -11.264007
      10A     -1.504381    11A     -1.385424    12A     -1.261468
      13A     -1.235976    14A     -1.062659    15A     -0.972722
      16A     -0.873533    17A     -0.849628    18A     -0.791053
      19A     -0.772552    20A     -0.681631    21A     -0.680779
      22A     -0.657736    23A     -0.629855    24A     -0.623075
      25A     -0.599374    26A     -0.591903    27A     -0.550675
      28A     -0.545728    29A     -0.491604    30A     -0.472231
      31A     -0.447149    32A     -0.397934    33A     -0.355395

  @DF-RHF Final Energy:  -451.60853125697497

   => Energetics <=

    Nuclear Repulsion Energy =            433.1870450089793394
    One-Electron Energy =               -1474.7543615807510378
    Two-Electron Energy =                 589.9587853147967280
    Total Energy =                       -451.6085312569749703
  Basis Set: (AUG-CC-PVTZ AUX)
    Blend: AUG-CC-PVTZ-RI
    Molecular point group: c1

    Geometry (in Angstrom), charge = 0, multiplicity = 1:

       Center              X                  Y                   Z               Mass
    ------------   -----------------  -----------------  -----------------  -----------------
         O            1.410504210062     0.988753716634    -0.000003893071    15.994914619570
         O           -1.312376789938     1.571041716634     0.000005106929    15.994914619570
         N           -1.790392689938    -0.679224083366    -0.000009793071    14.003074004430
         N            0.985827210062    -1.214584283366     0.000003106929    14.003074004430
         C            0.481684210062     0.000117716634    -0.000000893071    12.000000000000
         C           -0.955252789938     0.390981716634    -0.000000893071    12.000000000000
         C           -3.215266789938    -0.567944283366     0.000003106929    12.000000000000
         C            2.607572210062     0.328857716634    -0.000000893071    12.000000000000
         C            2.353099210062    -1.012614283366     0.000004106929    12.000000000000
         H           -1.329178789938    -1.606036283366    -0.000002893071     1.007825032230
         H           -3.647056789938    -1.031673283366     0.891290106929     1.007825032230
         H           -3.647071789938    -1.031698283366    -0.891262893071     1.007825032230
         H           -3.447144789938     0.496912716634    -0.000009893071     1.007825032230
         H            3.494865210062     0.942401716634    -0.000002893071     1.007825032230
         H            3.053614210062    -1.835447283366     0.000008106929     1.007825032230

  Basis Set: AUG-CC-PVTZ
    Blend: AUG-CC-PVTZ
  Basis Set: (AUG-CC-PVTZ AUX)
    Blend: AUG-CC-PVTZ-JKFIT
	 Reference Energy          =    -451.6085312569749703 [Eh]
	 Singles Energy            =      -0.0000000000000000 [Eh]
	 Same-Spin Energy          =      -0.4624185067409934 [Eh]
	 Opposite-Spin Energy      =      -1.3921696744252330 [Eh]
	 Correlation Energy        =      -1.8545881811662264 [Eh]
	 Total Energy              =    -453.4631194381411774 [Eh]

	 ================> DF-SCS-MP2 Energies <==================
	-----------------------------------------------------------
	 SCS Same-Spin Scale       =       0.3333333333333333 [-]
	 SCS Opposite-Spin Scale   =       1.2000000000000000 [-]
	 SCS Same-Spin Energy      =      -0.1541395022469978 [Eh]
	 SCS Opposite-Spin Energy  =      -1.6706036093102796 [Eh]
	 SCS Correlation Energy    =      -1.8247431115572774 [Eh]
	 SCS Total Energy          =    -453.4332743685322384 [Eh]
	-----------------------------------------------------------

  Dipole Moment: [D]
     X:     1.2175      Y:    -2.7138      Z:     0.0000     Total:     2.9744

*** Psi4 exiting successfully. Buy a developer a beer!
