                               Psi4 1.3.2 release

  ==> Input File <==

--------------------------------------------------------------------------
#psi4
#
memory 32 gb

molecule  {
0 1
  O        1.3787667     1.0830809    -0.0000042
  O       -1.2728880     1.6029860     0.0000050
  N       -1.7320990    -0.6616920    -0.0000100
  N        1.0253160    -1.1826400     0.0000030
  C        0.5211730     0.0320620    -0.0000010
  C       -0.9157640     0.4229260    -0.0000010
  C       -3.1757780    -0.5360000     0.0000030
  C        2.6470610     0.3608020    -0.0000010
  C        2.3925880    -0.9806700     0.0000040
  H       -1.2896900    -1.5740920    -0.0000030
  H       -3.6075680    -0.9997290     0.8912900
  H       -3.6075830    -0.9997540    -0.8912630
  H       -3.4076560     0.5288570    -0.0000100
  H        3.5343540     0.9743460    -0.0000030
  H        3.0931030    -1.8035030     0.0000080
units angstrom
no_reorient  #important for SAPT in psi4, default
symmetry c1  #important for SAPT in psi4, default
}

set PROPERTIES_ORIGIN ["COM"]
properties('MP2/aug-cc-pvtz', properties = ['dipole'])
--------------------------------------------------------------------------

    Molecular point group: c1
  Charge       = 0
  Multiplicity = 1
  Basis Set: AUG-CC-PVTZ
    Blend: AUG-CC-PVTZ
  Basis Set: (AUG-CC-PVTZ AUX)
    Blend: AUG-CC-PVTZ-JKFIT

    Orbital Energies [Eh]
    ---------------------

    Doubly Occupied:

       1A    -20.657249     2A    -20.532796     3A    -15.596655
       4A    -15.595730     5A    -11.372055     6A    -11.362082
       7A    -11.320615     8A    -11.291163     9A    -11.265264
      10A     -1.477651    11A     -1.383177    12A     -1.262552
      13A     -1.235176    14A     -1.056482    15A     -0.969924
      16A     -0.872286    17A     -0.844286    18A     -0.790235
      19A     -0.767310    20A     -0.668187    21A     -0.666864
      22A     -0.657751    23A     -0.625133    24A     -0.621450
      25A     -0.603281    26A     -0.587219    27A     -0.553617
      28A     -0.543546    29A     -0.491350    30A     -0.474754
      31A     -0.446090    32A     -0.399258    33A     -0.358467

  @DF-RHF Final Energy:  -451.59809674515128

   => Energetics <=

    Nuclear Repulsion Energy =            431.8887199173530576
    One-Electron Energy =               -1472.2743289581446788
    Two-Electron Energy =                 588.7875122956404539
    Total Energy =                       -451.5980967451512242
  Basis Set: (AUG-CC-PVTZ AUX)
    Blend: AUG-CC-PVTZ-RI
    Molecular point group: c1

    Geometry (in Angstrom), charge = 0, multiplicity = 1:

       Center              X                  Y                   Z               Mass
    ------------   -----------------  -----------------  -----------------  -----------------
         O            1.346227385122     1.044821355063    -0.000004056581    15.994914619570
         O           -1.305427314878     1.564726455063     0.000005143419    15.994914619570
         N           -1.764638314878    -0.699951544937    -0.000009856581    14.003074004430
         N            0.992776685122    -1.220899544937     0.000003143419    14.003074004430
         C            0.488633685122    -0.006197544937    -0.000000856581    12.000000000000
         C           -0.948303314878     0.384666455063    -0.000000856581    12.000000000000
         C           -3.208317314878    -0.574259544937     0.000003143419    12.000000000000
         C            2.614521685122     0.322542455063    -0.000000856581    12.000000000000
         C            2.360048685122    -1.018929544937     0.000004143419    12.000000000000
         H           -1.322229314878    -1.612351544937    -0.000002856581     1.007825032230
         H           -3.640107314878    -1.037988544937     0.891290143419     1.007825032230
         H           -3.640122314878    -1.038013544937    -0.891262856581     1.007825032230
         H           -3.440195314878     0.490597455063    -0.000009856581     1.007825032230
         H            3.501814685122     0.936086455063    -0.000002856581     1.007825032230
         H            3.060563685122    -1.841762544937     0.000008143419     1.007825032230

  Basis Set: AUG-CC-PVTZ
    Blend: AUG-CC-PVTZ
  Basis Set: (AUG-CC-PVTZ AUX)
    Blend: AUG-CC-PVTZ-JKFIT
	 Reference Energy          =    -451.5980967451512811 [Eh]
	 Singles Energy            =      -0.0000000000000000 [Eh]
	 Same-Spin Energy          =      -0.4625208745900181 [Eh]
	 Opposite-Spin Energy      =      -1.3952594531411653 [Eh]
	 Correlation Energy        =      -1.8577803277311835 [Eh]
	 Total Energy              =    -453.4558770728824584 [Eh]

	 ================> DF-SCS-MP2 Energies <==================
	-----------------------------------------------------------
	 SCS Same-Spin Scale       =       0.3333333333333333 [-]
	 SCS Opposite-Spin Scale   =       1.2000000000000000 [-]
	 SCS Same-Spin Energy      =      -0.1541736248633394 [Eh]
	 SCS Opposite-Spin Energy  =      -1.6743113437693984 [Eh]
	 SCS Correlation Energy    =      -1.8284849686327378 [Eh]
	 SCS Total Energy          =    -453.4265817137840031 [Eh]
	-----------------------------------------------------------

  Dipole Moment: [D]
     X:     1.2588      Y:    -2.8866      Z:     0.0000     Total:     3.1492

*** Psi4 exiting successfully. Buy a developer a beer!
