                               Psi4 1.4a3.dev225

  ==> Input File <==

--------------------------------------------------------------------------
#psi4
#
memory 32 gb

molecule  {
0 1
  O        1.4499930     1.0206980    -0.0000040
  O       -1.2728880     1.6029860     0.0000050
  N       -1.7320990    -0.6616920    -0.0000100
  N        1.0253160    -1.1826400     0.0000030
  C        0.5211730     0.0320620    -0.0000010
  C       -0.9157640     0.4229260    -0.0000010
  C       -3.1757780    -0.5360000     0.0000030
  C        2.6645760     0.3511467    -0.0000010
  C        2.3925880    -0.9806700     0.0000040
  H       -1.2896900    -1.5740920    -0.0000030
  H       -3.6075680    -0.9997290     0.8912900
  H       -3.6075830    -0.9997540    -0.8912630
  H       -3.4076560     0.5288570    -0.0000100
  H        3.5343540     0.9743460    -0.0000030
  H        3.0931030    -1.8035030     0.0000080
units angstrom
no_reorient  #important for SAPT in psi4, default
symmetry c1  #important for SAPT in psi4, default
}

set PROPERTIES_ORIGIN ["COM"]
properties('MP2/aug-cc-pvtz', properties = ['dipole'])
--------------------------------------------------------------------------

    Molecular point group: c1
  Charge       = 0
  Multiplicity = 1
  Basis Set: AUG-CC-PVTZ
    Blend: AUG-CC-PVTZ
  Basis Set: (AUG-CC-PVTZ AUX)
    Blend: AUG-CC-PVTZ-JKFIT

    Orbital Energies [Eh]
    ---------------------

    Doubly Occupied:

       1A    -20.656218     2A    -20.533821     3A    -15.597676
       4A    -15.595370     5A    -11.375160     6A    -11.358569
       7A    -11.315134     8A    -11.282499     9A    -11.266114
      10A     -1.496146    11A     -1.385432    12A     -1.260440
      13A     -1.234614    14A     -1.062013    15A     -0.971848
      16A     -0.873438    17A     -0.848804    18A     -0.792893
      19A     -0.772930    20A     -0.679384    21A     -0.676413
      22A     -0.657576    23A     -0.627669    24A     -0.621123
      25A     -0.598416    26A     -0.589813    27A     -0.554548
      28A     -0.546317    29A     -0.490856    30A     -0.470825
      31A     -0.447734    32A     -0.400208    33A     -0.356923

  @DF-RHF Final Energy:  -451.60901814554381

   => Energetics <=

    Nuclear Repulsion Energy =            432.7882682643028716
    One-Electron Energy =               -1474.0007243989207382
    Two-Electron Energy =                 589.6034379890741093
    Total Energy =                       -451.6090181455438142
  Basis Set: (AUG-CC-PVTZ AUX)
    Blend: AUG-CC-PVTZ-RI
    Molecular point group: c1

    Geometry (in Angstrom), charge = 0, multiplicity = 1:

       Center              X                  Y                   Z               Mass
    ------------   -----------------  -----------------  -----------------  -----------------
         O            1.406747502597     0.991274117498    -0.000003881961    15.994914619570
         O           -1.316133497403     1.573562117498     0.000005118039    15.994914619570
         N           -1.775344497403    -0.691115882502    -0.000009881961    14.003074004430
         N            0.982070502597    -1.212063882502     0.000003118039    14.003074004430
         C            0.477927502597     0.002638117498    -0.000000881961    12.000000000000
         C           -0.959009497403     0.393502117498    -0.000000881961    12.000000000000
         C           -3.219023497403    -0.565423882502     0.000003118039    12.000000000000
         C            2.621330502597     0.321722817498    -0.000000881961    12.000000000000
         C            2.349342502597    -1.010093882502     0.000004118039    12.000000000000
         H           -1.332935497403    -1.603515882502    -0.000002881961     1.007825032230
         H           -3.650813497403    -1.029152882502     0.891290118039     1.007825032230
         H           -3.650828497403    -1.029177882502    -0.891262881961     1.007825032230
         H           -3.450901497403     0.499433117498    -0.000009881961     1.007825032230
         H            3.491108502597     0.944922117498    -0.000002881961     1.007825032230
         H            3.049857502597    -1.832926882502     0.000008118039     1.007825032230

  Basis Set: AUG-CC-PVTZ
    Blend: AUG-CC-PVTZ
  Basis Set: (AUG-CC-PVTZ AUX)
    Blend: AUG-CC-PVTZ-JKFIT
	 Reference Energy          =    -451.6090181455438142 [Eh]
	 Singles Energy            =      -0.0000000000000000 [Eh]
	 Same-Spin Energy          =      -0.4620614450866481 [Eh]
	 Opposite-Spin Energy      =      -1.3921681630352312 [Eh]
	 Correlation Energy        =      -1.8542296081218792 [Eh]
	 Total Energy              =    -453.4632477536657120 [Eh]

	 ================> DF-SCS-MP2 Energies <==================
	-----------------------------------------------------------
	 SCS Same-Spin Scale       =       0.3333333333333333 [-]
	 SCS Opposite-Spin Scale   =       1.2000000000000000 [-]
	 SCS Same-Spin Energy      =      -0.1540204816955494 [Eh]
	 SCS Opposite-Spin Energy  =      -1.6706017956422774 [Eh]
	 SCS Correlation Energy    =      -1.8246222773378267 [Eh]
	 SCS Total Energy          =    -453.4336404228816377 [Eh]
	-----------------------------------------------------------

  Dipole Moment: [D]
     X:     1.1513      Y:    -2.7139      Z:     0.0000     Total:     2.9480

*** Psi4 exiting successfully. Buy a developer a beer!
