                               Psi4 1.3.2 release

  ==> Input File <==

--------------------------------------------------------------------------
#psi4
#
memory 32 gb

molecule  {
0 1
  O        1.4499930     1.0206980    -0.0000040
  O       -1.2728880     1.6029860     0.0000050
  N       -1.7320990    -0.6616920    -0.0000100
  N        1.0253160    -1.1826400     0.0000030
  C        0.5211730     0.0320620    -0.0000010
  C       -0.9157640     0.4229260    -0.0000010
  C       -3.1757780    -0.5360000     0.0000030
  C        2.7346359     0.3125254    -0.0000008
  C        2.3925880    -0.9806700     0.0000040
  H       -1.2896900    -1.5740920    -0.0000030
  H       -3.6075680    -0.9997290     0.8912900
  H       -3.6075830    -0.9997540    -0.8912630
  H       -3.4076560     0.5288570    -0.0000100
  H        3.5343540     0.9743460    -0.0000030
  H        3.0931030    -1.8035030     0.0000080
units angstrom
no_reorient  #important for SAPT in psi4, default
symmetry c1  #important for SAPT in psi4, default
}

set PROPERTIES_ORIGIN ["COM"]
properties('MP2/aug-cc-pvtz', properties = ['dipole'])
--------------------------------------------------------------------------

    Molecular point group: c1
  Charge       = 0
  Multiplicity = 1
  Basis Set: AUG-CC-PVTZ
    Blend: AUG-CC-PVTZ
  Basis Set: (AUG-CC-PVTZ AUX)
    Blend: AUG-CC-PVTZ-JKFIT

    Orbital Energies [Eh]
    ---------------------

    Doubly Occupied:

       1A    -20.644216     2A    -20.535197     3A    -15.599046
       4A    -15.592396     5A    -11.376063     6A    -11.362257
       7A    -11.313036     8A    -11.286123     9A    -11.266819
      10A     -1.470341    11A     -1.385502    12A     -1.257692
      13A     -1.233362    14A     -1.064653    15A     -0.975029
      16A     -0.873638    17A     -0.846063    18A     -0.790579
      19A     -0.768170    20A     -0.677314    21A     -0.664356
      22A     -0.660523    23A     -0.626087    24A     -0.625398
      25A     -0.599494    26A     -0.576414    27A     -0.555046
      28A     -0.545385    29A     -0.489659    30A     -0.467937
      31A     -0.448587    32A     -0.401012    33A     -0.365227

  @DF-RHF Final Energy:  -451.59937155472380

   => Energetics <=

    Nuclear Repulsion Energy =            431.4357413452449350
    One-Electron Energy =               -1471.3849833534136451
    Two-Electron Energy =                 588.3498704534449644
    Total Energy =                       -451.5993715547238025
  Basis Set: (AUG-CC-PVTZ AUX)
    Blend: AUG-CC-PVTZ-RI
    Molecular point group: c1

    Geometry (in Angstrom), charge = 0, multiplicity = 1:

       Center              X                  Y                   Z               Mass
    ------------   -----------------  -----------------  -----------------  -----------------
         O            1.400077403631     0.994951083825    -0.000003901003    15.994914619570
         O           -1.322803596369     1.577239083825     0.000005098997    15.994914619570
         N           -1.782014596369    -0.687438916175    -0.000009901003    14.003074004430
         N            0.975400403631    -1.208386916175     0.000003098997    14.003074004430
         C            0.471257403631     0.006315083825    -0.000000901003    12.000000000000
         C           -0.965679596369     0.397179083825    -0.000000901003    12.000000000000
         C           -3.225693596369    -0.561746916175     0.000003098997    12.000000000000
         C            2.684720303631     0.286778483825    -0.000000701003    12.000000000000
         C            2.342672403631    -1.006416916175     0.000004098997    12.000000000000
         H           -1.339605596369    -1.599838916175    -0.000002901003     1.007825032230
         H           -3.657483596369    -1.025475916175     0.891290098997     1.007825032230
         H           -3.657498596369    -1.025500916175    -0.891262901003     1.007825032230
         H           -3.457571596369     0.503110083825    -0.000009901003     1.007825032230
         H            3.484438403631     0.948599083825    -0.000002901003     1.007825032230
         H            3.043187403631    -1.829249916175     0.000008098997     1.007825032230

  Basis Set: AUG-CC-PVTZ
    Blend: AUG-CC-PVTZ
  Basis Set: (AUG-CC-PVTZ AUX)
    Blend: AUG-CC-PVTZ-JKFIT
	 Reference Energy          =    -451.5993715547238025 [Eh]
	 Singles Energy            =      -0.0000000000000000 [Eh]
	 Same-Spin Energy          =      -0.4616979828947052 [Eh]
	 Opposite-Spin Energy      =      -1.3933088289552797 [Eh]
	 Correlation Energy        =      -1.8550068118499849 [Eh]
	 Total Energy              =    -453.4543783665737919 [Eh]

	 ================> DF-SCS-MP2 Energies <==================
	-----------------------------------------------------------
	 SCS Same-Spin Scale       =       0.3333333333333333 [-]
	 SCS Opposite-Spin Scale   =       1.2000000000000000 [-]
	 SCS Same-Spin Energy      =      -0.1538993276315684 [Eh]
	 SCS Opposite-Spin Energy  =      -1.6719705947463357 [Eh]
	 SCS Correlation Energy    =      -1.8258699223779040 [Eh]
	 SCS Total Energy          =    -453.4252414771016788 [Eh]
	-----------------------------------------------------------

  Dipole Moment: [D]
     X:     1.1721      Y:    -2.7817      Z:     0.0000     Total:     3.0185

*** Psi4 exiting successfully. Buy a developer a beer!
