                               Psi4 1.3.2 release

  ==> Input File <==

--------------------------------------------------------------------------
#psi4
#
memory 32 gb

molecule  {
0 1
  O        1.4499930     1.0206980    -0.0000040
  O       -1.2728880     1.6029860     0.0000050
  N       -1.7320990    -0.6616920    -0.0000100
  N        1.0145579    -1.0867719     0.0000026
  C        0.5211730     0.0320620    -0.0000010
  C       -0.9157640     0.4229260    -0.0000010
  C       -3.1757780    -0.5360000     0.0000030
  C        2.6470610     0.3608020    -0.0000010
  C        2.3925880    -0.9806700     0.0000040
  H       -1.2896900    -1.5740920    -0.0000030
  H       -3.6075680    -0.9997290     0.8912900
  H       -3.6075830    -0.9997540    -0.8912630
  H       -3.4076560     0.5288570    -0.0000100
  H        3.5343540     0.9743460    -0.0000030
  H        3.0931030    -1.8035030     0.0000080
units angstrom
no_reorient  #important for SAPT in psi4, default
symmetry c1  #important for SAPT in psi4, default
}

set PROPERTIES_ORIGIN ["COM"]
properties('MP2/aug-cc-pvtz', properties = ['dipole'])
--------------------------------------------------------------------------

    Molecular point group: c1
  Charge       = 0
  Multiplicity = 1
  Basis Set: AUG-CC-PVTZ
    Blend: AUG-CC-PVTZ
  Basis Set: (AUG-CC-PVTZ AUX)
    Blend: AUG-CC-PVTZ-JKFIT

    Orbital Energies [Eh]
    ---------------------

    Doubly Occupied:

       1A    -20.645967     2A    -20.531879     3A    -15.596206
       4A    -15.579958     5A    -11.372290     6A    -11.340389
       7A    -11.316909     8A    -11.280735     9A    -11.265239
      10A     -1.504200    11A     -1.383660    12A     -1.277570
      13A     -1.237060    14A     -1.066615    15A     -0.971127
      16A     -0.871616    17A     -0.855060    18A     -0.789834
      19A     -0.773489    20A     -0.683714    21A     -0.683241
      22A     -0.658471    23A     -0.629614    24A     -0.626960
      25A     -0.597694    26A     -0.585765    27A     -0.553554
      28A     -0.545370    29A     -0.483569    30A     -0.478663
      31A     -0.441985    32A     -0.398762    33A     -0.361781

  @DF-RHF Final Energy:  -451.60851436039252

   => Energetics <=

    Nuclear Repulsion Energy =            435.7859371662182753
    One-Electron Energy =               -1480.0110133168527682
    Two-Electron Energy =                 592.6165617902420308
    Total Energy =                       -451.6085143603925189
  Basis Set: (AUG-CC-PVTZ AUX)
    Blend: AUG-CC-PVTZ-RI
    Molecular point group: c1

    Geometry (in Angstrom), charge = 0, multiplicity = 1:

       Center              X                  Y                   Z               Mass
    ------------   -----------------  -----------------  -----------------  -----------------
         O            1.409610229430     0.979704156941    -0.000003837522    15.994914619570
         O           -1.313270770570     1.561992156941     0.000005162478    15.994914619570
         N           -1.772481770570    -0.702685843059    -0.000009837522    14.003074004430
         N            0.974175129430    -1.127765743059     0.000002762478    14.003074004430
         C            0.480790229430    -0.008931843059    -0.000000837522    12.000000000000
         C           -0.956146770570     0.381932156941    -0.000000837522    12.000000000000
         C           -3.216160770570    -0.576993843059     0.000003162478    12.000000000000
         C            2.606678229430     0.319808156941    -0.000000837522    12.000000000000
         C            2.352205229430    -1.021663843059     0.000004162478    12.000000000000
         H           -1.330072770570    -1.615085843059    -0.000002837522     1.007825032230
         H           -3.647950770570    -1.040722843059     0.891290162478     1.007825032230
         H           -3.647965770570    -1.040747843059    -0.891262837522     1.007825032230
         H           -3.448038770570     0.487863156941    -0.000009837522     1.007825032230
         H            3.493971229430     0.933352156941    -0.000002837522     1.007825032230
         H            3.052720229430    -1.844496843059     0.000008162478     1.007825032230

  Basis Set: AUG-CC-PVTZ
    Blend: AUG-CC-PVTZ
  Basis Set: (AUG-CC-PVTZ AUX)
    Blend: AUG-CC-PVTZ-JKFIT
	 Reference Energy          =    -451.6085143603925189 [Eh]
	 Singles Energy            =      -0.0000000000000000 [Eh]
	 Same-Spin Energy          =      -0.4598036744952201 [Eh]
	 Opposite-Spin Energy      =      -1.3869508270445567 [Eh]
	 Correlation Energy        =      -1.8467545015397768 [Eh]
	 Total Energy              =    -453.4552688619322680 [Eh]

	 ================> DF-SCS-MP2 Energies <==================
	-----------------------------------------------------------
	 SCS Same-Spin Scale       =       0.3333333333333333 [-]
	 SCS Opposite-Spin Scale   =       1.2000000000000000 [-]
	 SCS Same-Spin Energy      =      -0.1532678914984067 [Eh]
	 SCS Opposite-Spin Energy  =      -1.6643409924534680 [Eh]
	 SCS Correlation Energy    =      -1.8176088839518747 [Eh]
	 SCS Total Energy          =    -453.4261232443444101 [Eh]
	-----------------------------------------------------------

  Dipole Moment: [D]
     X:     1.1105      Y:    -2.9258      Z:     0.0000     Total:     3.1295

*** Psi4 exiting successfully. Buy a developer a beer!
