                               Psi4 1.4a3.dev225

  ==> Input File <==

--------------------------------------------------------------------------
#psi4
#
memory 32 gb

molecule  {
0 1
  O        1.4499930     1.0206980    -0.0000040
  O       -1.2728880     1.6029860     0.0000050
  N       -1.7320990    -0.6616920    -0.0000100
  N        1.0253160    -1.1826400     0.0000030
  C        0.5211730     0.0320620    -0.0000010
  C       -0.9157640     0.4229260    -0.0000010
  C       -3.1757780    -0.5360000     0.0000030
  C        2.6470610     0.3608020    -0.0000010
  C        2.3925880    -0.9806700     0.0000040
  H       -1.2896900    -1.5740920    -0.0000030
  H       -3.6075680    -0.9997290     0.8912900
  H       -3.6075830    -0.9997540    -0.8912630
  H       -3.4076560     0.5288570    -0.0000100
  H        3.4932284     0.9459086    -0.0000029
  H        3.0931030    -1.8035030     0.0000080
units angstrom
no_reorient  #important for SAPT in psi4, default
symmetry c1  #important for SAPT in psi4, default
}

set PROPERTIES_ORIGIN ["COM"]
properties('MP2/aug-cc-pvtz', properties = ['dipole'])
--------------------------------------------------------------------------

    Molecular point group: c1
  Charge       = 0
  Multiplicity = 1
  Basis Set: AUG-CC-PVTZ
    Blend: AUG-CC-PVTZ
  Basis Set: (AUG-CC-PVTZ AUX)
    Blend: AUG-CC-PVTZ-JKFIT

    Orbital Energies [Eh]
    ---------------------

    Doubly Occupied:

       1A    -20.658919     2A    -20.533397     3A    -15.597271
       4A    -15.596021     5A    -11.374845     6A    -11.357454
       7A    -11.310794     8A    -11.281678     9A    -11.265897
      10A     -1.503445    11A     -1.385306    12A     -1.261206
      13A     -1.234776    14A     -1.063020    15A     -0.972008
      16A     -0.873965    17A     -0.854065    18A     -0.793765
      19A     -0.775833    20A     -0.686719    21A     -0.679919
      22A     -0.657669    23A     -0.627892    24A     -0.623422
      25A     -0.598453    26A     -0.591821    27A     -0.554352
      28A     -0.546512    29A     -0.491125    30A     -0.471505
      31A     -0.447448    32A     -0.399974    33A     -0.354798

  @DF-RHF Final Energy:  -451.60885014490106

   => Energetics <=

    Nuclear Repulsion Energy =            433.4109095603924970
    One-Electron Energy =               -1475.1889740899932804
    Two-Electron Energy =                 590.1692143846996714
    Total Energy =                       -451.6088501449009982
  Basis Set: (AUG-CC-PVTZ AUX)
    Blend: AUG-CC-PVTZ-RI
    Molecular point group: c1

    Geometry (in Angstrom), charge = 0, multiplicity = 1:

       Center              X                  Y                   Z               Mass
    ------------   -----------------  -----------------  -----------------  -----------------
         O            1.408743865378     0.990582260539    -0.000003882761    15.994914619570
         O           -1.314137134622     1.572870260539     0.000005117239    15.994914619570
         N           -1.773348134622    -0.691807739461    -0.000009882761    14.003074004430
         N            0.984066865378    -1.212755739461     0.000003117239    14.003074004430
         C            0.479923865378     0.001946260539    -0.000000882761    12.000000000000
         C           -0.957013134622     0.392810260539    -0.000000882761    12.000000000000
         C           -3.217027134622    -0.566115739461     0.000003117239    12.000000000000
         C            2.605811865378     0.330686260539    -0.000000882761    12.000000000000
         C            2.351338865378    -1.010785739461     0.000004117239    12.000000000000
         H           -1.330939134622    -1.604207739461    -0.000002882761     1.007825032230
         H           -3.648817134622    -1.029844739461     0.891290117239     1.007825032230
         H           -3.648832134622    -1.029869739461    -0.891262882761     1.007825032230
         H           -3.448905134622     0.498741260539    -0.000009882761     1.007825032230
         H            3.451979265378     0.915792860539    -0.000002782761     1.007825032230
         H            3.051853865378    -1.833618739461     0.000008117239     1.007825032230

  Basis Set: AUG-CC-PVTZ
    Blend: AUG-CC-PVTZ
  Basis Set: (AUG-CC-PVTZ AUX)
    Blend: AUG-CC-PVTZ-JKFIT
	 Reference Energy          =    -451.6088501449010550 [Eh]
	 Singles Energy            =      -0.0000000000000000 [Eh]
	 Same-Spin Energy          =      -0.4620857118730334 [Eh]
	 Opposite-Spin Energy      =      -1.3916207587483971 [Eh]
	 Correlation Energy        =      -1.8537064706214306 [Eh]
	 Total Energy              =    -453.4625566155224874 [Eh]

	 ================> DF-SCS-MP2 Energies <==================
	-----------------------------------------------------------
	 SCS Same-Spin Scale       =       0.3333333333333333 [-]
	 SCS Opposite-Spin Scale   =       1.2000000000000000 [-]
	 SCS Same-Spin Energy      =      -0.1540285706243445 [Eh]
	 SCS Opposite-Spin Energy  =      -1.6699449104980764 [Eh]
	 SCS Correlation Energy    =      -1.8239734811224209 [Eh]
	 SCS Total Energy          =    -453.4328236260234917 [Eh]
	-----------------------------------------------------------

  Dipole Moment: [D]
     X:     1.1364      Y:    -2.7073      Z:     0.0000     Total:     2.9361

*** Psi4 exiting successfully. Buy a developer a beer!
