                               Psi4 1.3.2 release

  ==> Input File <==

--------------------------------------------------------------------------
#psi4
#
memory 32 gb

molecule  {
0 1
  O        1.4499930     1.0206980    -0.0000040
  O       -1.2728880     1.6029860     0.0000050
  N       -1.7320990    -0.6616920    -0.0000100
  N        1.0253160    -1.1826400     0.0000030
  C        0.6071344     0.0642703    -0.0000010
  C       -0.9157640     0.4229260    -0.0000010
  C       -3.1757780    -0.5360000     0.0000030
  C        2.6470610     0.3608020    -0.0000010
  C        2.3925880    -0.9806700     0.0000040
  H       -1.2896900    -1.5740920    -0.0000030
  H       -3.6075680    -0.9997290     0.8912900
  H       -3.6075830    -0.9997540    -0.8912630
  H       -3.4076560     0.5288570    -0.0000100
  H        3.5343540     0.9743460    -0.0000030
  H        3.0931030    -1.8035030     0.0000080
units angstrom
no_reorient  #important for SAPT in psi4, default
symmetry c1  #important for SAPT in psi4, default
}

set PROPERTIES_ORIGIN ["COM"]
properties('MP2/aug-cc-pvtz', properties = ['dipole'])
--------------------------------------------------------------------------

    Molecular point group: c1
  Charge       = 0
  Multiplicity = 1
  Basis Set: AUG-CC-PVTZ
    Blend: AUG-CC-PVTZ
  Basis Set: (AUG-CC-PVTZ AUX)
    Blend: AUG-CC-PVTZ-JKFIT

    Orbital Energies [Eh]
    ---------------------

    Doubly Occupied:

       1A    -20.671282     2A    -20.531579     3A    -15.596561
       4A    -15.588062     5A    -11.375317     6A    -11.358863
       7A    -11.311057     8A    -11.283944     9A    -11.265425
      10A     -1.544007    11A     -1.382389    12A     -1.263650
      13A     -1.235019    14A     -1.059851    15A     -0.966737
      16A     -0.875533    17A     -0.846882    18A     -0.800154
      19A     -0.777755    20A     -0.701010    21A     -0.676987
      22A     -0.652760    23A     -0.627641    24A     -0.623167
      25A     -0.608434    26A     -0.581880    27A     -0.553411
      28A     -0.543398    29A     -0.495155    30A     -0.473726
      31A     -0.439974    32A     -0.398548    33A     -0.355813

  @DF-RHF Final Energy:  -451.60466221912810

   => Energetics <=

    Nuclear Repulsion Energy =            433.6513653810404207
    One-Electron Energy =               -1475.5801219101754214
    Two-Electron Energy =                 590.3240943100067852
    Total Energy =                       -451.6046622191281585
  Basis Set: (AUG-CC-PVTZ AUX)
    Blend: AUG-CC-PVTZ-RI
    Molecular point group: c1

    Geometry (in Angstrom), charge = 0, multiplicity = 1:

       Center              X                  Y                   Z               Mass
    ------------   -----------------  -----------------  -----------------  -----------------
         O            1.400231017963     0.987288465862    -0.000003881961    15.994914619570
         O           -1.322649982037     1.569576465862     0.000005118039    15.994914619570
         N           -1.781860982037    -0.695101534138    -0.000009881961    14.003074004430
         N            0.975554017963    -1.216049534138     0.000003118039    14.003074004430
         C            0.557372417963     0.030860765862    -0.000000881961    12.000000000000
         C           -0.965525982037     0.389516465862    -0.000000881961    12.000000000000
         C           -3.225539982037    -0.569409534138     0.000003118039    12.000000000000
         C            2.597299017963     0.327392465862    -0.000000881961    12.000000000000
         C            2.342826017963    -1.014079534138     0.000004118039    12.000000000000
         H           -1.339451982037    -1.607501534138    -0.000002881961     1.007825032230
         H           -3.657329982037    -1.033138534138     0.891290118039     1.007825032230
         H           -3.657344982037    -1.033163534138    -0.891262881961     1.007825032230
         H           -3.457417982037     0.495447465862    -0.000009881961     1.007825032230
         H            3.484592017963     0.940936465862    -0.000002881961     1.007825032230
         H            3.043341017963    -1.836912534138     0.000008118039     1.007825032230

  Basis Set: AUG-CC-PVTZ
    Blend: AUG-CC-PVTZ
  Basis Set: (AUG-CC-PVTZ AUX)
    Blend: AUG-CC-PVTZ-JKFIT
	 Reference Energy          =    -451.6046622191281017 [Eh]
	 Singles Energy            =      -0.0000000000000000 [Eh]
	 Same-Spin Energy          =      -0.4606334350038747 [Eh]
	 Opposite-Spin Energy      =      -1.3888841596156312 [Eh]
	 Correlation Energy        =      -1.8495175946195059 [Eh]
	 Total Energy              =    -453.4541798137476007 [Eh]

	 ================> DF-SCS-MP2 Energies <==================
	-----------------------------------------------------------
	 SCS Same-Spin Scale       =       0.3333333333333333 [-]
	 SCS Opposite-Spin Scale   =       1.2000000000000000 [-]
	 SCS Same-Spin Energy      =      -0.1535444783346249 [Eh]
	 SCS Opposite-Spin Energy  =      -1.6666609915387574 [Eh]
	 SCS Correlation Energy    =      -1.8202054698733823 [Eh]
	 SCS Total Energy          =    -453.4248676890014735 [Eh]
	-----------------------------------------------------------

  Dipole Moment: [D]
     X:     1.2081      Y:    -2.5707      Z:     0.0000     Total:     2.8404

*** Psi4 exiting successfully. Buy a developer a beer!
