                               Psi4 1.3.2 release

  ==> Input File <==

--------------------------------------------------------------------------
#psi4
#
memory 32 gb

molecule  {
0 1
  O        1.4386585     0.9997058    -0.0000039
  O       -1.2728880     1.6029860     0.0000050
  N       -1.7320990    -0.6616920    -0.0000100
  N        1.0253160    -1.1826400     0.0000030
  C        0.5211730     0.0320620    -0.0000010
  C       -0.9157640     0.4229260    -0.0000010
  C       -3.1757780    -0.5360000     0.0000030
  C        2.6470610     0.3608020    -0.0000010
  C        2.3925880    -0.9806700     0.0000040
  H       -1.2896900    -1.5740920    -0.0000030
  H       -3.6075680    -0.9997290     0.8912900
  H       -3.6075830    -0.9997540    -0.8912630
  H       -3.4076560     0.5288570    -0.0000100
  H        3.5343540     0.9743460    -0.0000030
  H        3.0931030    -1.8035030     0.0000080
units angstrom
no_reorient  #important for SAPT in psi4, default
symmetry c1  #important for SAPT in psi4, default
}

set PROPERTIES_ORIGIN ["COM"]
properties('MP2/aug-cc-pvtz', properties = ['dipole'])
--------------------------------------------------------------------------

    Molecular point group: c1
  Charge       = 0
  Multiplicity = 1
  Basis Set: AUG-CC-PVTZ
    Blend: AUG-CC-PVTZ
  Basis Set: (AUG-CC-PVTZ AUX)
    Blend: AUG-CC-PVTZ-JKFIT

    Orbital Energies [Eh]
    ---------------------

    Doubly Occupied:

       1A    -20.659418     2A    -20.533479     3A    -15.597160
       4A    -15.592726     5A    -11.374614     6A    -11.355607
       7A    -11.315354     8A    -11.281740     9A    -11.265798
      10A     -1.512215    11A     -1.385382    12A     -1.259635
      13A     -1.233947    14A     -1.064378    15A     -0.971454
      16A     -0.874603    17A     -0.850539    18A     -0.794260
      19A     -0.775485    20A     -0.684557    21A     -0.682999
      22A     -0.656720    23A     -0.628018    24A     -0.621887
      25A     -0.599271    26A     -0.589029    27A     -0.554195
      28A     -0.546340    29A     -0.488741    30A     -0.469623
      31A     -0.447459    32A     -0.399900    33A     -0.355430

  @DF-RHF Final Energy:  -451.61107785386639

   => Energetics <=

    Nuclear Repulsion Energy =            433.8424285295182017
    One-Electron Energy =               -1476.0630851463172348
    Two-Electron Energy =                 590.6095787629326423
    Total Energy =                       -451.6110778538663908
  Basis Set: (AUG-CC-PVTZ AUX)
    Blend: AUG-CC-PVTZ-RI
    Molecular point group: c1

    Geometry (in Angstrom), charge = 0, multiplicity = 1:

       Center              X                  Y                   Z               Mass
    ------------   -----------------  -----------------  -----------------  -----------------
         O            1.398518883805     0.972026599656    -0.000003794651    15.994914619570
         O           -1.313027616195     1.575306799656     0.000005105349    15.994914619570
         N           -1.772238616195    -0.689371200344    -0.000009894651    14.003074004430
         N            0.985176383805    -1.210319200344     0.000003105349    14.003074004430
         C            0.481033383805     0.004382799656    -0.000000894651    12.000000000000
         C           -0.955903616195     0.395246799656    -0.000000894651    12.000000000000
         C           -3.215917616195    -0.563679200344     0.000003105349    12.000000000000
         C            2.606921383805     0.333122799656    -0.000000894651    12.000000000000
         C            2.352448383805    -1.008349200344     0.000004105349    12.000000000000
         H           -1.329829616195    -1.601771200344    -0.000002894651     1.007825032230
         H           -3.647707616195    -1.027408200344     0.891290105349     1.007825032230
         H           -3.647722616195    -1.027433200344    -0.891262894651     1.007825032230
         H           -3.447795616195     0.501177799656    -0.000009894651     1.007825032230
         H            3.494214383805     0.946666799656    -0.000002894651     1.007825032230
         H            3.052963383805    -1.831182200344     0.000008105349     1.007825032230

  Basis Set: AUG-CC-PVTZ
    Blend: AUG-CC-PVTZ
  Basis Set: (AUG-CC-PVTZ AUX)
    Blend: AUG-CC-PVTZ-JKFIT
	 Reference Energy          =    -451.6110778538663908 [Eh]
	 Singles Energy            =      -0.0000000000000000 [Eh]
	 Same-Spin Energy          =      -0.4619205449482979 [Eh]
	 Opposite-Spin Energy      =      -1.3909250637334007 [Eh]
	 Correlation Energy        =      -1.8528456086816987 [Eh]
	 Total Energy              =    -453.4639234625481095 [Eh]

	 ================> DF-SCS-MP2 Energies <==================
	-----------------------------------------------------------
	 SCS Same-Spin Scale       =       0.3333333333333333 [-]
	 SCS Opposite-Spin Scale   =       1.2000000000000000 [-]
	 SCS Same-Spin Energy      =      -0.1539735149827660 [Eh]
	 SCS Opposite-Spin Energy  =      -1.6691100764800808 [Eh]
	 SCS Correlation Energy    =      -1.8230835914628467 [Eh]
	 SCS Total Energy          =    -453.4341614453292095 [Eh]
	-----------------------------------------------------------

  Dipole Moment: [D]
     X:     1.1760      Y:    -2.6329      Z:     0.0000     Total:     2.8835

*** Psi4 exiting successfully. Buy a developer a beer!
