                               Psi4 1.3.2 release

  ==> Input File <==

--------------------------------------------------------------------------
#psi4
#
memory 32 gb

molecule  {
0 1
  O        1.4499930     1.0206980    -0.0000040
  O       -1.2728880     1.6029860     0.0000050
  N       -1.7320990    -0.6616920    -0.0000100
  N        1.0253160    -1.1826400     0.0000030
  C        0.5385685     0.0160024    -0.0000009
  C       -0.9157640     0.4229260    -0.0000010
  C       -3.1757780    -0.5360000     0.0000030
  C        2.6470610     0.3608020    -0.0000010
  C        2.3925880    -0.9806700     0.0000040
  H       -1.2896900    -1.5740920    -0.0000030
  H       -3.6075680    -0.9997290     0.8912900
  H       -3.6075830    -0.9997540    -0.8912630
  H       -3.4076560     0.5288570    -0.0000100
  H        3.5343540     0.9743460    -0.0000030
  H        3.0931030    -1.8035030     0.0000080
units angstrom
no_reorient  #important for SAPT in psi4, default
symmetry c1  #important for SAPT in psi4, default
}

set PROPERTIES_ORIGIN ["COM"]
properties('MP2/aug-cc-pvtz', properties = ['dipole'])
--------------------------------------------------------------------------

    Molecular point group: c1
  Charge       = 0
  Multiplicity = 1
  Basis Set: AUG-CC-PVTZ
    Blend: AUG-CC-PVTZ
  Basis Set: (AUG-CC-PVTZ AUX)
    Blend: AUG-CC-PVTZ-JKFIT

    Orbital Energies [Eh]
    ---------------------

    Doubly Occupied:

       1A    -20.657993     2A    -20.533512     3A    -15.597213
       4A    -15.594334     5A    -11.375562     6A    -11.356315
       7A    -11.315507     8A    -11.281496     9A    -11.265782
      10A     -1.504679    11A     -1.384470    12A     -1.267024
      13A     -1.236693    14A     -1.059565    15A     -0.970161
      16A     -0.871281    17A     -0.850085    18A     -0.793836
      19A     -0.773761    20A     -0.680955    21A     -0.678595
      22A     -0.656218    23A     -0.627800    24A     -0.622214
      25A     -0.595424    26A     -0.591815    27A     -0.554289
      28A     -0.545835    29A     -0.494307    30A     -0.475320
      31A     -0.445662    32A     -0.399862    33A     -0.356139

  @DF-RHF Final Energy:  -451.61087808139337

   => Energetics <=

    Nuclear Repulsion Energy =            433.2292223625159409
    One-Electron Energy =               -1474.8527932022577716
    Two-Electron Energy =                 590.0126927583485212
    Total Energy =                       -451.6108780813933663
  Basis Set: (AUG-CC-PVTZ AUX)
    Blend: AUG-CC-PVTZ-RI
    Molecular point group: c1

    Geometry (in Angstrom), charge = 0, multiplicity = 1:

       Center              X                  Y                   Z               Mass
    ------------   -----------------  -----------------  -----------------  -----------------
         O            1.406758879674     0.991883843101    -0.000003891482    15.994914619570
         O           -1.316122120326     1.574171843101     0.000005108518    15.994914619570
         N           -1.775333120326    -0.690506156899    -0.000009891482    14.003074004430
         N            0.982081879674    -1.211454156899     0.000003108518    14.003074004430
         C            0.495334379674    -0.012811756899    -0.000000791482    12.000000000000
         C           -0.958998120326     0.394111843101    -0.000000891482    12.000000000000
         C           -3.219012120326    -0.564814156899     0.000003108518    12.000000000000
         C            2.603826879674     0.331987843101    -0.000000891482    12.000000000000
         C            2.349353879674    -1.009484156899     0.000004108518    12.000000000000
         H           -1.332924120326    -1.602906156899    -0.000002891482     1.007825032230
         H           -3.650802120326    -1.028543156899     0.891290108518     1.007825032230
         H           -3.650817120326    -1.028568156899    -0.891262891482     1.007825032230
         H           -3.450890120326     0.500042843101    -0.000009891482     1.007825032230
         H            3.491119879674     0.945531843101    -0.000002891482     1.007825032230
         H            3.049868879674    -1.832317156899     0.000008108518     1.007825032230

  Basis Set: AUG-CC-PVTZ
    Blend: AUG-CC-PVTZ
  Basis Set: (AUG-CC-PVTZ AUX)
    Blend: AUG-CC-PVTZ-JKFIT
	 Reference Energy          =    -451.6108780813933663 [Eh]
	 Singles Energy            =      -0.0000000000000000 [Eh]
	 Same-Spin Energy          =      -0.4614839893177869 [Eh]
	 Opposite-Spin Energy      =      -1.3908543185963675 [Eh]
	 Correlation Energy        =      -1.8523383079141544 [Eh]
	 Total Energy              =    -453.4632163893075472 [Eh]

	 ================> DF-SCS-MP2 Energies <==================
	-----------------------------------------------------------
	 SCS Same-Spin Scale       =       0.3333333333333333 [-]
	 SCS Opposite-Spin Scale   =       1.2000000000000000 [-]
	 SCS Same-Spin Energy      =      -0.1538279964392623 [Eh]
	 SCS Opposite-Spin Energy  =      -1.6690251823156410 [Eh]
	 SCS Correlation Energy    =      -1.8228531787549034 [Eh]
	 SCS Total Energy          =    -453.4337312601482495 [Eh]
	-----------------------------------------------------------

  Dipole Moment: [D]
     X:     1.1079      Y:    -2.7202      Z:     0.0000     Total:     2.9372

*** Psi4 exiting successfully. Buy a developer a beer!
