                               Psi4 1.3.2 release

  ==> Input File <==

--------------------------------------------------------------------------
#psi4
#
memory 32 gb

molecule  {
0 1
  O        1.4499930     1.0206980    -0.0000040
  O       -1.2728880     1.6029860     0.0000050
  N       -1.7320990    -0.6616920    -0.0000100
  N        1.0253160    -1.1826400     0.0000030
  C        0.5211730     0.0320620    -0.0000010
  C       -0.9157640     0.4229260    -0.0000010
  C       -3.1757780    -0.5360000     0.0000030
  C        2.5528648     0.3752854    -0.0000012
  C        2.3925880    -0.9806700     0.0000040
  H       -1.2896900    -1.5740920    -0.0000030
  H       -3.6075680    -0.9997290     0.8912900
  H       -3.6075830    -0.9997540    -0.8912630
  H       -3.4076560     0.5288570    -0.0000100
  H        3.5343540     0.9743460    -0.0000030
  H        3.0931030    -1.8035030     0.0000080
units angstrom
no_reorient  #important for SAPT in psi4, default
symmetry c1  #important for SAPT in psi4, default
}

set PROPERTIES_ORIGIN ["COM"]
properties('MP2/aug-cc-pvtz', properties = ['dipole'])
--------------------------------------------------------------------------

    Molecular point group: c1
  Charge       = 0
  Multiplicity = 1
  Basis Set: AUG-CC-PVTZ
    Blend: AUG-CC-PVTZ
  Basis Set: (AUG-CC-PVTZ AUX)
    Blend: AUG-CC-PVTZ-JKFIT

    Orbital Energies [Eh]
    ---------------------

    Doubly Occupied:

       1A    -20.672104     2A    -20.531411     3A    -15.599541
       4A    -15.595207     5A    -11.373282     6A    -11.352215
       7A    -11.320440     8A    -11.274856     9A    -11.264782
      10A     -1.544680    11A     -1.384531    12A     -1.266724
      13A     -1.235562    14A     -1.062524    15A     -0.968102
      16A     -0.883918    17A     -0.847945    18A     -0.802109
      19A     -0.776704    20A     -0.701428    21A     -0.683697
      22A     -0.653307    23A     -0.628458    24A     -0.626443
      25A     -0.595952    26A     -0.583763    27A     -0.552999
      28A     -0.547500    29A     -0.489907    30A     -0.476354
      31A     -0.446029    32A     -0.398997    33A     -0.349022

  @DF-RHF Final Energy:  -451.60066859284029

   => Energetics <=

    Nuclear Repulsion Energy =            435.3538376926621822
    One-Electron Energy =               -1478.9280290853139377
    Two-Electron Energy =                 591.9735227998114624
    Total Energy =                       -451.6006685928402931
  Basis Set: (AUG-CC-PVTZ AUX)
    Blend: AUG-CC-PVTZ-RI
    Molecular point group: c1

    Geometry (in Angstrom), charge = 0, multiplicity = 1:

       Center              X                  Y                   Z               Mass
    ------------   -----------------  -----------------  -----------------  -----------------
         O            1.417383041038     0.988975976651    -0.000003862920    15.994914619570
         O           -1.305497958962     1.571263976651     0.000005137080    15.994914619570
         N           -1.764708958962    -0.693414023349    -0.000009862920    14.003074004430
         N            0.992706041038    -1.214362023349     0.000003137080    14.003074004430
         C            0.488563041038     0.000339976651    -0.000000862920    12.000000000000
         C           -0.948373958962     0.391203976651    -0.000000862920    12.000000000000
         C           -3.208387958962    -0.567722023349     0.000003137080    12.000000000000
         C            2.520254841038     0.343563376651    -0.000001062920    12.000000000000
         C            2.359978041038    -1.012392023349     0.000004137080    12.000000000000
         H           -1.322299958962    -1.605814023349    -0.000002862920     1.007825032230
         H           -3.640177958962    -1.031451023349     0.891290137080     1.007825032230
         H           -3.640192958962    -1.031476023349    -0.891262862920     1.007825032230
         H           -3.440265958962     0.497134976651    -0.000009862920     1.007825032230
         H            3.501744041038     0.942623976651    -0.000002862920     1.007825032230
         H            3.060493041038    -1.835225023349     0.000008137080     1.007825032230

  Basis Set: AUG-CC-PVTZ
    Blend: AUG-CC-PVTZ
  Basis Set: (AUG-CC-PVTZ AUX)
    Blend: AUG-CC-PVTZ-JKFIT
	 Reference Energy          =    -451.6006685928402931 [Eh]
	 Singles Energy            =      -0.0000000000000000 [Eh]
	 Same-Spin Energy          =      -0.4624995478536184 [Eh]
	 Opposite-Spin Energy      =      -1.3904872698941735 [Eh]
	 Correlation Energy        =      -1.8529868177477917 [Eh]
	 Total Energy              =    -453.4536554105881123 [Eh]

	 ================> DF-SCS-MP2 Energies <==================
	-----------------------------------------------------------
	 SCS Same-Spin Scale       =       0.3333333333333333 [-]
	 SCS Opposite-Spin Scale   =       1.2000000000000000 [-]
	 SCS Same-Spin Energy      =      -0.1541665159512061 [Eh]
	 SCS Opposite-Spin Energy  =      -1.6685847238730080 [Eh]
	 SCS Correlation Energy    =      -1.8227512398242141 [Eh]
	 SCS Total Energy          =    -453.4234198326645355 [Eh]
	-----------------------------------------------------------

  Dipole Moment: [D]
     X:     1.1041      Y:    -2.6417      Z:     0.0000     Total:     2.8631

*** Psi4 exiting successfully. Buy a developer a beer!
