                               Psi4 1.3.2 release

  ==> Input File <==

--------------------------------------------------------------------------
#psi4
#
memory 32 gb

molecule  {
0 1
  O        1.4671056     1.0043373    -0.0000040
  O       -1.2728880     1.6029860     0.0000050
  N       -1.7320990    -0.6616920    -0.0000100
  N        1.0253160    -1.1826400     0.0000030
  C        0.5211730     0.0320620    -0.0000010
  C       -0.9157640     0.4229260    -0.0000010
  C       -3.1757780    -0.5360000     0.0000030
  C        2.6470610     0.3608020    -0.0000010
  C        2.3925880    -0.9806700     0.0000040
  H       -1.2896900    -1.5740920    -0.0000030
  H       -3.6075680    -0.9997290     0.8912900
  H       -3.6075830    -0.9997540    -0.8912630
  H       -3.4076560     0.5288570    -0.0000100
  H        3.5343540     0.9743460    -0.0000030
  H        3.0931030    -1.8035030     0.0000080
units angstrom
no_reorient  #important for SAPT in psi4, default
symmetry c1  #important for SAPT in psi4, default
}

set PROPERTIES_ORIGIN ["COM"]
properties('MP2/aug-cc-pvtz', properties = ['dipole'])
--------------------------------------------------------------------------

    Molecular point group: c1
  Charge       = 0
  Multiplicity = 1
  Basis Set: AUG-CC-PVTZ
    Blend: AUG-CC-PVTZ
  Basis Set: (AUG-CC-PVTZ AUX)
    Blend: AUG-CC-PVTZ-JKFIT

    Orbital Energies [Eh]
    ---------------------

    Doubly Occupied:

       1A    -20.659614     2A    -20.533410     3A    -15.597343
       4A    -15.596270     5A    -11.375487     6A    -11.356231
       7A    -11.315121     8A    -11.279249     9A    -11.266000
      10A     -1.511294    11A     -1.385667    12A     -1.261079
      13A     -1.234700    14A     -1.062970    15A     -0.971439
      16A     -0.874772    17A     -0.850951    18A     -0.794604
      19A     -0.775529    20A     -0.684746    21A     -0.683726
      22A     -0.656600    23A     -0.628476    24A     -0.621069
      25A     -0.597947    26A     -0.588889    27A     -0.554434
      28A     -0.547196    29A     -0.490908    30A     -0.470953
      31A     -0.447669    32A     -0.400098    33A     -0.353584

  @DF-RHF Final Energy:  -451.61046162039321

   => Energetics <=

    Nuclear Repulsion Energy =            433.4969057773685108
    One-Electron Energy =               -1475.3586839129363852
    Two-Electron Energy =                 590.2513165151747216
    Total Energy =                       -451.6104616203931528
  Basis Set: (AUG-CC-PVTZ AUX)
    Blend: AUG-CC-PVTZ-RI
    Molecular point group: c1

    Geometry (in Angstrom), charge = 0, multiplicity = 1:

       Center              X                  Y                   Z               Mass
    ------------   -----------------  -----------------  -----------------  -----------------
         O            1.423356031665     0.976070359839    -0.000003881961    15.994914619570
         O           -1.316637568335     1.574719059839     0.000005118039    15.994914619570
         N           -1.775848568335    -0.689958940161    -0.000009881961    14.003074004430
         N            0.981566431665    -1.210906940161     0.000003118039    14.003074004430
         C            0.477423431665     0.003795059839    -0.000000881961    12.000000000000
         C           -0.959513568335     0.394659059839    -0.000000881961    12.000000000000
         C           -3.219527568335    -0.564266940161     0.000003118039    12.000000000000
         C            2.603311431665     0.332535059839    -0.000000881961    12.000000000000
         C            2.348838431665    -1.008936940161     0.000004118039    12.000000000000
         H           -1.333439568335    -1.602358940161    -0.000002881961     1.007825032230
         H           -3.651317568335    -1.027995940161     0.891290118039     1.007825032230
         H           -3.651332568335    -1.028020940161    -0.891262881961     1.007825032230
         H           -3.451405568335     0.500590059839    -0.000009881961     1.007825032230
         H            3.490604431665     0.946079059839    -0.000002881961     1.007825032230
         H            3.049353431665    -1.831769940161     0.000008118039     1.007825032230

  Basis Set: AUG-CC-PVTZ
    Blend: AUG-CC-PVTZ
  Basis Set: (AUG-CC-PVTZ AUX)
    Blend: AUG-CC-PVTZ-JKFIT
	 Reference Energy          =    -451.6104616203932096 [Eh]
	 Singles Energy            =      -0.0000000000000000 [Eh]
	 Same-Spin Energy          =      -0.4621606584163246 [Eh]
	 Opposite-Spin Energy      =      -1.3911619795390484 [Eh]
	 Correlation Energy        =      -1.8533226379553729 [Eh]
	 Total Energy              =    -453.4637842583485963 [Eh]

	 ================> DF-SCS-MP2 Energies <==================
	-----------------------------------------------------------
	 SCS Same-Spin Scale       =       0.3333333333333333 [-]
	 SCS Opposite-Spin Scale   =       1.2000000000000000 [-]
	 SCS Same-Spin Energy      =      -0.1540535528054415 [Eh]
	 SCS Opposite-Spin Energy  =      -1.6693943754468581 [Eh]
	 SCS Correlation Energy    =      -1.8234479282522997 [Eh]
	 SCS Total Energy          =    -453.4339095486454880 [Eh]
	-----------------------------------------------------------

  Dipole Moment: [D]
     X:     1.1228      Y:    -2.6403      Z:     0.0000     Total:     2.8691

*** Psi4 exiting successfully. Buy a developer a beer!
