                               Psi4 1.3.2 release

  ==> Input File <==

--------------------------------------------------------------------------
#psi4
#
memory 32 gb

molecule  {
0 1
  O        1.4499930     1.0206980    -0.0000040
  O       -1.2728880     1.6029860     0.0000050
  N       -1.7320990    -0.6616920    -0.0000100
  N        1.0253160    -1.1826400     0.0000030
  C        0.5562417     0.0002489    -0.0000009
  C       -0.9157640     0.4229260    -0.0000010
  C       -3.1757780    -0.5360000     0.0000030
  C        2.6470610     0.3608020    -0.0000010
  C        2.3925880    -0.9806700     0.0000040
  H       -1.2896900    -1.5740920    -0.0000030
  H       -3.6075680    -0.9997290     0.8912900
  H       -3.6075830    -0.9997540    -0.8912630
  H       -3.4076560     0.5288570    -0.0000100
  H        3.5343540     0.9743460    -0.0000030
  H        3.0931030    -1.8035030     0.0000080
units angstrom
no_reorient  #important for SAPT in psi4, default
symmetry c1  #important for SAPT in psi4, default
}

set PROPERTIES_ORIGIN ["COM"]
properties('MP2/aug-cc-pvtz', properties = ['dipole'])
--------------------------------------------------------------------------

    Molecular point group: c1
  Charge       = 0
  Multiplicity = 1
  Basis Set: AUG-CC-PVTZ
    Blend: AUG-CC-PVTZ
  Basis Set: (AUG-CC-PVTZ AUX)
    Blend: AUG-CC-PVTZ-JKFIT

    Orbital Energies [Eh]
    ---------------------

    Doubly Occupied:

       1A    -20.656847     2A    -20.533514     3A    -15.597063
       4A    -15.592492     5A    -11.376001     6A    -11.355085
       7A    -11.315058     8A    -11.281433     9A    -11.265610
      10A     -1.505861    11A     -1.383576    12A     -1.273935
      13A     -1.237767    14A     -1.057765    15A     -0.969243
      16A     -0.869313    17A     -0.850090    18A     -0.793799
      19A     -0.773509    20A     -0.682053    21A     -0.676811
      22A     -0.655567    23A     -0.627624    24A     -0.623435
      25A     -0.594125    26A     -0.590976    27A     -0.554196
      28A     -0.545100    29A     -0.497696    30A     -0.479282
      31A     -0.443527    32A     -0.399671    33A     -0.357525

  @DF-RHF Final Energy:  -451.61020589300244

   => Energetics <=

    Nuclear Repulsion Energy =            433.3314990582922519
    One-Electron Energy =               -1475.0523130128608500
    Two-Electron Energy =                 590.1106080615662677
    Total Energy =                       -451.6102058930024441
  Basis Set: (AUG-CC-PVTZ AUX)
    Blend: AUG-CC-PVTZ-RI
    Molecular point group: c1

    Geometry (in Angstrom), charge = 0, multiplicity = 1:

       Center              X                  Y                   Z               Mass
    ------------   -----------------  -----------------  -----------------  -----------------
         O            1.405076291017     0.993383665454    -0.000003891482    15.994914619570
         O           -1.317804708983     1.575671665454     0.000005108518    15.994914619570
         N           -1.777015708983    -0.689006334546    -0.000009891482    14.003074004430
         N            0.980399291017    -1.209954334546     0.000003108518    14.003074004430
         C            0.511324991017    -0.027065434546    -0.000000791482    12.000000000000
         C           -0.960680708983     0.395611665454    -0.000000891482    12.000000000000
         C           -3.220694708983    -0.563314334546     0.000003108518    12.000000000000
         C            2.602144291017     0.333487665454    -0.000000891482    12.000000000000
         C            2.347671291017    -1.007984334546     0.000004108518    12.000000000000
         H           -1.334606708983    -1.601406334546    -0.000002891482     1.007825032230
         H           -3.652484708983    -1.027043334546     0.891290108518     1.007825032230
         H           -3.652499708983    -1.027068334546    -0.891262891482     1.007825032230
         H           -3.452572708983     0.501542665454    -0.000009891482     1.007825032230
         H            3.489437291017     0.947031665454    -0.000002891482     1.007825032230
         H            3.048186291017    -1.830817334546     0.000008108518     1.007825032230

  Basis Set: AUG-CC-PVTZ
    Blend: AUG-CC-PVTZ
  Basis Set: (AUG-CC-PVTZ AUX)
    Blend: AUG-CC-PVTZ-JKFIT
	 Reference Energy          =    -451.6102058930024441 [Eh]
	 Singles Energy            =      -0.0000000000000000 [Eh]
	 Same-Spin Energy          =      -0.4608500759907473 [Eh]
	 Opposite-Spin Energy      =      -1.3899222794656234 [Eh]
	 Correlation Energy        =      -1.8507723554563706 [Eh]
	 Total Energy              =    -453.4609782484587868 [Eh]

	 ================> DF-SCS-MP2 Energies <==================
	-----------------------------------------------------------
	 SCS Same-Spin Scale       =       0.3333333333333333 [-]
	 SCS Opposite-Spin Scale   =       1.2000000000000000 [-]
	 SCS Same-Spin Energy      =      -0.1536166919969158 [Eh]
	 SCS Opposite-Spin Energy  =      -1.6679067353587480 [Eh]
	 SCS Correlation Energy    =      -1.8215234273556637 [Eh]
	 SCS Total Energy          =    -453.4317293203581016 [Eh]
	-----------------------------------------------------------

  Dipole Moment: [D]
     X:     1.0752      Y:    -2.7471      Z:     0.0000     Total:     2.9501

*** Psi4 exiting successfully. Buy a developer a beer!
