                               Psi4 1.4a3.dev225

  ==> Input File <==

--------------------------------------------------------------------------
#psi4
#
memory 32 gb

molecule  {
0 1
  O        1.4499930     1.0206980    -0.0000040
  O       -1.2728880     1.6029860     0.0000050
  N       -1.7320990    -0.6616920    -0.0000100
  N        1.0253160    -1.1826400     0.0000030
  C        0.5211730     0.0320620    -0.0000010
  C       -0.9157640     0.4229260    -0.0000010
  C       -3.1757780    -0.5360000     0.0000030
  C        2.6470610     0.3608020    -0.0000010
  C        2.3925880    -0.9806700     0.0000040
  H       -1.2896900    -1.5740920    -0.0000030
  H       -3.6075680    -0.9997290     0.8912900
  H       -3.6075830    -0.9997540    -0.8912630
  H       -3.4076560     0.5288570    -0.0000100
  H        3.5508042     0.9857210    -0.0000030
  H        3.0931030    -1.8035030     0.0000080
units angstrom
no_reorient  #important for SAPT in psi4, default
symmetry c1  #important for SAPT in psi4, default
}

set PROPERTIES_ORIGIN ["COM"]
properties('MP2/aug-cc-pvtz', properties = ['dipole'])
--------------------------------------------------------------------------

    Molecular point group: c1
  Charge       = 0
  Multiplicity = 1
  Basis Set: AUG-CC-PVTZ
    Blend: AUG-CC-PVTZ
  Basis Set: (AUG-CC-PVTZ AUX)
    Blend: AUG-CC-PVTZ-JKFIT

    Orbital Energies [Eh]
    ---------------------

    Doubly Occupied:

       1A    -20.659334     2A    -20.533381     3A    -15.597263
       4A    -15.596249     5A    -11.374865     6A    -11.357487
       7A    -11.318179     8A    -11.281724     9A    -11.265893
      10A     -1.503715    11A     -1.385300    12A     -1.261283
      13A     -1.234818    14A     -1.060997    15A     -0.970735
      16A     -0.873931    17A     -0.847896    18A     -0.793835
      19A     -0.773359    20A     -0.680121    21A     -0.678195
      22A     -0.656405    23A     -0.627907    24A     -0.619960
      25A     -0.597536    26A     -0.590768    27A     -0.554320
      28A     -0.546524    29A     -0.490947    30A     -0.471666
      31A     -0.447439    32A     -0.399977    33A     -0.354682

  @DF-RHF Final Energy:  -451.60905886353436

   => Energetics <=

    Nuclear Repulsion Energy =            433.0354843289886730
    One-Electron Energy =               -1474.4757048427422887
    Two-Electron Energy =                 589.8311616502190873
    Total Energy =                       -451.6090588635344147
  Basis Set: (AUG-CC-PVTZ AUX)
    Blend: AUG-CC-PVTZ-RI
    Molecular point group: c1

    Geometry (in Angstrom), charge = 0, multiplicity = 1:

       Center              X                  Y                   Z               Mass
    ------------   -----------------  -----------------  -----------------  -----------------
         O            1.408283495775     0.990263925079    -0.000003881961    15.994914619570
         O           -1.314597504225     1.572551925079     0.000005118039    15.994914619570
         N           -1.773808504225    -0.692126074921    -0.000009881961    14.003074004430
         N            0.983606495775    -1.213074074921     0.000003118039    14.003074004430
         C            0.479463495775     0.001627925079    -0.000000881961    12.000000000000
         C           -0.957473504225     0.392491925079    -0.000000881961    12.000000000000
         C           -3.217487504225    -0.566434074921     0.000003118039    12.000000000000
         C            2.605351495775     0.330367925079    -0.000000881961    12.000000000000
         C            2.350878495775    -1.011104074921     0.000004118039    12.000000000000
         H           -1.331399504225    -1.604526074921    -0.000002881961     1.007825032230
         H           -3.649277504225    -1.030163074921     0.891290118039     1.007825032230
         H           -3.649292504225    -1.030188074921    -0.891262881961     1.007825032230
         H           -3.449365504225     0.498422925079    -0.000009881961     1.007825032230
         H            3.509094695775     0.955286925079    -0.000002881961     1.007825032230
         H            3.051393495775    -1.833937074921     0.000008118039     1.007825032230

  Basis Set: AUG-CC-PVTZ
    Blend: AUG-CC-PVTZ
  Basis Set: (AUG-CC-PVTZ AUX)
    Blend: AUG-CC-PVTZ-JKFIT
	 Reference Energy          =    -451.6090588635343579 [Eh]
	 Singles Energy            =      -0.0000000000000000 [Eh]
	 Same-Spin Energy          =      -0.4622380065055580 [Eh]
	 Opposite-Spin Energy      =      -1.3920761965744797 [Eh]
	 Correlation Energy        =      -1.8543142030800377 [Eh]
	 Total Energy              =    -453.4633730666143947 [Eh]

	 ================> DF-SCS-MP2 Energies <==================
	-----------------------------------------------------------
	 SCS Same-Spin Scale       =       0.3333333333333333 [-]
	 SCS Opposite-Spin Scale   =       1.2000000000000000 [-]
	 SCS Same-Spin Energy      =      -0.1540793355018527 [Eh]
	 SCS Opposite-Spin Energy  =      -1.6704914358893757 [Eh]
	 SCS Correlation Energy    =      -1.8245707713912283 [Eh]
	 SCS Total Energy          =    -453.4336296349255804 [Eh]
	-----------------------------------------------------------

  Dipole Moment: [D]
     X:     1.1513      Y:    -2.6906      Z:     0.0000     Total:     2.9265

*** Psi4 exiting successfully. Buy a developer a beer!
