                               Psi4 1.3.2 release

  ==> Input File <==

--------------------------------------------------------------------------
#psi4
#
memory 32 gb

molecule  {
0 1
  O        1.4499930     1.0206980    -0.0000040
  O       -1.2728880     1.6029860     0.0000050
  N       -1.7320990    -0.6616920    -0.0000100
  N        1.0253160    -1.1826400     0.0000030
  C        0.5211730     0.0320620    -0.0000010
  C       -0.9157640     0.4229260    -0.0000010
  C       -3.1757780    -0.5360000     0.0000030
  C        2.6470610     0.3608020    -0.0000010
  C        2.4112253    -0.8824221     0.0000036
  H       -1.2896900    -1.5740920    -0.0000030
  H       -3.6075680    -0.9997290     0.8912900
  H       -3.6075830    -0.9997540    -0.8912630
  H       -3.4076560     0.5288570    -0.0000100
  H        3.5343540     0.9743460    -0.0000030
  H        3.0931030    -1.8035030     0.0000080
units angstrom
no_reorient  #important for SAPT in psi4, default
symmetry c1  #important for SAPT in psi4, default
}

set PROPERTIES_ORIGIN ["COM"]
properties('MP2/aug-cc-pvtz', properties = ['dipole'])
--------------------------------------------------------------------------

    Molecular point group: c1
  Charge       = 0
  Multiplicity = 1
  Basis Set: AUG-CC-PVTZ
    Blend: AUG-CC-PVTZ
  Basis Set: (AUG-CC-PVTZ AUX)
    Blend: AUG-CC-PVTZ-JKFIT

    Orbital Energies [Eh]
    ---------------------

    Doubly Occupied:

       1A    -20.650739     2A    -20.535139     3A    -15.598823
       4A    -15.596000     5A    -11.375857     6A    -11.360149
       7A    -11.300233     8A    -11.272810     9A    -11.266833
      10A     -1.503689    11A     -1.386743    12A     -1.257497
      13A     -1.232244    14A     -1.076999    15A     -0.976445
      16A     -0.881643    17A     -0.838459    18A     -0.792313
      19A     -0.772258    20A     -0.681902    21A     -0.681344
      22A     -0.654277    23A     -0.629204    24A     -0.608334
      25A     -0.595087    26A     -0.580945    27A     -0.555366
      28A     -0.547851    29A     -0.497033    30A     -0.466659
      31A     -0.448010    32A     -0.401450    33A     -0.375307

  @DF-RHF Final Energy:  -451.59869644801404

   => Energetics <=

    Nuclear Repulsion Energy =            434.3267065556465809
    One-Electron Energy =               -1477.0555199029279265
    Two-Electron Energy =                 591.1301168992673638
    Total Energy =                       -451.5986964480140387
  Basis Set: (AUG-CC-PVTZ AUX)
    Blend: AUG-CC-PVTZ-RI
    Molecular point group: c1

    Geometry (in Angstrom), charge = 0, multiplicity = 1:

       Center              X                  Y                   Z               Mass
    ------------   -----------------  -----------------  -----------------  -----------------
         O            1.406640653286     0.981001122207    -0.000003843879    15.994914619570
         O           -1.316240346714     1.563289122207     0.000005156121    15.994914619570
         N           -1.775451346714    -0.701388877793    -0.000009843879    14.003074004430
         N            0.981963653286    -1.222336877793     0.000003156121    14.003074004430
         C            0.477820653286    -0.007634877793    -0.000000843879    12.000000000000
         C           -0.959116346714     0.383229122207    -0.000000843879    12.000000000000
         C           -3.219130346714    -0.575696877793     0.000003156121    12.000000000000
         C            2.603708653286     0.321105122207    -0.000000843879    12.000000000000
         C            2.367872953286    -0.922118977793     0.000003756121    12.000000000000
         H           -1.333042346714    -1.613788877793    -0.000002843879     1.007825032230
         H           -3.650920346714    -1.039425877793     0.891290156121     1.007825032230
         H           -3.650935346714    -1.039450877793    -0.891262843879     1.007825032230
         H           -3.451008346714     0.489160122207    -0.000009843879     1.007825032230
         H            3.491001653286     0.934649122207    -0.000002843879     1.007825032230
         H            3.049750653286    -1.843199877793     0.000008156121     1.007825032230

  Basis Set: AUG-CC-PVTZ
    Blend: AUG-CC-PVTZ
  Basis Set: (AUG-CC-PVTZ AUX)
    Blend: AUG-CC-PVTZ-JKFIT
	 Reference Energy          =    -451.5986964480140387 [Eh]
	 Singles Energy            =      -0.0000000000000000 [Eh]
	 Same-Spin Energy          =      -0.4604397744310134 [Eh]
	 Opposite-Spin Energy      =      -1.3897085438842971 [Eh]
	 Correlation Energy        =      -1.8501483183153105 [Eh]
	 Total Energy              =    -453.4488447663293300 [Eh]

	 ================> DF-SCS-MP2 Energies <==================
	-----------------------------------------------------------
	 SCS Same-Spin Scale       =       0.3333333333333333 [-]
	 SCS Opposite-Spin Scale   =       1.2000000000000000 [-]
	 SCS Same-Spin Energy      =      -0.1534799248103378 [Eh]
	 SCS Opposite-Spin Energy  =      -1.6676502526611565 [Eh]
	 SCS Correlation Energy    =      -1.8211301774714943 [Eh]
	 SCS Total Energy          =    -453.4198266254855412 [Eh]
	-----------------------------------------------------------

  Dipole Moment: [D]
     X:     1.0204      Y:    -2.6331      Z:     0.0000     Total:     2.8239

*** Psi4 exiting successfully. Buy a developer a beer!
