                               Psi4 1.3.2 release

  ==> Input File <==

--------------------------------------------------------------------------
#psi4
#
memory 32 gb

molecule  {
0 1
  O        1.4499930     1.0206980    -0.0000040
  O       -1.2728880     1.6029860     0.0000050
  N       -1.7320990    -0.6616920    -0.0000100
  N        1.0253160    -1.1826400     0.0000030
  C        0.5211730     0.0320620    -0.0000010
  C       -0.9157640     0.4229260    -0.0000010
  C       -3.1757780    -0.5360000     0.0000030
  C        2.6470610     0.3608020    -0.0000010
  C        2.2537600    -0.9467216     0.0000038
  H       -1.2896900    -1.5740920    -0.0000030
  H       -3.6075680    -0.9997290     0.8912900
  H       -3.6075830    -0.9997540    -0.8912630
  H       -3.4076560     0.5288570    -0.0000100
  H        3.5343540     0.9743460    -0.0000030
  H        3.0931030    -1.8035030     0.0000080
units angstrom
no_reorient  #important for SAPT in psi4, default
symmetry c1  #important for SAPT in psi4, default
}

set PROPERTIES_ORIGIN ["COM"]
properties('MP2/aug-cc-pvtz', properties = ['dipole'])
--------------------------------------------------------------------------

    Molecular point group: c1
  Charge       = 0
  Multiplicity = 1
  Basis Set: AUG-CC-PVTZ
    Blend: AUG-CC-PVTZ
  Basis Set: (AUG-CC-PVTZ AUX)
    Blend: AUG-CC-PVTZ-JKFIT

    Orbital Energies [Eh]
    ---------------------

    Doubly Occupied:

       1A    -20.663977     2A    -20.532328     3A    -15.598202
       4A    -15.592605     5A    -11.374400     6A    -11.359188
       7A    -11.309438     8A    -11.281558     9A    -11.266539
      10A     -1.514053    11A     -1.384845    12A     -1.301922
      13A     -1.242078    14A     -1.059851    15A     -0.971384
      16A     -0.877376    17A     -0.849369    18A     -0.805578
      19A     -0.776687    20A     -0.688628    21A     -0.681451
      22A     -0.656535    23A     -0.628830    24A     -0.625596
      25A     -0.597219    26A     -0.571594    27A     -0.554034
      28A     -0.546398    29A     -0.497865    30A     -0.491780
      31A     -0.447212    32A     -0.400837    33A     -0.343856

  @DF-RHF Final Energy:  -451.57934868087386

   => Energetics <=

    Nuclear Repulsion Energy =            436.3337027615233410
    One-Electron Energy =               -1480.8396782436532249
    Two-Electron Energy =                 592.9266268012561341
    Total Energy =                       -451.5793486808738635
  Basis Set: (AUG-CC-PVTZ AUX)
    Blend: AUG-CC-PVTZ-RI
    Molecular point group: c1

    Geometry (in Angstrom), charge = 0, multiplicity = 1:

       Center              X                  Y                   Z               Mass
    ------------   -----------------  -----------------  -----------------  -----------------
         O            1.421632240980     0.987122798494    -0.000003862920    15.994914619570
         O           -1.301248759020     1.569410798494     0.000005137080    15.994914619570
         N           -1.760459759020    -0.695267201506    -0.000009862920    14.003074004430
         N            0.996955240980    -1.216215201506     0.000003137080    14.003074004430
         C            0.492812240980    -0.001513201506    -0.000000862920    12.000000000000
         C           -0.944124759020     0.389350798494    -0.000000862920    12.000000000000
         C           -3.204138759020    -0.569575201506     0.000003137080    12.000000000000
         C            2.618700240980     0.327226798494    -0.000000862920    12.000000000000
         C            2.225399240980    -0.980296801506     0.000003937080    12.000000000000
         H           -1.318050759020    -1.607667201506    -0.000002862920     1.007825032230
         H           -3.635928759020    -1.033304201506     0.891290137080     1.007825032230
         H           -3.635943759020    -1.033329201506    -0.891262862920     1.007825032230
         H           -3.436016759020     0.495281798494    -0.000009862920     1.007825032230
         H            3.505993240980     0.940770798494    -0.000002862920     1.007825032230
         H            3.064742240980    -1.837078201506     0.000008137080     1.007825032230

  Basis Set: AUG-CC-PVTZ
    Blend: AUG-CC-PVTZ
  Basis Set: (AUG-CC-PVTZ AUX)
    Blend: AUG-CC-PVTZ-JKFIT
	 Reference Energy          =    -451.5793486808738635 [Eh]
	 Singles Energy            =      -0.0000000000000000 [Eh]
	 Same-Spin Energy          =      -0.4646187537149958 [Eh]
	 Opposite-Spin Energy      =      -1.3932114984235358 [Eh]
	 Correlation Energy        =      -1.8578302521385315 [Eh]
	 Total Energy              =    -453.4371789330123761 [Eh]

	 ================> DF-SCS-MP2 Energies <==================
	-----------------------------------------------------------
	 SCS Same-Spin Scale       =       0.3333333333333333 [-]
	 SCS Opposite-Spin Scale   =       1.2000000000000000 [-]
	 SCS Same-Spin Energy      =      -0.1548729179049986 [Eh]
	 SCS Opposite-Spin Energy  =      -1.6718537981082429 [Eh]
	 SCS Correlation Energy    =      -1.8267267160132414 [Eh]
	 SCS Total Energy          =    -453.4060753968871040 [Eh]
	-----------------------------------------------------------

  Dipole Moment: [D]
     X:     1.0655      Y:    -2.6139      Z:     0.0000     Total:     2.8227

*** Psi4 exiting successfully. Buy a developer a beer!
