                               Psi4 1.3.2 release

  ==> Input File <==

--------------------------------------------------------------------------
#psi4
#
memory 32 gb

molecule  {
0 1
  O        1.4499930     1.0206980    -0.0000040
  O       -1.2728880     1.6029860     0.0000050
  N       -1.7320990    -0.6616920    -0.0000100
  N        1.1088213    -1.1445138     0.0000028
  C        0.5211730     0.0320620    -0.0000010
  C       -0.9157640     0.4229260    -0.0000010
  C       -3.1757780    -0.5360000     0.0000030
  C        2.6470610     0.3608020    -0.0000010
  C        2.3925880    -0.9806700     0.0000040
  H       -1.2896900    -1.5740920    -0.0000030
  H       -3.6075680    -0.9997290     0.8912900
  H       -3.6075830    -0.9997540    -0.8912630
  H       -3.4076560     0.5288570    -0.0000100
  H        3.5343540     0.9743460    -0.0000030
  H        3.0931030    -1.8035030     0.0000080
units angstrom
no_reorient  #important for SAPT in psi4, default
symmetry c1  #important for SAPT in psi4, default
}

set PROPERTIES_ORIGIN ["COM"]
properties('MP2/aug-cc-pvtz', properties = ['dipole'])
--------------------------------------------------------------------------

    Molecular point group: c1
  Charge       = 0
  Multiplicity = 1
  Basis Set: AUG-CC-PVTZ
    Blend: AUG-CC-PVTZ
  Basis Set: (AUG-CC-PVTZ AUX)
    Blend: AUG-CC-PVTZ-JKFIT

    Orbital Energies [Eh]
    ---------------------

    Doubly Occupied:

       1A    -20.659684     2A    -20.533429     3A    -15.598487
       4A    -15.585110     5A    -11.376852     6A    -11.352414
       7A    -11.313014     8A    -11.273013     9A    -11.266528
      10A     -1.506407    11A     -1.385574    12A     -1.274265
      13A     -1.240945    14A     -1.062372    15A     -0.971385
      16A     -0.871625    17A     -0.856308    18A     -0.800374
      19A     -0.775617    20A     -0.684720    21A     -0.681750
      22A     -0.659156    23A     -0.628959    24A     -0.628623
      25A     -0.599939    26A     -0.592390    27A     -0.554551
      28A     -0.546716    29A     -0.482634    30A     -0.476081
      31A     -0.448491    32A     -0.401206    33A     -0.346370

  @DF-RHF Final Energy:  -451.60264800803247

   => Energetics <=

    Nuclear Repulsion Energy =            434.4029763596034286
    One-Electron Energy =               -1477.1412760542127671
    Two-Electron Energy =                 591.1356516865769208
    Total Energy =                       -451.6026480080324745
  Basis Set: (AUG-CC-PVTZ AUX)
    Blend: AUG-CC-PVTZ-RI
    Molecular point group: c1

    Geometry (in Angstrom), charge = 0, multiplicity = 1:

       Center              X                  Y                   Z               Mass
    ------------   -----------------  -----------------  -----------------  -----------------
         O            1.399137786486     0.986119146780    -0.000003859742    15.994914619570
         O           -1.323743213514     1.568407146780     0.000005140258    15.994914619570
         N           -1.782954213514    -0.696270853220    -0.000009859742    14.003074004430
         N            1.057966086486    -1.179092653220     0.000002940258    14.003074004430
         C            0.470317786486    -0.002516853220    -0.000000859742    12.000000000000
         C           -0.966619213514     0.388347146780    -0.000000859742    12.000000000000
         C           -3.226633213514    -0.570578853220     0.000003140258    12.000000000000
         C            2.596205786486     0.326223146780    -0.000000859742    12.000000000000
         C            2.341732786486    -1.015248853220     0.000004140258    12.000000000000
         H           -1.340545213514    -1.608670853220    -0.000002859742     1.007825032230
         H           -3.658423213514    -1.034307853220     0.891290140258     1.007825032230
         H           -3.658438213514    -1.034332853220    -0.891262859742     1.007825032230
         H           -3.458511213514     0.494278146780    -0.000009859742     1.007825032230
         H            3.483498786486     0.939767146780    -0.000002859742     1.007825032230
         H            3.042247786486    -1.838081853220     0.000008140258     1.007825032230

  Basis Set: AUG-CC-PVTZ
    Blend: AUG-CC-PVTZ
  Basis Set: (AUG-CC-PVTZ AUX)
    Blend: AUG-CC-PVTZ-JKFIT
	 Reference Energy          =    -451.6026480080324745 [Eh]
	 Singles Energy            =      -0.0000000000000000 [Eh]
	 Same-Spin Energy          =      -0.4634789490826573 [Eh]
	 Opposite-Spin Energy      =      -1.3913795576474102 [Eh]
	 Correlation Energy        =      -1.8548585067300674 [Eh]
	 Total Energy              =    -453.4575065147625423 [Eh]

	 ================> DF-SCS-MP2 Energies <==================
	-----------------------------------------------------------
	 SCS Same-Spin Scale       =       0.3333333333333333 [-]
	 SCS Opposite-Spin Scale   =       1.2000000000000000 [-]
	 SCS Same-Spin Energy      =      -0.1544929830275524 [Eh]
	 SCS Opposite-Spin Energy  =      -1.6696554691768921 [Eh]
	 SCS Correlation Energy    =      -1.8241484522044447 [Eh]
	 SCS Total Energy          =    -453.4267964602369148 [Eh]
	-----------------------------------------------------------

  Dipole Moment: [D]
     X:     1.0407      Y:    -2.7942      Z:     0.0000     Total:     2.9817

*** Psi4 exiting successfully. Buy a developer a beer!
