                               Psi4 1.3.2 release

  ==> Input File <==

--------------------------------------------------------------------------
#psi4
#
memory 32 gb

molecule  {
0 1
  O        1.4499930     1.0206980    -0.0000040
  O       -1.2934285     1.5965736     0.0000049
  N       -1.7320990    -0.6616920    -0.0000100
  N        1.0253160    -1.1826400     0.0000030
  C        0.5211730     0.0320620    -0.0000010
  C       -0.9157640     0.4229260    -0.0000010
  C       -3.1757780    -0.5360000     0.0000030
  C        2.6470610     0.3608020    -0.0000010
  C        2.3925880    -0.9806700     0.0000040
  H       -1.2896900    -1.5740920    -0.0000030
  H       -3.6075680    -0.9997290     0.8912900
  H       -3.6075830    -0.9997540    -0.8912630
  H       -3.4076560     0.5288570    -0.0000100
  H        3.5343540     0.9743460    -0.0000030
  H        3.0931030    -1.8035030     0.0000080
units angstrom
no_reorient  #important for SAPT in psi4, default
symmetry c1  #important for SAPT in psi4, default
}

set PROPERTIES_ORIGIN ["COM"]
properties('MP2/aug-cc-pvtz', properties = ['dipole'])
--------------------------------------------------------------------------

    Molecular point group: c1
  Charge       = 0
  Multiplicity = 1
  Basis Set: AUG-CC-PVTZ
    Blend: AUG-CC-PVTZ
  Basis Set: (AUG-CC-PVTZ AUX)
    Blend: AUG-CC-PVTZ-JKFIT

    Orbital Energies [Eh]
    ---------------------

    Doubly Occupied:

       1A    -20.659924     2A    -20.532944     3A    -15.596951
       4A    -15.596251     5A    -11.374699     6A    -11.358434
       7A    -11.316729     8A    -11.282281     9A    -11.265053
      10A     -1.504289    11A     -1.385383    12A     -1.261340
      13A     -1.234065    14A     -1.062204    15A     -0.970685
      16A     -0.874414    17A     -0.849935    18A     -0.793694
      19A     -0.773983    20A     -0.680740    21A     -0.680605
      22A     -0.656656    23A     -0.627411    24A     -0.621213
      25A     -0.597820    26A     -0.591896    27A     -0.553275
      28A     -0.546158    29A     -0.491540    30A     -0.472171
      31A     -0.447457    32A     -0.399180    33A     -0.355273

  @DF-RHF Final Energy:  -451.60960437454901

   => Energetics <=

    Nuclear Repulsion Energy =            433.0862067686983892
    One-Electron Energy =               -1474.5623190536373386
    Two-Electron Energy =                 589.8665079103900553
    Total Energy =                       -451.6096043745490078
  Basis Set: (AUG-CC-PVTZ AUX)
    Blend: AUG-CC-PVTZ-RI
    Molecular point group: c1

    Geometry (in Angstrom), charge = 0, multiplicity = 1:

       Center              X                  Y                   Z               Mass
    ------------   -----------------  -----------------  -----------------  -----------------
         O            1.411021630108     0.991168615271    -0.000003869271    15.994914619570
         O           -1.332399869892     1.567044215271     0.000005030729    15.994914619570
         N           -1.771070369892    -0.691221384729    -0.000009869271    14.003074004430
         N            0.986344630108    -1.212169384729     0.000003130729    14.003074004430
         C            0.482201630108     0.002532615271    -0.000000869271    12.000000000000
         C           -0.954735369892     0.393396615271    -0.000000869271    12.000000000000
         C           -3.214749369892    -0.565529384729     0.000003130729    12.000000000000
         C            2.608089630108     0.331272615271    -0.000000869271    12.000000000000
         C            2.353616630108    -1.010199384729     0.000004130729    12.000000000000
         H           -1.328661369892    -1.603621384729    -0.000002869271     1.007825032230
         H           -3.646539369892    -1.029258384729     0.891290130729     1.007825032230
         H           -3.646554369892    -1.029283384729    -0.891262869271     1.007825032230
         H           -3.446627369892     0.499327615271    -0.000009869271     1.007825032230
         H            3.495382630108     0.944816615271    -0.000002869271     1.007825032230
         H            3.054131630108    -1.833032384729     0.000008130729     1.007825032230

  Basis Set: AUG-CC-PVTZ
    Blend: AUG-CC-PVTZ
  Basis Set: (AUG-CC-PVTZ AUX)
    Blend: AUG-CC-PVTZ-JKFIT
	 Reference Energy          =    -451.6096043745490078 [Eh]
	 Singles Energy            =      -0.0000000000000000 [Eh]
	 Same-Spin Energy          =      -0.4622384884693376 [Eh]
	 Opposite-Spin Energy      =      -1.3919688096428957 [Eh]
	 Correlation Energy        =      -1.8542072981122333 [Eh]
	 Total Energy              =    -453.4638116726612225 [Eh]

	 ================> DF-SCS-MP2 Energies <==================
	-----------------------------------------------------------
	 SCS Same-Spin Scale       =       0.3333333333333333 [-]
	 SCS Opposite-Spin Scale   =       1.2000000000000000 [-]
	 SCS Same-Spin Energy      =      -0.1540794961564459 [Eh]
	 SCS Opposite-Spin Energy  =      -1.6703625715714747 [Eh]
	 SCS Correlation Energy    =      -1.8244420677279205 [Eh]
	 SCS Total Energy          =    -453.4340464422769514 [Eh]
	-----------------------------------------------------------

  Dipole Moment: [D]
     X:     1.2189      Y:    -2.6855      Z:     0.0000     Total:     2.9491

*** Psi4 exiting successfully. Buy a developer a beer!
