                               Psi4 1.4a3.dev225

  ==> Input File <==

--------------------------------------------------------------------------
#psi4
#
memory 32 gb

molecule  {
0 1
  O        1.4499930     1.0206980    -0.0000040
  O       -1.2728880     1.6029860     0.0000050
  N       -1.7320990    -0.6616920    -0.0000100
  N        1.0253160    -1.1826400     0.0000030
  C        0.5211730     0.0320620    -0.0000010
  C       -0.9157640     0.4229260    -0.0000010
  C       -3.1757780    -0.5360000     0.0000030
  C        2.6470610     0.3608020    -0.0000010
  C        2.3728027    -0.9835926     0.0000040
  H       -1.2896900    -1.5740920    -0.0000030
  H       -3.6075680    -0.9997290     0.8912900
  H       -3.6075830    -0.9997540    -0.8912630
  H       -3.4076560     0.5288570    -0.0000100
  H        3.5343540     0.9743460    -0.0000030
  H        3.0931030    -1.8035030     0.0000080
units angstrom
no_reorient  #important for SAPT in psi4, default
symmetry c1  #important for SAPT in psi4, default
}

set PROPERTIES_ORIGIN ["COM"]
properties('MP2/aug-cc-pvtz', properties = ['dipole'])
--------------------------------------------------------------------------

    Molecular point group: c1
  Charge       = 0
  Multiplicity = 1
  Basis Set: AUG-CC-PVTZ
    Blend: AUG-CC-PVTZ
  Basis Set: (AUG-CC-PVTZ AUX)
    Blend: AUG-CC-PVTZ-JKFIT

    Orbital Energies [Eh]
    ---------------------

    Doubly Occupied:

       1A    -20.660243     2A    -20.533067     3A    -15.597211
       4A    -15.595747     5A    -11.374658     6A    -11.357335
       7A    -11.316008     8A    -11.282063     9A    -11.265867
      10A     -1.504616    11A     -1.385079    12A     -1.265352
      13A     -1.236582    14A     -1.060445    15A     -0.970649
      16A     -0.872832    17A     -0.850605    18A     -0.795028
      19A     -0.774296    20A     -0.680742    21A     -0.680557
      22A     -0.657109    23A     -0.627872    24A     -0.622068
      25A     -0.597213    26A     -0.589480    27A     -0.554292
      28A     -0.546358    29A     -0.491830    30A     -0.475037
      31A     -0.447405    32A     -0.399957    33A     -0.351887

  @DF-RHF Final Energy:  -451.60883990109051

   => Energetics <=

    Nuclear Repulsion Energy =            433.4589273998834074
    One-Electron Energy =               -1475.2965485784541215
    Two-Electron Energy =                 590.2287812774802660
    Total Energy =                       -451.6088399010905050
  Basis Set: (AUG-CC-PVTZ AUX)
    Blend: AUG-CC-PVTZ-RI
    Molecular point group: c1

    Geometry (in Angstrom), charge = 0, multiplicity = 1:

       Center              X                  Y                   Z               Mass
    ------------   -----------------  -----------------  -----------------  -----------------
         O            1.410298702249     0.990633126356    -0.000003881961    15.994914619570
         O           -1.312582297751     1.572921126356     0.000005118039    15.994914619570
         N           -1.771793297751    -0.691756873644    -0.000009881961    14.003074004430
         N            0.985621702249    -1.212704873644     0.000003118039    14.003074004430
         C            0.481478702249     0.001997126356    -0.000000881961    12.000000000000
         C           -0.955458297751     0.392861126356    -0.000000881961    12.000000000000
         C           -3.215472297751    -0.566064873644     0.000003118039    12.000000000000
         C            2.607366702249     0.330737126356    -0.000000881961    12.000000000000
         C            2.333108402249    -1.013657473644     0.000004118039    12.000000000000
         H           -1.329384297751    -1.604156873644    -0.000002881961     1.007825032230
         H           -3.647262297751    -1.029793873644     0.891290118039     1.007825032230
         H           -3.647277297751    -1.029818873644    -0.891262881961     1.007825032230
         H           -3.447350297751     0.498792126356    -0.000009881961     1.007825032230
         H            3.494659702249     0.944281126356    -0.000002881961     1.007825032230
         H            3.053408702249    -1.833567873644     0.000008118039     1.007825032230

  Basis Set: AUG-CC-PVTZ
    Blend: AUG-CC-PVTZ
  Basis Set: (AUG-CC-PVTZ AUX)
    Blend: AUG-CC-PVTZ-JKFIT
	 Reference Energy          =    -451.6088399010905050 [Eh]
	 Singles Energy            =      -0.0000000000000000 [Eh]
	 Same-Spin Energy          =      -0.4625927376057651 [Eh]
	 Opposite-Spin Energy      =      -1.3920986268551061 [Eh]
	 Correlation Energy        =      -1.8546913644608711 [Eh]
	 Total Energy              =    -453.4635312655513530 [Eh]

	 ================> DF-SCS-MP2 Energies <==================
	-----------------------------------------------------------
	 SCS Same-Spin Scale       =       0.3333333333333333 [-]
	 SCS Opposite-Spin Scale   =       1.2000000000000000 [-]
	 SCS Same-Spin Energy      =      -0.1541975792019217 [Eh]
	 SCS Opposite-Spin Energy  =      -1.6705183522261273 [Eh]
	 SCS Correlation Energy    =      -1.8247159314280490 [Eh]
	 SCS Total Energy          =    -453.4335558325185502 [Eh]
	-----------------------------------------------------------

  Dipole Moment: [D]
     X:     1.1539      Y:    -2.6953      Z:     0.0000     Total:     2.9319

*** Psi4 exiting successfully. Buy a developer a beer!
