                               Psi4 1.3.2 release

  ==> Input File <==

--------------------------------------------------------------------------
#psi4
#
memory 32 gb

molecule  {
0 1
  O        1.4499930     1.0206980    -0.0000040
  O       -1.2728880     1.6029860     0.0000050
  N       -1.7320990    -0.6616920    -0.0000100
  N        1.0331976    -1.2302341     0.0000032
  C        0.5211730     0.0320620    -0.0000010
  C       -0.9157640     0.4229260    -0.0000010
  C       -3.1757780    -0.5360000     0.0000030
  C        2.6470610     0.3608020    -0.0000010
  C        2.3925880    -0.9806700     0.0000040
  H       -1.2896900    -1.5740920    -0.0000030
  H       -3.6075680    -0.9997290     0.8912900
  H       -3.6075830    -0.9997540    -0.8912630
  H       -3.4076560     0.5288570    -0.0000100
  H        3.5343540     0.9743460    -0.0000030
  H        3.0931030    -1.8035030     0.0000080
units angstrom
no_reorient  #important for SAPT in psi4, default
symmetry c1  #important for SAPT in psi4, default
}

set PROPERTIES_ORIGIN ["COM"]
properties('MP2/aug-cc-pvtz', properties = ['dipole'])
--------------------------------------------------------------------------

    Molecular point group: c1
  Charge       = 0
  Multiplicity = 1
  Basis Set: AUG-CC-PVTZ
    Blend: AUG-CC-PVTZ
  Basis Set: (AUG-CC-PVTZ AUX)
    Blend: AUG-CC-PVTZ-JKFIT

    Orbital Energies [Eh]
    ---------------------

    Doubly Occupied:

       1A    -20.665389     2A    -20.534117     3A    -15.603495
       4A    -15.597905     5A    -11.375998     6A    -11.365233
       7A    -11.315577     8A    -11.282366     9A    -11.266277
      10A     -1.504285    11A     -1.386089    12A     -1.255443
      13A     -1.231979    14A     -1.059316    15A     -0.971249
      16A     -0.876113    17A     -0.845650    18A     -0.795626
      19A     -0.774358    20A     -0.679832    21A     -0.679233
      22A     -0.656195    23A     -0.628419    24A     -0.615727
      25A     -0.597654    26A     -0.593101    27A     -0.554695
      28A     -0.547081    29A     -0.494929    30A     -0.468811
      31A     -0.448700    32A     -0.400602    33A     -0.350917

  @DF-RHF Final Energy:  -451.60208852532719

   => Energetics <=

    Nuclear Repulsion Energy =            431.8806767299521425
    One-Electron Energy =               -1472.1208093729035227
    Two-Electron Energy =                 588.6380441176240765
    Total Energy =                       -451.6020885253271899
  Basis Set: (AUG-CC-PVTZ AUX)
    Blend: AUG-CC-PVTZ-RI
    Molecular point group: c1

    Geometry (in Angstrom), charge = 0, multiplicity = 1:

       Center              X                  Y                   Z               Mass
    ------------   -----------------  -----------------  -----------------  -----------------
         O            1.407539402420     0.995642471325    -0.000003904181    15.994914619570
         O           -1.315341597580     1.577930471325     0.000005095819    15.994914619570
         N           -1.774552597580    -0.686747528675    -0.000009904181    14.003074004430
         N            0.990744002420    -1.255289628675     0.000003295819    14.003074004430
         C            0.478719402420     0.007006471325    -0.000000904181    12.000000000000
         C           -0.958217597580     0.397870471325    -0.000000904181    12.000000000000
         C           -3.218231597580    -0.561055528675     0.000003095819    12.000000000000
         C            2.604607402420     0.335746471325    -0.000000904181    12.000000000000
         C            2.350134402420    -1.005725528675     0.000004095819    12.000000000000
         H           -1.332143597580    -1.599147528675    -0.000002904181     1.007825032230
         H           -3.650021597580    -1.024784528675     0.891290095819     1.007825032230
         H           -3.650036597580    -1.024809528675    -0.891262904181     1.007825032230
         H           -3.450109597580     0.503801471325    -0.000009904181     1.007825032230
         H            3.491900402420     0.949290471325    -0.000002904181     1.007825032230
         H            3.050649402420    -1.828558528675     0.000008095819     1.007825032230

  Basis Set: AUG-CC-PVTZ
    Blend: AUG-CC-PVTZ
  Basis Set: (AUG-CC-PVTZ AUX)
    Blend: AUG-CC-PVTZ-JKFIT
	 Reference Energy          =    -451.6020885253271899 [Eh]
	 Singles Energy            =      -0.0000000000000000 [Eh]
	 Same-Spin Energy          =      -0.4636354040868440 [Eh]
	 Opposite-Spin Energy      =      -1.3948899840992293 [Eh]
	 Correlation Energy        =      -1.8585253881860733 [Eh]
	 Total Energy              =    -453.4606139135132707 [Eh]

	 ================> DF-SCS-MP2 Energies <==================
	-----------------------------------------------------------
	 SCS Same-Spin Scale       =       0.3333333333333333 [-]
	 SCS Opposite-Spin Scale   =       1.2000000000000000 [-]
	 SCS Same-Spin Energy      =      -0.1545451346956146 [Eh]
	 SCS Opposite-Spin Energy  =      -1.6738679809190751 [Eh]
	 SCS Correlation Energy    =      -1.8284131156146897 [Eh]
	 SCS Total Energy          =    -453.4305016409418840 [Eh]
	-----------------------------------------------------------

  Dipole Moment: [D]
     X:     1.1689      Y:    -2.5994      Z:     0.0000     Total:     2.8502

*** Psi4 exiting successfully. Buy a developer a beer!
