                               Psi4 1.4a3.dev225

  ==> Input File <==

--------------------------------------------------------------------------
#psi4
#
memory 32 gb

molecule  {
0 1
  O        1.4499930     1.0206980    -0.0000040
  O       -1.2728880     1.6029860     0.0000050
  N       -1.7320990    -0.6616920    -0.0000100
  N        1.0253160    -1.1826400     0.0000030
  C        0.5288396     0.0135898    -0.0000009
  C       -0.9157640     0.4229260    -0.0000010
  C       -3.1757780    -0.5360000     0.0000030
  C        2.6470610     0.3608020    -0.0000010
  C        2.3925880    -0.9806700     0.0000040
  H       -1.2896900    -1.5740920    -0.0000030
  H       -3.6075680    -0.9997290     0.8912900
  H       -3.6075830    -0.9997540    -0.8912630
  H       -3.4076560     0.5288570    -0.0000100
  H        3.5343540     0.9743460    -0.0000030
  H        3.0931030    -1.8035030     0.0000080
units angstrom
no_reorient  #important for SAPT in psi4, default
symmetry c1  #important for SAPT in psi4, default
}

set PROPERTIES_ORIGIN ["COM"]
properties('MP2/aug-cc-pvtz', properties = ['dipole'])
--------------------------------------------------------------------------

    Molecular point group: c1
  Charge       = 0
  Multiplicity = 1
  Basis Set: AUG-CC-PVTZ
    Blend: AUG-CC-PVTZ
  Basis Set: (AUG-CC-PVTZ AUX)
    Blend: AUG-CC-PVTZ-JKFIT

    Orbital Energies [Eh]
    ---------------------

    Doubly Occupied:

       1A    -20.656817     2A    -20.533686     3A    -15.597293
       4A    -15.595284     5A    -11.375454     6A    -11.356342
       7A    -11.316031     8A    -11.281312     9A    -11.265837
      10A     -1.500973    11A     -1.384799    12A     -1.266372
      13A     -1.236631    14A     -1.059980    15A     -0.970714
      16A     -0.871952    17A     -0.849781    18A     -0.793425
      19A     -0.773230    20A     -0.679092    21A     -0.679072
      22A     -0.656665    23A     -0.627776    24A     -0.621954
      25A     -0.595811    26A     -0.591130    27A     -0.554382
      28A     -0.546190    29A     -0.493585    30A     -0.474902
      31A     -0.446409    32A     -0.400022    33A     -0.355885

  @DF-RHF Final Energy:  -451.61040944164716

   => Energetics <=

    Nuclear Repulsion Energy =            433.1783714913543690
    One-Electron Energy =               -1474.7599809839655336
    Two-Electron Energy =                 589.9712000509641712
    Total Energy =                       -451.6104094416471071
  Basis Set: (AUG-CC-PVTZ AUX)
    Blend: AUG-CC-PVTZ-RI
    Molecular point group: c1

    Geometry (in Angstrom), charge = 0, multiplicity = 1:

       Center              X                  Y                   Z               Mass
    ------------   -----------------  -----------------  -----------------  -----------------
         O            1.407685126012     0.992113536275    -0.000003891482    15.994914619570
         O           -1.315195873988     1.574401536275     0.000005108518    15.994914619570
         N           -1.774406873988    -0.690276463725    -0.000009891482    14.003074004430
         N            0.983008126012    -1.211224463725     0.000003108518    14.003074004430
         C            0.486531726012    -0.014994663725    -0.000000791482    12.000000000000
         C           -0.958071873988     0.394341536275    -0.000000891482    12.000000000000
         C           -3.218085873988    -0.564584463725     0.000003108518    12.000000000000
         C            2.604753126012     0.332217536275    -0.000000891482    12.000000000000
         C            2.350280126012    -1.009254463725     0.000004108518    12.000000000000
         H           -1.331997873988    -1.602676463725    -0.000002891482     1.007825032230
         H           -3.649875873988    -1.028313463725     0.891290108518     1.007825032230
         H           -3.649890873988    -1.028338463725    -0.891262891482     1.007825032230
         H           -3.449963873988     0.500272536275    -0.000009891482     1.007825032230
         H            3.492046126012     0.945761536275    -0.000002891482     1.007825032230
         H            3.050795126012    -1.832087463725     0.000008108518     1.007825032230

  Basis Set: AUG-CC-PVTZ
    Blend: AUG-CC-PVTZ
  Basis Set: (AUG-CC-PVTZ AUX)
    Blend: AUG-CC-PVTZ-JKFIT
	 Reference Energy          =    -451.6104094416471639 [Eh]
	 Singles Energy            =      -0.0000000000000000 [Eh]
	 Same-Spin Energy          =      -0.4617075416524942 [Eh]
	 Opposite-Spin Energy      =      -1.3912646317557993 [Eh]
	 Correlation Energy        =      -1.8529721734082933 [Eh]
	 Total Energy              =    -453.4633816150554821 [Eh]

	 ================> DF-SCS-MP2 Energies <==================
	-----------------------------------------------------------
	 SCS Same-Spin Scale       =       0.3333333333333333 [-]
	 SCS Opposite-Spin Scale   =       1.2000000000000000 [-]
	 SCS Same-Spin Energy      =      -0.1539025138841647 [Eh]
	 SCS Opposite-Spin Energy  =      -1.6695175581069590 [Eh]
	 SCS Correlation Energy    =      -1.8234200719911238 [Eh]
	 SCS Total Energy          =    -453.4338295136382726 [Eh]
	-----------------------------------------------------------

  Dipole Moment: [D]
     X:     1.1025      Y:    -2.7313      Z:     0.0000     Total:     2.9454

*** Psi4 exiting successfully. Buy a developer a beer!
