                               Psi4 1.3.2 release

  ==> Input File <==

--------------------------------------------------------------------------
#psi4
#
memory 32 gb

molecule  {
0 1
  O        1.4499930     1.0206980    -0.0000040
  O       -1.2728880     1.6029860     0.0000050
  N       -1.7320990    -0.6616920    -0.0000100
  N        1.0253160    -1.1826400     0.0000030
  C        0.5211730     0.0320620    -0.0000010
  C       -0.9157640     0.4229260    -0.0000010
  C       -3.1757780    -0.5360000     0.0000030
  C        2.6470610     0.3608020    -0.0000010
  C        2.3553134    -1.1771658     0.0000047
  H       -1.2896900    -1.5740920    -0.0000030
  H       -3.6075680    -0.9997290     0.8912900
  H       -3.6075830    -0.9997540    -0.8912630
  H       -3.4076560     0.5288570    -0.0000100
  H        3.5343540     0.9743460    -0.0000030
  H        3.0931030    -1.8035030     0.0000080
units angstrom
no_reorient  #important for SAPT in psi4, default
symmetry c1  #important for SAPT in psi4, default
}

set PROPERTIES_ORIGIN ["COM"]
properties('MP2/aug-cc-pvtz', properties = ['dipole'])
--------------------------------------------------------------------------

    Molecular point group: c1
  Charge       = 0
  Multiplicity = 1
  Basis Set: AUG-CC-PVTZ
    Blend: AUG-CC-PVTZ
  Basis Set: (AUG-CC-PVTZ AUX)
    Blend: AUG-CC-PVTZ-JKFIT

    Orbital Energies [Eh]
    ---------------------

    Doubly Occupied:

       1A    -20.676497     2A    -20.528471     3A    -15.599837
       4A    -15.592926     5A    -11.371644     6A    -11.349982
       7A    -11.342152     8A    -11.299044     9A    -11.263273
      10A     -1.505733    11A     -1.381278    12A     -1.268781
      13A     -1.234719    14A     -1.047312    15A     -0.962959
      16A     -0.882191    17A     -0.855658    18A     -0.789932
      19A     -0.772835    20A     -0.699821    21A     -0.678686
      22A     -0.678439    23A     -0.640198    24A     -0.624879
      25A     -0.595653    26A     -0.578066    27A     -0.551010
      28A     -0.543545    29A     -0.483428    30A     -0.468808
      31A     -0.443608    32A     -0.397118    33A     -0.322900

  @DF-RHF Final Energy:  -451.55403320634491

   => Energetics <=

    Nuclear Repulsion Energy =            431.0200369945250713
    One-Electron Energy =               -1470.2853752400330904
    Two-Electron Energy =                 587.7113050391631077
    Total Energy =                       -451.5540332063449114
  Basis Set: (AUG-CC-PVTZ AUX)
    Blend: AUG-CC-PVTZ-RI
    Molecular point group: c1

    Geometry (in Angstrom), charge = 0, multiplicity = 1:

       Center              X                  Y                   Z               Mass
    ------------   -----------------  -----------------  -----------------  -----------------
         O            1.411963782585     1.009062390474    -0.000003948605    15.994914619570
         O           -1.310917217415     1.591350390474     0.000005051395    15.994914619570
         N           -1.770128217415    -0.673327609526    -0.000009948605    14.003074004430
         N            0.987286782585    -1.194275609526     0.000003051395    14.003074004430
         C            0.483143782585     0.020426390474    -0.000000948605    12.000000000000
         C           -0.953793217415     0.411290390474    -0.000000948605    12.000000000000
         C           -3.213807217415    -0.547635609526     0.000003051395    12.000000000000
         C            2.609031782585     0.349166390474    -0.000000948605    12.000000000000
         C            2.317284182585    -1.188801409526     0.000004751395    12.000000000000
         H           -1.327719217415    -1.585727609526    -0.000002948605     1.007825032230
         H           -3.645597217415    -1.011364609526     0.891290051395     1.007825032230
         H           -3.645612217415    -1.011389609526    -0.891262948605     1.007825032230
         H           -3.445685217415     0.517221390474    -0.000009948605     1.007825032230
         H            3.496324782585     0.962710390474    -0.000002948605     1.007825032230
         H            3.055073782585    -1.815138609526     0.000008051395     1.007825032230

  Basis Set: AUG-CC-PVTZ
    Blend: AUG-CC-PVTZ
  Basis Set: (AUG-CC-PVTZ AUX)
    Blend: AUG-CC-PVTZ-JKFIT
	 Reference Energy          =    -451.5540332063449114 [Eh]
	 Singles Energy            =      -0.0000000000000000 [Eh]
	 Same-Spin Energy          =      -0.4672107000358214 [Eh]
	 Opposite-Spin Energy      =      -1.3998070361796722 [Eh]
	 Correlation Energy        =      -1.8670177362154936 [Eh]
	 Total Energy              =    -453.4210509425603846 [Eh]

	 ================> DF-SCS-MP2 Energies <==================
	-----------------------------------------------------------
	 SCS Same-Spin Scale       =       0.3333333333333333 [-]
	 SCS Opposite-Spin Scale   =       1.2000000000000000 [-]
	 SCS Same-Spin Energy      =      -0.1557369000119405 [Eh]
	 SCS Opposite-Spin Energy  =      -1.6797684434156066 [Eh]
	 SCS Correlation Energy    =      -1.8355053434275470 [Eh]
	 SCS Total Energy          =    -453.3895385497724533 [Eh]
	-----------------------------------------------------------

  Dipole Moment: [D]
     X:     1.2775      Y:    -2.9157      Z:     0.0000     Total:     3.1833

*** Psi4 exiting successfully. Buy a developer a beer!
