                               Psi4 1.3.2 release

  ==> Input File <==

--------------------------------------------------------------------------
#psi4
#
memory 32 gb

molecule  {
0 1
  O        1.4499930     1.0206980    -0.0000040
  O       -1.3942815     1.5591919     0.0000046
  N       -1.7320990    -0.6616920    -0.0000100
  N        1.0253160    -1.1826400     0.0000030
  C        0.5211730     0.0320620    -0.0000010
  C       -0.9157640     0.4229260    -0.0000010
  C       -3.1757780    -0.5360000     0.0000030
  C        2.6470610     0.3608020    -0.0000010
  C        2.3925880    -0.9806700     0.0000040
  H       -1.2896900    -1.5740920    -0.0000030
  H       -3.6075680    -0.9997290     0.8912900
  H       -3.6075830    -0.9997540    -0.8912630
  H       -3.4076560     0.5288570    -0.0000100
  H        3.5343540     0.9743460    -0.0000030
  H        3.0931030    -1.8035030     0.0000080
units angstrom
no_reorient  #important for SAPT in psi4, default
symmetry c1  #important for SAPT in psi4, default
}

set PROPERTIES_ORIGIN ["COM"]
properties('MP2/aug-cc-pvtz', properties = ['dipole'])
--------------------------------------------------------------------------

    Molecular point group: c1
  Charge       = 0
  Multiplicity = 1
  Basis Set: AUG-CC-PVTZ
    Blend: AUG-CC-PVTZ
  Basis Set: (AUG-CC-PVTZ AUX)
    Blend: AUG-CC-PVTZ-JKFIT

    Orbital Energies [Eh]
    ---------------------

    Doubly Occupied:

       1A    -20.663349     2A    -20.530492     3A    -15.600658
       4A    -15.591090     5A    -11.374054     6A    -11.363175
       7A    -11.319703     8A    -11.285080     9A    -11.260626
      10A     -1.507505    11A     -1.386332    12A     -1.262365
      13A     -1.229271    14A     -1.065545    15A     -0.968842
      16A     -0.876708    17A     -0.852021    18A     -0.793532
      19A     -0.773077    20A     -0.683331    21A     -0.682218
      22A     -0.656130    23A     -0.624945    24A     -0.621927
      25A     -0.597866    26A     -0.595233    27A     -0.547715
      28A     -0.544300    29A     -0.494031    30A     -0.474842
      31A     -0.446569    32A     -0.395149    33A     -0.357878

  @DF-RHF Final Energy:  -451.60629340985076

   => Energetics <=

    Nuclear Repulsion Energy =            432.9387912353818706
    One-Electron Energy =               -1474.2390459849877971
    Two-Electron Energy =                 589.6939613397552193
    Total Energy =                       -451.6062934098507640
  Basis Set: (AUG-CC-PVTZ AUX)
    Blend: AUG-CC-PVTZ-RI
    Molecular point group: c1

    Geometry (in Angstrom), charge = 0, multiplicity = 1:

       Center              X                  Y                   Z               Mass
    ------------   -----------------  -----------------  -----------------  -----------------
         O            1.423819929520     0.995912372910    -0.000003831201    15.994914619570
         O           -1.420454570480     1.534406272910     0.000004768799    15.994914619570
         N           -1.758272070480    -0.686477627090    -0.000009831201    14.003074004430
         N            0.999142929520    -1.207425627090     0.000003168799    14.003074004430
         C            0.494999929520     0.007276372910    -0.000000831201    12.000000000000
         C           -0.941937070480     0.398140372910    -0.000000831201    12.000000000000
         C           -3.201951070480    -0.560785627090     0.000003168799    12.000000000000
         C            2.620887929520     0.336016372910    -0.000000831201    12.000000000000
         C            2.366414929520    -1.005455627090     0.000004168799    12.000000000000
         H           -1.315863070480    -1.598877627090    -0.000002831201     1.007825032230
         H           -3.633741070480    -1.024514627090     0.891290168799     1.007825032230
         H           -3.633756070480    -1.024539627090    -0.891262831201     1.007825032230
         H           -3.433829070480     0.504071372910    -0.000009831201     1.007825032230
         H            3.508180929520     0.949560372910    -0.000002831201     1.007825032230
         H            3.066929929520    -1.828288627090     0.000008168799     1.007825032230

  Basis Set: AUG-CC-PVTZ
    Blend: AUG-CC-PVTZ
  Basis Set: (AUG-CC-PVTZ AUX)
    Blend: AUG-CC-PVTZ-JKFIT
	 Reference Energy          =    -451.6062934098507640 [Eh]
	 Singles Energy            =      -0.0000000000000000 [Eh]
	 Same-Spin Energy          =      -0.4626008836821414 [Eh]
	 Opposite-Spin Energy      =      -1.3923979834761386 [Eh]
	 Correlation Energy        =      -1.8549988671582800 [Eh]
	 Total Energy              =    -453.4612922770090222 [Eh]

	 ================> DF-SCS-MP2 Energies <==================
	-----------------------------------------------------------
	 SCS Same-Spin Scale       =       0.3333333333333333 [-]
	 SCS Opposite-Spin Scale   =       1.2000000000000000 [-]
	 SCS Same-Spin Energy      =      -0.1542002945607138 [Eh]
	 SCS Opposite-Spin Energy  =      -1.6708775801713662 [Eh]
	 SCS Correlation Energy    =      -1.8250778747320799 [Eh]
	 SCS Total Energy          =    -453.4313712845828377 [Eh]
	-----------------------------------------------------------

  Dipole Moment: [D]
     X:     1.5699      Y:    -2.6194      Z:     0.0000     Total:     3.0539

*** Psi4 exiting successfully. Buy a developer a beer!
