                               Psi4 1.3.2 release

  ==> Input File <==

--------------------------------------------------------------------------
#psi4
#
memory 32 gb

molecule  {
0 1
  O        1.4499930     1.0206980    -0.0000040
  O       -1.2728880     1.6029860     0.0000050
  N       -1.7320990    -0.6616920    -0.0000100
  N        1.0253160    -1.1826400     0.0000030
  C        0.5211730     0.0320620    -0.0000010
  C       -0.9157640     0.4229260    -0.0000010
  C       -3.1757780    -0.5360000     0.0000030
  C        2.6470610     0.3608020    -0.0000010
  C        2.4867842    -0.9951534     0.0000041
  H       -1.2896900    -1.5740920    -0.0000030
  H       -3.6075680    -0.9997290     0.8912900
  H       -3.6075830    -0.9997540    -0.8912630
  H       -3.4076560     0.5288570    -0.0000100
  H        3.5343540     0.9743460    -0.0000030
  H        3.0931030    -1.8035030     0.0000080
units angstrom
no_reorient  #important for SAPT in psi4, default
symmetry c1  #important for SAPT in psi4, default
}

set PROPERTIES_ORIGIN ["COM"]
properties('MP2/aug-cc-pvtz', properties = ['dipole'])
--------------------------------------------------------------------------

    Molecular point group: c1
  Charge       = 0
  Multiplicity = 1
  Basis Set: AUG-CC-PVTZ
    Blend: AUG-CC-PVTZ
  Basis Set: (AUG-CC-PVTZ AUX)
    Blend: AUG-CC-PVTZ-JKFIT

    Orbital Energies [Eh]
    ---------------------

    Doubly Occupied:

       1A    -20.657649     2A    -20.534254     3A    -15.597988
       4A    -15.596987     5A    -11.375464     6A    -11.357324
       7A    -11.322390     8A    -11.283642     9A    -11.265703
      10A     -1.500082    11A     -1.385861    12A     -1.251074
      13A     -1.221125    14A     -1.063155    15A     -0.971565
      16A     -0.879509    17A     -0.848020    18A     -0.789803
      19A     -0.773796    20A     -0.679668    21A     -0.677229
      22A     -0.657827    23A     -0.630968    24A     -0.627698
      25A     -0.601018    26A     -0.588284    27A     -0.554036
      28A     -0.546911    29A     -0.481894    30A     -0.458211
      31A     -0.446521    32A     -0.399665    33A     -0.362687

  @DF-RHF Final Energy:  -451.59908820440501

   => Energetics <=

    Nuclear Repulsion Energy =            431.2667496163894612
    One-Electron Energy =               -1470.9556578331223591
    Two-Electron Energy =                 588.0898200123278912
    Total Energy =                       -451.5990882044050068
  Basis Set: (AUG-CC-PVTZ AUX)
    Blend: AUG-CC-PVTZ-RI
    Molecular point group: c1

    Geometry (in Angstrom), charge = 0, multiplicity = 1:

       Center              X                  Y                   Z               Mass
    ------------   -----------------  -----------------  -----------------  -----------------
         O            1.399447018400     0.991733779941    -0.000003891482    15.994914619570
         O           -1.323433981600     1.574021779941     0.000005108518    15.994914619570
         N           -1.782644981600    -0.690656220059    -0.000009891482    14.003074004430
         N            0.974770018400    -1.211604220059     0.000003108518    14.003074004430
         C            0.470627018400     0.003097779941    -0.000000891482    12.000000000000
         C           -0.966309981600     0.393961779941    -0.000000891482    12.000000000000
         C           -3.226323981600    -0.564964220059     0.000003108518    12.000000000000
         C            2.596515018400     0.331837779941    -0.000000891482    12.000000000000
         C            2.436238218400    -1.024117620059     0.000004208518    12.000000000000
         H           -1.340235981600    -1.603056220059    -0.000002891482     1.007825032230
         H           -3.658113981600    -1.028693220059     0.891290108518     1.007825032230
         H           -3.658128981600    -1.028718220059    -0.891262891482     1.007825032230
         H           -3.458201981600     0.499892779941    -0.000009891482     1.007825032230
         H            3.483808018400     0.945381779941    -0.000002891482     1.007825032230
         H            3.042557018400    -1.832467220059     0.000008108518     1.007825032230

  Basis Set: AUG-CC-PVTZ
    Blend: AUG-CC-PVTZ
  Basis Set: (AUG-CC-PVTZ AUX)
    Blend: AUG-CC-PVTZ-JKFIT
	 Reference Energy          =    -451.5990882044050068 [Eh]
	 Singles Energy            =      -0.0000000000000000 [Eh]
	 Same-Spin Energy          =      -0.4612129912953567 [Eh]
	 Opposite-Spin Energy      =      -1.3928322729507885 [Eh]
	 Correlation Energy        =      -1.8540452642461451 [Eh]
	 Total Energy              =    -453.4531334686511741 [Eh]

	 ================> DF-SCS-MP2 Energies <==================
	-----------------------------------------------------------
	 SCS Same-Spin Scale       =       0.3333333333333333 [-]
	 SCS Opposite-Spin Scale   =       1.2000000000000000 [-]
	 SCS Same-Spin Energy      =      -0.1537376637651189 [Eh]
	 SCS Opposite-Spin Energy  =      -1.6713987275409461 [Eh]
	 SCS Correlation Energy    =      -1.8251363913060650 [Eh]
	 SCS Total Energy          =    -453.4242245957110526 [Eh]
	-----------------------------------------------------------

  Dipole Moment: [D]
     X:     1.1318      Y:    -2.7097      Z:     0.0000     Total:     2.9366

*** Psi4 exiting successfully. Buy a developer a beer!
