                               Psi4 1.3.2 release

  ==> Input File <==

--------------------------------------------------------------------------
#psi4
#
memory 32 gb

molecule  {
0 1
  O        1.4499930     1.0206980    -0.0000040
  O       -1.2728880     1.6029860     0.0000050
  N       -1.7320990    -0.6616920    -0.0000100
  N        1.0253160    -1.1826400     0.0000030
  C        0.5211730     0.0320620    -0.0000010
  C       -0.9157640     0.4229260    -0.0000010
  C       -3.1757780    -0.5360000     0.0000030
  C        2.6470610     0.3608020    -0.0000010
  C        2.3925880    -0.9806700     0.0000040
  H       -1.2896900    -1.5740920    -0.0000030
  H       -3.6075680    -0.9997290     0.8912900
  H       -3.6075830    -0.9997540    -0.8912630
  H       -3.4076560     0.5288570    -0.0000100
  H        3.3698517     0.8605962    -0.0000026
  H        3.0931030    -1.8035030     0.0000080
units angstrom
no_reorient  #important for SAPT in psi4, default
symmetry c1  #important for SAPT in psi4, default
}

set PROPERTIES_ORIGIN ["COM"]
properties('MP2/aug-cc-pvtz', properties = ['dipole'])
--------------------------------------------------------------------------

    Molecular point group: c1
  Charge       = 0
  Multiplicity = 1
  Basis Set: AUG-CC-PVTZ
    Blend: AUG-CC-PVTZ
  Basis Set: (AUG-CC-PVTZ AUX)
    Blend: AUG-CC-PVTZ-JKFIT

    Orbital Energies [Eh]
    ---------------------

    Doubly Occupied:

       1A    -20.658356     2A    -20.533553     3A    -15.597416
       4A    -15.595733     5A    -11.374943     6A    -11.357668
       7A    -11.294540     8A    -11.282013     9A    -11.265991
      10A     -1.503119    11A     -1.385446    12A     -1.261255
      13A     -1.234840    14A     -1.070406    15A     -0.976485
      16A     -0.876855    17A     -0.871103    18A     -0.793746
      19A     -0.782102    20A     -0.706245    21A     -0.679695
      22A     -0.659155    23A     -0.628306    24A     -0.627968
      25A     -0.599753    26A     -0.592675    27A     -0.554483
      28A     -0.546602    29A     -0.491495    30A     -0.471340
      31A     -0.447596    32A     -0.400075    33A     -0.355416

  @DF-RHF Final Energy:  -451.57265408442510

   => Energetics <=

    Nuclear Repulsion Energy =            434.3446798753741405
    One-Electron Energy =               -1476.8819146274465766
    Two-Electron Energy =                 590.9645806676472830
    Total Energy =                       -451.5726540844251531
  Basis Set: (AUG-CC-PVTZ AUX)
    Blend: AUG-CC-PVTZ-RI
    Molecular point group: c1

    Geometry (in Angstrom), charge = 0, multiplicity = 1:

       Center              X                  Y                   Z               Mass
    ------------   -----------------  -----------------  -----------------  -----------------
         O            1.409730371557     0.991264408868    -0.000003885160    15.994914619570
         O           -1.313150628443     1.573552408868     0.000005114840    15.994914619570
         N           -1.772361628443    -0.691125591132    -0.000009885160    14.003074004430
         N            0.985053371557    -1.212073591132     0.000003114840    14.003074004430
         C            0.480910371557     0.002628408868    -0.000000885160    12.000000000000
         C           -0.956026628443     0.393492408868    -0.000000885160    12.000000000000
         C           -3.216040628443    -0.565433591132     0.000003114840    12.000000000000
         C            2.606798371557     0.331368408868    -0.000000885160    12.000000000000
         C            2.352325371557    -1.010103591132     0.000004114840    12.000000000000
         H           -1.329952628443    -1.603525591132    -0.000002885160     1.007825032230
         H           -3.647830628443    -1.029162591132     0.891290114840     1.007825032230
         H           -3.647845628443    -1.029187591132    -0.891262885160     1.007825032230
         H           -3.447918628443     0.499423408868    -0.000009885160     1.007825032230
         H            3.329589071557     0.831162608868    -0.000002485160     1.007825032230
         H            3.052840371557    -1.832936591132     0.000008114840     1.007825032230

  Basis Set: AUG-CC-PVTZ
    Blend: AUG-CC-PVTZ
  Basis Set: (AUG-CC-PVTZ AUX)
    Blend: AUG-CC-PVTZ-JKFIT
	 Reference Energy          =    -451.5726540844250962 [Eh]
	 Singles Energy            =      -0.0000000000000000 [Eh]
	 Same-Spin Energy          =      -0.4619515873934662 [Eh]
	 Opposite-Spin Energy      =      -1.3914625592236491 [Eh]
	 Correlation Energy        =      -1.8534141466171152 [Eh]
	 Total Energy              =    -453.4260682310422226 [Eh]

	 ================> DF-SCS-MP2 Energies <==================
	-----------------------------------------------------------
	 SCS Same-Spin Scale       =       0.3333333333333333 [-]
	 SCS Opposite-Spin Scale   =       1.2000000000000000 [-]
	 SCS Same-Spin Energy      =      -0.1539838624644887 [Eh]
	 SCS Opposite-Spin Energy  =      -1.6697550710683788 [Eh]
	 SCS Correlation Energy    =      -1.8237389335328675 [Eh]
	 SCS Total Energy          =    -453.3963930179579620 [Eh]
	-----------------------------------------------------------

  Dipole Moment: [D]
     X:     1.0907      Y:    -2.7486      Z:     0.0000     Total:     2.9571

*** Psi4 exiting successfully. Buy a developer a beer!
