                               Psi4 1.3.2 release

  ==> Input File <==

--------------------------------------------------------------------------
#psi4
#
memory 32 gb

molecule  {
0 1
  O        1.4276922     0.9785189    -0.0000038
  O       -1.2728880     1.6029860     0.0000050
  N       -1.7320990    -0.6616920    -0.0000100
  N        1.0253160    -1.1826400     0.0000030
  C        0.5211730     0.0320620    -0.0000010
  C       -0.9157640     0.4229260    -0.0000010
  C       -3.1757780    -0.5360000     0.0000030
  C        2.6470610     0.3608020    -0.0000010
  C        2.3925880    -0.9806700     0.0000040
  H       -1.2896900    -1.5740920    -0.0000030
  H       -3.6075680    -0.9997290     0.8912900
  H       -3.6075830    -0.9997540    -0.8912630
  H       -3.4076560     0.5288570    -0.0000100
  H        3.5343540     0.9743460    -0.0000030
  H        3.0931030    -1.8035030     0.0000080
units angstrom
no_reorient  #important for SAPT in psi4, default
symmetry c1  #important for SAPT in psi4, default
}

set PROPERTIES_ORIGIN ["COM"]
properties('MP2/aug-cc-pvtz', properties = ['dipole'])
--------------------------------------------------------------------------

    Molecular point group: c1
  Charge       = 0
  Multiplicity = 1
  Basis Set: AUG-CC-PVTZ
    Blend: AUG-CC-PVTZ
  Basis Set: (AUG-CC-PVTZ AUX)
    Blend: AUG-CC-PVTZ-JKFIT

    Orbital Energies [Eh]
    ---------------------

    Doubly Occupied:

       1A    -20.659575     2A    -20.533607     3A    -15.597083
       4A    -15.589188     5A    -11.374399     6A    -11.353729
       7A    -11.314598     8A    -11.281774     9A    -11.265719
      10A     -1.521258    11A     -1.385492    12A     -1.258100
      13A     -1.233014    14A     -1.067496    15A     -0.971908
      16A     -0.875514    17A     -0.851418    18A     -0.794796
      19A     -0.776937    20A     -0.689358    21A     -0.685681
      22A     -0.656598    23A     -0.628127    24A     -0.622641
      25A     -0.600650    26A     -0.586641    27A     -0.554070
      28A     -0.546193    29A     -0.486368    30A     -0.467623
      31A     -0.447493    32A     -0.399851    33A     -0.356138

  @DF-RHF Final Energy:  -451.61135438668447

   => Energetics <=

    Nuclear Repulsion Energy =            434.5563437046072295
    One-Electron Energy =               -1477.4693222064863676
    Two-Electron Energy =                 591.3016241151946133
    Total Energy =                       -451.6113543866844111
  Basis Set: (AUG-CC-PVTZ AUX)
    Blend: AUG-CC-PVTZ-RI
    Molecular point group: c1

    Geometry (in Angstrom), charge = 0, multiplicity = 1:

       Center              X                  Y                   Z               Mass
    ------------   -----------------  -----------------  -----------------  -----------------
         O            1.388944213116     0.953528328550    -0.000003707342    15.994914619570
         O           -1.311635986884     1.577995428550     0.000005092658    15.994914619570
         N           -1.770846986884    -0.686682571450    -0.000009907342    14.003074004430
         N            0.986568013116    -1.207630571450     0.000003092658    14.003074004430
         C            0.482425013116     0.007071428550    -0.000000907342    12.000000000000
         C           -0.954511986884     0.397935428550    -0.000000907342    12.000000000000
         C           -3.214525986884    -0.560990571450     0.000003092658    12.000000000000
         C            2.608313013116     0.335811428550    -0.000000907342    12.000000000000
         C            2.353840013116    -1.005660571450     0.000004092658    12.000000000000
         H           -1.328437986884    -1.599082571450    -0.000002907342     1.007825032230
         H           -3.646315986884    -1.024719571450     0.891290092658     1.007825032230
         H           -3.646330986884    -1.024744571450    -0.891262907342     1.007825032230
         H           -3.446403986884     0.503866428550    -0.000009907342     1.007825032230
         H            3.495606013116     0.949355428550    -0.000002907342     1.007825032230
         H            3.054355013116    -1.828493571450     0.000008092658     1.007825032230

  Basis Set: AUG-CC-PVTZ
    Blend: AUG-CC-PVTZ
  Basis Set: (AUG-CC-PVTZ AUX)
    Blend: AUG-CC-PVTZ-JKFIT
	 Reference Energy          =    -451.6113543866844680 [Eh]
	 Singles Energy            =      -0.0000000000000000 [Eh]
	 Same-Spin Energy          =      -0.4616697698059571 [Eh]
	 Opposite-Spin Energy      =      -1.3899680912970620 [Eh]
	 Correlation Energy        =      -1.8516378611030191 [Eh]
	 Total Energy              =    -453.4629922477874970 [Eh]

	 ================> DF-SCS-MP2 Energies <==================
	-----------------------------------------------------------
	 SCS Same-Spin Scale       =       0.3333333333333333 [-]
	 SCS Opposite-Spin Scale   =       1.2000000000000000 [-]
	 SCS Same-Spin Energy      =      -0.1538899232686524 [Eh]
	 SCS Opposite-Spin Energy  =      -1.6679617095564743 [Eh]
	 SCS Correlation Energy    =      -1.8218516328251266 [Eh]
	 SCS Total Energy          =    -453.4332060195096119 [Eh]
	-----------------------------------------------------------

  Dipole Moment: [D]
     X:     1.2013      Y:    -2.5691      Z:     0.0000     Total:     2.8361

*** Psi4 exiting successfully. Buy a developer a beer!
