                               Psi4 1.3.2 release

  ==> Input File <==

--------------------------------------------------------------------------
#psi4
#
memory 32 gb

molecule  {
0 1
  O        1.4499930     1.0206980    -0.0000040
  O       -1.2728880     1.6029860     0.0000050
  N       -1.7320990    -0.6616920    -0.0000100
  N        1.0040397    -1.1912535     0.0000031
  C        0.5211730     0.0320620    -0.0000010
  C       -0.9157640     0.4229260    -0.0000010
  C       -3.1757780    -0.5360000     0.0000030
  C        2.6470610     0.3608020    -0.0000010
  C        2.3925880    -0.9806700     0.0000040
  H       -1.2896900    -1.5740920    -0.0000030
  H       -3.6075680    -0.9997290     0.8912900
  H       -3.6075830    -0.9997540    -0.8912630
  H       -3.4076560     0.5288570    -0.0000100
  H        3.5343540     0.9743460    -0.0000030
  H        3.0931030    -1.8035030     0.0000080
units angstrom
no_reorient  #important for SAPT in psi4, default
symmetry c1  #important for SAPT in psi4, default
}

set PROPERTIES_ORIGIN ["COM"]
properties('MP2/aug-cc-pvtz', properties = ['dipole'])
--------------------------------------------------------------------------

    Molecular point group: c1
  Charge       = 0
  Multiplicity = 1
  Basis Set: AUG-CC-PVTZ
    Blend: AUG-CC-PVTZ
  Basis Set: (AUG-CC-PVTZ AUX)
    Blend: AUG-CC-PVTZ-JKFIT

    Orbital Energies [Eh]
    ---------------------

    Doubly Occupied:

       1A    -20.659163     2A    -20.533250     3A    -15.598744
       4A    -15.596827     5A    -11.374257     6A    -11.358619
       7A    -11.317039     8A    -11.283791     9A    -11.265660
      10A     -1.503179    11A     -1.385134    12A     -1.259264
      13A     -1.232607    14A     -1.061274    15A     -0.970887
      16A     -0.874705    17A     -0.848162    18A     -0.791959
      19A     -0.773515    20A     -0.679865    21A     -0.679816
      22A     -0.656170    23A     -0.627668    24A     -0.619082
      25A     -0.596929    26A     -0.590825    27A     -0.554244
      28A     -0.546408    29A     -0.494036    30A     -0.469303
      31A     -0.446945    32A     -0.399577    33A     -0.356730

  @DF-RHF Final Energy:  -451.60890670274381

   => Energetics <=

    Nuclear Repulsion Energy =            432.8617676284122240
    One-Electron Energy =               -1474.1300794422052149
    Two-Electron Energy =                 589.6594051110490682
    Total Energy =                       -451.6089067027438659
  Basis Set: (AUG-CC-PVTZ AUX)
    Blend: AUG-CC-PVTZ-RI
    Molecular point group: c1

    Geometry (in Angstrom), charge = 0, multiplicity = 1:

       Center              X                  Y                   Z               Mass
    ------------   -----------------  -----------------  -----------------  -----------------
         O            1.410778776813     0.991311817970    -0.000003893071    15.994914619570
         O           -1.312102223187     1.573599817970     0.000005106929    15.994914619570
         N           -1.771313223187    -0.691078182030    -0.000009893071    14.003074004430
         N            0.964825476813    -1.220639682030     0.000003206929    14.003074004430
         C            0.481958776813     0.002675817970    -0.000000893071    12.000000000000
         C           -0.954978223187     0.393539817970    -0.000000893071    12.000000000000
         C           -3.214992223187    -0.565386182030     0.000003106929    12.000000000000
         C            2.607846776813     0.331415817970    -0.000000893071    12.000000000000
         C            2.353373776813    -1.010056182030     0.000004106929    12.000000000000
         H           -1.328904223187    -1.603478182030    -0.000002893071     1.007825032230
         H           -3.646782223187    -1.029115182030     0.891290106929     1.007825032230
         H           -3.646797223187    -1.029140182030    -0.891262893071     1.007825032230
         H           -3.446870223187     0.499470817970    -0.000009893071     1.007825032230
         H            3.495139776813     0.944959817970    -0.000002893071     1.007825032230
         H            3.053888776813    -1.832889182030     0.000008106929     1.007825032230

  Basis Set: AUG-CC-PVTZ
    Blend: AUG-CC-PVTZ
  Basis Set: (AUG-CC-PVTZ AUX)
    Blend: AUG-CC-PVTZ-JKFIT
	 Reference Energy          =    -451.6089067027438091 [Eh]
	 Singles Energy            =      -0.0000000000000000 [Eh]
	 Same-Spin Energy          =      -0.4619487342751317 [Eh]
	 Opposite-Spin Energy      =      -1.3922216270839729 [Eh]
	 Correlation Energy        =      -1.8541703613591047 [Eh]
	 Total Energy              =    -453.4630770641028903 [Eh]

	 ================> DF-SCS-MP2 Energies <==================
	-----------------------------------------------------------
	 SCS Same-Spin Scale       =       0.3333333333333333 [-]
	 SCS Opposite-Spin Scale   =       1.2000000000000000 [-]
	 SCS Same-Spin Energy      =      -0.1539829114250439 [Eh]
	 SCS Opposite-Spin Energy  =      -1.6706659525007674 [Eh]
	 SCS Correlation Energy    =      -1.8246488639258114 [Eh]
	 SCS Total Energy          =    -453.4335555666696109 [Eh]
	-----------------------------------------------------------

  Dipole Moment: [D]
     X:     1.1745      Y:    -2.6757      Z:     0.0000     Total:     2.9222

*** Psi4 exiting successfully. Buy a developer a beer!
