                               Psi4 1.3.2 release

  ==> Input File <==

--------------------------------------------------------------------------
#psi4
#
memory 32 gb

molecule  {
0 1
  O        1.3415642     1.1123703    -0.0000043
  O       -1.2728880     1.6029860     0.0000050
  N       -1.7320990    -0.6616920    -0.0000100
  N        1.0253160    -1.1826400     0.0000030
  C        0.5211730     0.0320620    -0.0000010
  C       -0.9157640     0.4229260    -0.0000010
  C       -3.1757780    -0.5360000     0.0000030
  C        2.6470610     0.3608020    -0.0000010
  C        2.3925880    -0.9806700     0.0000040
  H       -1.2896900    -1.5740920    -0.0000030
  H       -3.6075680    -0.9997290     0.8912900
  H       -3.6075830    -0.9997540    -0.8912630
  H       -3.4076560     0.5288570    -0.0000100
  H        3.5343540     0.9743460    -0.0000030
  H        3.0931030    -1.8035030     0.0000080
units angstrom
no_reorient  #important for SAPT in psi4, default
symmetry c1  #important for SAPT in psi4, default
}

set PROPERTIES_ORIGIN ["COM"]
properties('MP2/aug-cc-pvtz', properties = ['dipole'])
--------------------------------------------------------------------------

    Molecular point group: c1
  Charge       = 0
  Multiplicity = 1
  Basis Set: AUG-CC-PVTZ
    Blend: AUG-CC-PVTZ
  Basis Set: (AUG-CC-PVTZ AUX)
    Blend: AUG-CC-PVTZ-JKFIT

    Orbital Energies [Eh]
    ---------------------

    Doubly Occupied:

       1A    -20.656017     2A    -20.532219     3A    -15.596188
       4A    -15.595478     5A    -11.370502     6A    -11.364167
       7A    -11.323138     8A    -11.295679     9A    -11.264836
      10A     -1.467205    11A     -1.381696    12A     -1.263517
      13A     -1.235253    14A     -1.054459    15A     -0.969550
      16A     -0.872065    17A     -0.842437    18A     -0.788357
      19A     -0.763569    20A     -0.663668    21A     -0.662528
      22A     -0.658254    23A     -0.623512    24A     -0.622557
      25A     -0.605394    26A     -0.581004    27A     -0.553035
      28A     -0.541923    29A     -0.491522    30A     -0.476515
      31A     -0.445162    32A     -0.398775    33A     -0.359989

  @DF-RHF Final Energy:  -451.58823720348420

   => Energetics <=

    Nuclear Repulsion Energy =            431.3680202181066079
    One-Electron Energy =               -1471.2721745760168233
    Two-Electron Energy =                 588.3159171544258470
    Total Energy =                       -451.5882372034842547
  Basis Set: (AUG-CC-PVTZ AUX)
    Blend: AUG-CC-PVTZ-RI
    Molecular point group: c1

    Geometry (in Angstrom), charge = 0, multiplicity = 1:

       Center              X                  Y                   Z               Mass
    ------------   -----------------  -----------------  -----------------  -----------------
         O            1.313745902185     1.070393914604    -0.000004143891    15.994914619570
         O           -1.300706297815     1.561009614604     0.000005156109    15.994914619570
         N           -1.759917297815    -0.703668385396    -0.000009843891    14.003074004430
         N            0.997497702185    -1.224616385396     0.000003156109    14.003074004430
         C            0.493354702185    -0.009914385396    -0.000000843891    12.000000000000
         C           -0.943582297815     0.380949614604    -0.000000843891    12.000000000000
         C           -3.203596297815    -0.577976385396     0.000003156109    12.000000000000
         C            2.619242702185     0.318825614604    -0.000000843891    12.000000000000
         C            2.364769702185    -1.022646385396     0.000004156109    12.000000000000
         H           -1.317508297815    -1.616068385396    -0.000002843891     1.007825032230
         H           -3.635386297815    -1.041705385396     0.891290156109     1.007825032230
         H           -3.635401297815    -1.041730385396    -0.891262843891     1.007825032230
         H           -3.435474297815     0.486880614604    -0.000009843891     1.007825032230
         H            3.506535702185     0.932369614604    -0.000002843891     1.007825032230
         H            3.065284702185    -1.845479385396     0.000008156109     1.007825032230

  Basis Set: AUG-CC-PVTZ
    Blend: AUG-CC-PVTZ
  Basis Set: (AUG-CC-PVTZ AUX)
    Blend: AUG-CC-PVTZ-JKFIT
	 Reference Energy          =    -451.5882372034841978 [Eh]
	 Singles Energy            =      -0.0000000000000000 [Eh]
	 Same-Spin Energy          =      -0.4628272040608682 [Eh]
	 Opposite-Spin Energy      =      -1.3971047463742303 [Eh]
	 Correlation Energy        =      -1.8599319504350986 [Eh]
	 Total Energy              =    -453.4481691539193093 [Eh]

	 ================> DF-SCS-MP2 Energies <==================
	-----------------------------------------------------------
	 SCS Same-Spin Scale       =       0.3333333333333333 [-]
	 SCS Opposite-Spin Scale   =       1.2000000000000000 [-]
	 SCS Same-Spin Energy      =      -0.1542757346869561 [Eh]
	 SCS Opposite-Spin Energy  =      -1.6765256956490764 [Eh]
	 SCS Correlation Energy    =      -1.8308014303360325 [Eh]
	 SCS Total Energy          =    -453.4190386338202075 [Eh]
	-----------------------------------------------------------

  Dipole Moment: [D]
     X:     1.3200      Y:    -2.9663      Z:     0.0000     Total:     3.2468

*** Psi4 exiting successfully. Buy a developer a beer!
