                               Psi4 1.3.2 release

  ==> Input File <==

--------------------------------------------------------------------------
#psi4
#
memory 32 gb

molecule  {
0 1
  O        1.4499930     1.0206980    -0.0000040
  O       -1.2728880     1.6029860     0.0000050
  N       -1.7320990    -0.6616920    -0.0000100
  N        1.0253160    -1.1826400     0.0000030
  C        0.5211730     0.0320620    -0.0000010
  C       -0.9157640     0.4229260    -0.0000010
  C       -3.1757780    -0.5360000     0.0000030
  C        2.6470610     0.3608020    -0.0000010
  C        2.3925880    -0.9806700     0.0000040
  H       -1.2896900    -1.5740920    -0.0000030
  H       -3.6075680    -0.9997290     0.8912900
  H       -3.6075830    -0.9997540    -0.8912630
  H       -3.4076560     0.5288570    -0.0000100
  H        3.6166051     1.0312209    -0.0000032
  H        3.0931030    -1.8035030     0.0000080
units angstrom
no_reorient  #important for SAPT in psi4, default
symmetry c1  #important for SAPT in psi4, default
}

set PROPERTIES_ORIGIN ["COM"]
properties('MP2/aug-cc-pvtz', properties = ['dipole'])
--------------------------------------------------------------------------

    Molecular point group: c1
  Charge       = 0
  Multiplicity = 1
  Basis Set: AUG-CC-PVTZ
    Blend: AUG-CC-PVTZ
  Basis Set: (AUG-CC-PVTZ AUX)
    Blend: AUG-CC-PVTZ-JKFIT

    Orbital Energies [Eh]
    ---------------------

    Doubly Occupied:

       1A    -20.659900     2A    -20.533406     3A    -15.597296
       4A    -15.596580     5A    -11.374937     6A    -11.357623
       7A    -11.326057     8A    -11.281912     9A    -11.265916
      10A     -1.504104    11A     -1.385337    12A     -1.261441
      13A     -1.234918    14A     -1.059392    15A     -0.969704
      16A     -0.874015    17A     -0.842723    18A     -0.793960
      19A     -0.771030    20A     -0.680422    21A     -0.671048
      22A     -0.654163    23A     -0.627960    24A     -0.615441
      25A     -0.596435    26A     -0.587671    27A     -0.554292
      28A     -0.546576    29A     -0.490692    30A     -0.471912
      31A     -0.447473    32A     -0.400016    33A     -0.354670

  @DF-RHF Final Energy:  -451.60193000568421

   => Energetics <=

    Nuclear Repulsion Energy =            432.6431576598370157
    One-Electron Energy =               -1473.7121289008837266
    Two-Electron Energy =                 589.4670412353625579
    Total Energy =                       -451.6019300056841530
  Basis Set: (AUG-CC-PVTZ AUX)
    Blend: AUG-CC-PVTZ-RI
    Molecular point group: c1

    Geometry (in Angstrom), charge = 0, multiplicity = 1:

       Center              X                  Y                   Z               Mass
    ------------   -----------------  -----------------  -----------------  -----------------
         O            1.407757359200     0.989900113010    -0.000003880362    15.994914619570
         O           -1.315123640800     1.572188113010     0.000005119638    15.994914619570
         N           -1.774334640800    -0.692489886990    -0.000009880362    14.003074004430
         N            0.983080359200    -1.213437886990     0.000003119638    14.003074004430
         C            0.478937359200     0.001264113010    -0.000000880362    12.000000000000
         C           -0.957999640800     0.392128113010    -0.000000880362    12.000000000000
         C           -3.218013640800    -0.566797886990     0.000003119638    12.000000000000
         C            2.604825359200     0.330004113010    -0.000000880362    12.000000000000
         C            2.350352359200    -1.011467886990     0.000004119638    12.000000000000
         H           -1.331925640800    -1.604889886990    -0.000002880362     1.007825032230
         H           -3.649803640800    -1.030526886990     0.891290119638     1.007825032230
         H           -3.649818640800    -1.030551886990    -0.891262880362     1.007825032230
         H           -3.449891640800     0.498059113010    -0.000009880362     1.007825032230
         H            3.574369459200     1.000423013010    -0.000003080362     1.007825032230
         H            3.050867359200    -1.834300886990     0.000008119638     1.007825032230

  Basis Set: AUG-CC-PVTZ
    Blend: AUG-CC-PVTZ
  Basis Set: (AUG-CC-PVTZ AUX)
    Blend: AUG-CC-PVTZ-JKFIT
	 Reference Energy          =    -451.6019300056842098 [Eh]
	 Singles Energy            =      -0.0000000000000000 [Eh]
	 Same-Spin Energy          =      -0.4624609377593067 [Eh]
	 Opposite-Spin Energy      =      -1.3928631125720488 [Eh]
	 Correlation Energy        =      -1.8553240503313555 [Eh]
	 Total Energy              =    -453.4572540560155858 [Eh]

	 ================> DF-SCS-MP2 Energies <==================
	-----------------------------------------------------------
	 SCS Same-Spin Scale       =       0.3333333333333333 [-]
	 SCS Opposite-Spin Scale   =       1.2000000000000000 [-]
	 SCS Same-Spin Energy      =      -0.1541536459197689 [Eh]
	 SCS Opposite-Spin Energy  =      -1.6714357350864584 [Eh]
	 SCS Correlation Energy    =      -1.8255893810062274 [Eh]
	 SCS Total Energy          =    -453.4275193866904488 [Eh]
	-----------------------------------------------------------

  Dipole Moment: [D]
     X:     1.1637      Y:    -2.6736      Z:     0.0000     Total:     2.9158

*** Psi4 exiting successfully. Buy a developer a beer!
