                               Psi4 1.3.2 release

  ==> Input File <==

--------------------------------------------------------------------------
#psi4
#
memory 32 gb

molecule  {
0 1
  O        1.4499930     1.0206980    -0.0000040
  O       -1.2728880     1.6029860     0.0000050
  N       -1.7320990    -0.6616920    -0.0000100
  N        1.0253160    -1.1826400     0.0000030
  C        0.5638726     0.0489164    -0.0000010
  C       -0.9157640     0.4229260    -0.0000010
  C       -3.1757780    -0.5360000     0.0000030
  C        2.6470610     0.3608020    -0.0000010
  C        2.3925880    -0.9806700     0.0000040
  H       -1.2896900    -1.5740920    -0.0000030
  H       -3.6075680    -0.9997290     0.8912900
  H       -3.6075830    -0.9997540    -0.8912630
  H       -3.4076560     0.5288570    -0.0000100
  H        3.5343540     0.9743460    -0.0000030
  H        3.0931030    -1.8035030     0.0000080
units angstrom
no_reorient  #important for SAPT in psi4, default
symmetry c1  #important for SAPT in psi4, default
}

set PROPERTIES_ORIGIN ["COM"]
properties('MP2/aug-cc-pvtz', properties = ['dipole'])
--------------------------------------------------------------------------

    Molecular point group: c1
  Charge       = 0
  Multiplicity = 1
  Basis Set: AUG-CC-PVTZ
    Blend: AUG-CC-PVTZ
  Basis Set: (AUG-CC-PVTZ AUX)
    Blend: AUG-CC-PVTZ-JKFIT

    Orbital Energies [Eh]
    ---------------------

    Doubly Occupied:

       1A    -20.665291     2A    -20.532596     3A    -15.597009
       4A    -15.591938     5A    -11.375381     6A    -11.357972
       7A    -11.313460     8A    -11.282644     9A    -11.265727
      10A     -1.522870    11A     -1.383981    12A     -1.262000
      13A     -1.235051    14A     -1.060304    15A     -0.968813
      16A     -0.872413    17A     -0.850157    18A     -0.796422
      19A     -0.776380    20A     -0.689791    21A     -0.678724
      22A     -0.654842    23A     -0.627974    24A     -0.621977
      25A     -0.601690    26A     -0.588717    27A     -0.553942
      28A     -0.545025    29A     -0.493123    30A     -0.472494
      31A     -0.444222    32A     -0.399317    33A     -0.355288

  @DF-RHF Final Energy:  -451.61015925713264

   => Energetics <=

    Nuclear Repulsion Energy =            433.3735196524291950
    One-Electron Energy =               -1475.0922864276969904
    Two-Electron Energy =                 590.1086075181351589
    Total Energy =                       -451.6101592571326364
  Basis Set: (AUG-CC-PVTZ AUX)
    Blend: AUG-CC-PVTZ-RI
    Molecular point group: c1

    Geometry (in Angstrom), charge = 0, multiplicity = 1:

       Center              X                  Y                   Z               Mass
    ------------   -----------------  -----------------  -----------------  -----------------
         O            1.404349786152     0.988750244033    -0.000003881961    15.994914619570
         O           -1.318531213848     1.571038244033     0.000005118039    15.994914619570
         N           -1.777742213848    -0.693639755967    -0.000009881961    14.003074004430
         N            0.979672786152    -1.214587755967     0.000003118039    14.003074004430
         C            0.518229386152     0.016968644033    -0.000000881961    12.000000000000
         C           -0.961407213848     0.390978244033    -0.000000881961    12.000000000000
         C           -3.221421213848    -0.567947755967     0.000003118039    12.000000000000
         C            2.601417786152     0.328854244033    -0.000000881961    12.000000000000
         C            2.346944786152    -1.012617755967     0.000004118039    12.000000000000
         H           -1.335333213848    -1.606039755967    -0.000002881961     1.007825032230
         H           -3.653211213848    -1.031676755967     0.891290118039     1.007825032230
         H           -3.653226213848    -1.031701755967    -0.891262881961     1.007825032230
         H           -3.453299213848     0.496909244033    -0.000009881961     1.007825032230
         H            3.488710786152     0.942398244033    -0.000002881961     1.007825032230
         H            3.047459786152    -1.835450755967     0.000008118039     1.007825032230

  Basis Set: AUG-CC-PVTZ
    Blend: AUG-CC-PVTZ
  Basis Set: (AUG-CC-PVTZ AUX)
    Blend: AUG-CC-PVTZ-JKFIT
	 Reference Energy          =    -451.6101592571326364 [Eh]
	 Singles Energy            =      -0.0000000000000000 [Eh]
	 Same-Spin Energy          =      -0.4613249113466534 [Eh]
	 Opposite-Spin Energy      =      -1.3902420741419028 [Eh]
	 Correlation Energy        =      -1.8515669854885561 [Eh]
	 Total Energy              =    -453.4617262426211823 [Eh]

	 ================> DF-SCS-MP2 Energies <==================
	-----------------------------------------------------------
	 SCS Same-Spin Scale       =       0.3333333333333333 [-]
	 SCS Opposite-Spin Scale   =       1.2000000000000000 [-]
	 SCS Same-Spin Energy      =      -0.1537749704488845 [Eh]
	 SCS Opposite-Spin Energy  =      -1.6682904889702834 [Eh]
	 SCS Correlation Energy    =      -1.8220654594191679 [Eh]
	 SCS Total Energy          =    -453.4322247165517865 [Eh]
	-----------------------------------------------------------

  Dipole Moment: [D]
     X:     1.1765      Y:    -2.6319      Z:     0.0000     Total:     2.8829

*** Psi4 exiting successfully. Buy a developer a beer!
