                               Psi4 1.4a3.dev225

  ==> Input File <==

--------------------------------------------------------------------------
#psi4
#
memory 32 gb

molecule  {
0 1
  O        1.4499930     1.0206980    -0.0000040
  O       -1.2728880     1.6029860     0.0000050
  N       -1.7320990    -0.6616920    -0.0000100
  N        1.0253160    -1.1826400     0.0000030
  C        0.5211730     0.0320620    -0.0000010
  C       -0.9157640     0.4229260    -0.0000010
  C       -3.1757780    -0.5360000     0.0000030
  C        2.6295460     0.3704573    -0.0000010
  C        2.3925880    -0.9806700     0.0000040
  H       -1.2896900    -1.5740920    -0.0000030
  H       -3.6075680    -0.9997290     0.8912900
  H       -3.6075830    -0.9997540    -0.8912630
  H       -3.4076560     0.5288570    -0.0000100
  H        3.5343540     0.9743460    -0.0000030
  H        3.0931030    -1.8035030     0.0000080
units angstrom
no_reorient  #important for SAPT in psi4, default
symmetry c1  #important for SAPT in psi4, default
}

set PROPERTIES_ORIGIN ["COM"]
properties('MP2/aug-cc-pvtz', properties = ['dipole'])
--------------------------------------------------------------------------

    Molecular point group: c1
  Charge       = 0
  Multiplicity = 1
  Basis Set: AUG-CC-PVTZ
    Blend: AUG-CC-PVTZ
  Basis Set: (AUG-CC-PVTZ AUX)
    Blend: AUG-CC-PVTZ-JKFIT

    Orbital Energies [Eh]
    ---------------------

    Doubly Occupied:

       1A    -20.662211     2A    -20.532905     3A    -15.597015
       4A    -15.596817     5A    -11.374520     6A    -11.356298
       7A    -11.317265     8A    -11.280931     9A    -11.265650
      10A     -1.511586    11A     -1.385123    12A     -1.262126
      13A     -1.234936    14A     -1.061075    15A     -0.970285
      16A     -0.874751    17A     -0.850039    18A     -0.794931
      19A     -0.775016    20A     -0.683987    21A     -0.681807
      22A     -0.656114    23A     -0.628072    24A     -0.621545
      25A     -0.597136    26A     -0.591382    27A     -0.554075
      28A     -0.546707    29A     -0.491075    30A     -0.472437
      31A     -0.447111    32A     -0.399724    33A     -0.352436

  @DF-RHF Final Energy:  -451.60963232788356

   => Energetics <=

    Nuclear Repulsion Energy =            433.4968033649567474
    One-Electron Energy =               -1475.3587009740995200
    Two-Electron Energy =                 590.2522652812591559
    Total Energy =                       -451.6096323278835598
  Basis Set: (AUG-CC-PVTZ AUX)
    Blend: AUG-CC-PVTZ-RI
    Molecular point group: c1

    Geometry (in Angstrom), charge = 0, multiplicity = 1:

       Center              X                  Y                   Z               Mass
    ------------   -----------------  -----------------  -----------------  -----------------
         O            1.410082556841     0.989435639094    -0.000003881961    15.994914619570
         O           -1.312798443159     1.571723639094     0.000005118039    15.994914619570
         N           -1.772009443159    -0.692954360906    -0.000009881961    14.003074004430
         N            0.985405556841    -1.213902360906     0.000003118039    14.003074004430
         C            0.481262556841     0.000799639094    -0.000000881961    12.000000000000
         C           -0.955674443159     0.391663639094    -0.000000881961    12.000000000000
         C           -3.215688443159    -0.567262360906     0.000003118039    12.000000000000
         C            2.589635556841     0.339194939094    -0.000000881961    12.000000000000
         C            2.352677556841    -1.011932360906     0.000004118039    12.000000000000
         H           -1.329600443159    -1.605354360906    -0.000002881961     1.007825032230
         H           -3.647478443159    -1.030991360906     0.891290118039     1.007825032230
         H           -3.647493443159    -1.031016360906    -0.891262881961     1.007825032230
         H           -3.447566443159     0.497594639094    -0.000009881961     1.007825032230
         H            3.494443556841     0.943083639094    -0.000002881961     1.007825032230
         H            3.053192556841    -1.834765360906     0.000008118039     1.007825032230

  Basis Set: AUG-CC-PVTZ
    Blend: AUG-CC-PVTZ
  Basis Set: (AUG-CC-PVTZ AUX)
    Blend: AUG-CC-PVTZ-JKFIT
	 Reference Energy          =    -451.6096323278835598 [Eh]
	 Singles Energy            =      -0.0000000000000000 [Eh]
	 Same-Spin Energy          =      -0.4623305264782296 [Eh]
	 Opposite-Spin Energy      =      -1.3916904732952582 [Eh]
	 Correlation Energy        =      -1.8540209997734878 [Eh]
	 Total Energy              =    -453.4636533276570276 [Eh]

	 ================> DF-SCS-MP2 Energies <==================
	-----------------------------------------------------------
	 SCS Same-Spin Scale       =       0.3333333333333333 [-]
	 SCS Opposite-Spin Scale   =       1.2000000000000000 [-]
	 SCS Same-Spin Energy      =      -0.1541101754927432 [Eh]
	 SCS Opposite-Spin Energy  =      -1.6700285679543099 [Eh]
	 SCS Correlation Energy    =      -1.8241387434470531 [Eh]
	 SCS Total Energy          =    -453.4337710713306251 [Eh]
	-----------------------------------------------------------

  Dipole Moment: [D]
     X:     1.1440      Y:    -2.6755      Z:     0.0000     Total:     2.9098

*** Psi4 exiting successfully. Buy a developer a beer!
