                               Psi4 1.4a3.dev225

  ==> Input File <==

--------------------------------------------------------------------------
#psi4
#
memory 32 gb

molecule  {
0 1
  O        1.4499930     1.0206980    -0.0000040
  O       -1.2728880     1.6029860     0.0000050
  N       -1.7320990    -0.6616920    -0.0000100
  N        1.0253160    -1.1826400     0.0000030
  C        0.5211730     0.0320620    -0.0000010
  C       -0.9640109     0.4360497    -0.0000010
  C       -3.1757780    -0.5360000     0.0000030
  C        2.6470610     0.3608020    -0.0000010
  C        2.3925880    -0.9806700     0.0000040
  H       -1.2896900    -1.5740920    -0.0000030
  H       -3.6075680    -0.9997290     0.8912900
  H       -3.6075830    -0.9997540    -0.8912630
  H       -3.4076560     0.5288570    -0.0000100
  H        3.5343540     0.9743460    -0.0000030
  H        3.0931030    -1.8035030     0.0000080
units angstrom
no_reorient  #important for SAPT in psi4, default
symmetry c1  #important for SAPT in psi4, default
}

set PROPERTIES_ORIGIN ["COM"]
properties('MP2/aug-cc-pvtz', properties = ['dipole'])
--------------------------------------------------------------------------

    Molecular point group: c1
  Charge       = 0
  Multiplicity = 1
  Basis Set: AUG-CC-PVTZ
    Blend: AUG-CC-PVTZ
  Basis Set: (AUG-CC-PVTZ AUX)
    Blend: AUG-CC-PVTZ-JKFIT

    Orbital Energies [Eh]
    ---------------------

    Doubly Occupied:

       1A    -20.655143     2A    -20.536670     3A    -15.599391
       4A    -15.590238     5A    -11.375397     6A    -11.354554
       7A    -11.311177     8A    -11.277974     9A    -11.267583
      10A     -1.499291    11A     -1.402757    12A     -1.262951
      13A     -1.238877    14A     -1.053141    15A     -0.971677
      16A     -0.863940    17A     -0.843936    18A     -0.798541
      19A     -0.773212    20A     -0.679461    21A     -0.676022
      22A     -0.661726    23A     -0.632948    24A     -0.619540
      25A     -0.597409    26A     -0.587540    27A     -0.558505
      28A     -0.554360    29A     -0.487070    30A     -0.468596
      31A     -0.446839    32A     -0.406150    33A     -0.351086

  @DF-RHF Final Energy:  -451.61027294806013

   => Energetics <=

    Nuclear Repulsion Energy =            433.0518585186488281
    One-Electron Energy =               -1474.5168596818866718
    Two-Electron Energy =                 589.8547282151778290
    Total Energy =                       -451.6102729480601283
  Basis Set: (AUG-CC-PVTZ AUX)
    Blend: AUG-CC-PVTZ-RI
    Molecular point group: c1

    Geometry (in Angstrom), charge = 0, multiplicity = 1:

       Center              X                  Y                   Z               Mass
    ------------   -----------------  -----------------  -----------------  -----------------
         O            1.413008407640     0.989105427786    -0.000003881961    15.994914619570
         O           -1.309872592360     1.571393427786     0.000005118039    15.994914619570
         N           -1.769083592360    -0.693284572214    -0.000009881961    14.003074004430
         N            0.988331407640    -1.214232572214     0.000003118039    14.003074004430
         C            0.484188407640     0.000469427786    -0.000000881961    12.000000000000
         C           -1.000995492360     0.404457127786    -0.000000881961    12.000000000000
         C           -3.212762592360    -0.567592572214     0.000003118039    12.000000000000
         C            2.610076407640     0.329209427786    -0.000000881961    12.000000000000
         C            2.355603407640    -1.012262572214     0.000004118039    12.000000000000
         H           -1.326674592360    -1.605684572214    -0.000002881961     1.007825032230
         H           -3.644552592360    -1.031321572214     0.891290118039     1.007825032230
         H           -3.644567592360    -1.031346572214    -0.891262881961     1.007825032230
         H           -3.444640592360     0.497264427786    -0.000009881961     1.007825032230
         H            3.497369407640     0.942753427786    -0.000002881961     1.007825032230
         H            3.056118407640    -1.835095572214     0.000008118039     1.007825032230

  Basis Set: AUG-CC-PVTZ
    Blend: AUG-CC-PVTZ
  Basis Set: (AUG-CC-PVTZ AUX)
    Blend: AUG-CC-PVTZ-JKFIT
	 Reference Energy          =    -451.6102729480601283 [Eh]
	 Singles Energy            =      -0.0000000000000000 [Eh]
	 Same-Spin Energy          =      -0.4611589743631095 [Eh]
	 Opposite-Spin Energy      =      -1.3899512969302696 [Eh]
	 Correlation Energy        =      -1.8511102712933791 [Eh]
	 Total Energy              =    -453.4613832193534790 [Eh]

	 ================> DF-SCS-MP2 Energies <==================
	-----------------------------------------------------------
	 SCS Same-Spin Scale       =       0.3333333333333333 [-]
	 SCS Opposite-Spin Scale   =       1.2000000000000000 [-]
	 SCS Same-Spin Energy      =      -0.1537196581210365 [Eh]
	 SCS Opposite-Spin Energy  =      -1.6679415563163236 [Eh]
	 SCS Correlation Energy    =      -1.8216612144373601 [Eh]
	 SCS Total Energy          =    -453.4319341624974982 [Eh]
	-----------------------------------------------------------

  Dipole Moment: [D]
     X:     0.8009      Y:    -2.6117      Z:     0.0000     Total:     2.7318

*** Psi4 exiting successfully. Buy a developer a beer!
