                               Psi4 1.3.2 release

  ==> Input File <==

--------------------------------------------------------------------------
#psi4
#
memory 32 gb

molecule  {
0 1
  O        1.4499930     1.0206980    -0.0000040
  O       -1.2728880     1.6029860     0.0000050
  N       -1.7320990    -0.6616920    -0.0000100
  N        1.0253160    -1.1826400     0.0000030
  C        0.5211730     0.0320620    -0.0000010
  C       -0.9157640     0.4229260    -0.0000010
  C       -3.1757780    -0.5360000     0.0000030
  C        2.6470610     0.3608020    -0.0000010
  C        2.4160387    -0.9849069     0.0000040
  H       -1.2896900    -1.5740920    -0.0000030
  H       -3.6075680    -0.9997290     0.8912900
  H       -3.6075830    -0.9997540    -0.8912630
  H       -3.4076560     0.5288570    -0.0000100
  H        3.5343540     0.9743460    -0.0000030
  H        3.0931030    -1.8035030     0.0000080
units angstrom
no_reorient  #important for SAPT in psi4, default
symmetry c1  #important for SAPT in psi4, default
}

set PROPERTIES_ORIGIN ["COM"]
properties('MP2/aug-cc-pvtz', properties = ['dipole'])
--------------------------------------------------------------------------

    Molecular point group: c1
  Charge       = 0
  Multiplicity = 1
  Basis Set: AUG-CC-PVTZ
    Blend: AUG-CC-PVTZ
  Basis Set: (AUG-CC-PVTZ AUX)
    Blend: AUG-CC-PVTZ-JKFIT

    Orbital Energies [Eh]
    ---------------------

    Doubly Occupied:

       1A    -20.658713     2A    -20.533603     3A    -15.597181
       4A    -15.596722     5A    -11.375003     6A    -11.357399
       7A    -11.317556     8A    -11.282048     9A    -11.265836
      10A     -1.502546    11A     -1.385435    12A     -1.257435
      13A     -1.232076    14A     -1.061885    15A     -0.971151
      16A     -0.874963    17A     -0.849031    18A     -0.792455
      19A     -0.773809    20A     -0.680313    21A     -0.679187
      22A     -0.657002    23A     -0.627830    24A     -0.622350
      25A     -0.599184    26A     -0.591631    27A     -0.554257
      28A     -0.546606    29A     -0.488989    30A     -0.467977
      31A     -0.447332    32A     -0.399888    33A     -0.356669

  @DF-RHF Final Energy:  -451.60911800838829

   => Energetics <=

    Nuclear Repulsion Energy =            432.6529009870378104
    One-Electron Energy =               -1473.7159142798786888
    Two-Electron Energy =                 589.4538952844526420
    Total Energy =                       -451.6091180083882364
  Basis Set: (AUG-CC-PVTZ AUX)
    Blend: AUG-CC-PVTZ-RI
    Molecular point group: c1

    Geometry (in Angstrom), charge = 0, multiplicity = 1:

       Center              X                  Y                   Z               Mass
    ------------   -----------------  -----------------  -----------------  -----------------
         O            1.406182390366     0.990758255154    -0.000003881961    15.994914619570
         O           -1.316698609634     1.573046255154     0.000005118039    15.994914619570
         N           -1.775909609634    -0.691631744846    -0.000009881961    14.003074004430
         N            0.981505390366    -1.212579744846     0.000003118039    14.003074004430
         C            0.477362390366     0.002122255154    -0.000000881961    12.000000000000
         C           -0.959574609634     0.392986255154    -0.000000881961    12.000000000000
         C           -3.219588609634    -0.565939744846     0.000003118039    12.000000000000
         C            2.603250390366     0.330862255154    -0.000000881961    12.000000000000
         C            2.372228090366    -1.014846644846     0.000004118039    12.000000000000
         H           -1.333500609634    -1.604031744846    -0.000002881961     1.007825032230
         H           -3.651378609634    -1.029668744846     0.891290118039     1.007825032230
         H           -3.651393609634    -1.029693744846    -0.891262881961     1.007825032230
         H           -3.451466609634     0.498917255154    -0.000009881961     1.007825032230
         H            3.490543390366     0.944406255154    -0.000002881961     1.007825032230
         H            3.049292390366    -1.833442744846     0.000008118039     1.007825032230

  Basis Set: AUG-CC-PVTZ
    Blend: AUG-CC-PVTZ
  Basis Set: (AUG-CC-PVTZ AUX)
    Blend: AUG-CC-PVTZ-JKFIT
	 Reference Energy          =    -451.6091180083882932 [Eh]
	 Singles Energy            =      -0.0000000000000000 [Eh]
	 Same-Spin Energy          =      -0.4618911428674153 [Eh]
	 Opposite-Spin Energy      =      -1.3920220699388524 [Eh]
	 Correlation Energy        =      -1.8539132128062676 [Eh]
	 Total Energy              =    -453.4630312211945693 [Eh]

	 ================> DF-SCS-MP2 Energies <==================
	-----------------------------------------------------------
	 SCS Same-Spin Scale       =       0.3333333333333333 [-]
	 SCS Opposite-Spin Scale   =       1.2000000000000000 [-]
	 SCS Same-Spin Energy      =      -0.1539637142891384 [Eh]
	 SCS Opposite-Spin Energy  =      -1.6704264839266227 [Eh]
	 SCS Correlation Energy    =      -1.8243901982157611 [Eh]
	 SCS Total Energy          =    -453.4335082066040741 [Eh]
	-----------------------------------------------------------

  Dipole Moment: [D]
     X:     1.1472      Y:    -2.7008      Z:     0.0000     Total:     2.9343

*** Psi4 exiting successfully. Buy a developer a beer!
