                               Psi4 1.3.2 release

  ==> Input File <==

--------------------------------------------------------------------------
#psi4
#
memory 32 gb

molecule  {
0 1
  O        1.4499930     1.0206980    -0.0000040
  O       -1.2728880     1.6029860     0.0000050
  N       -1.7320990    -0.6616920    -0.0000100
  N        1.0253160    -1.1826400     0.0000030
  C        0.5211730     0.0320620    -0.0000010
  C       -0.9157640     0.4229260    -0.0000010
  C       -3.1757780    -0.5360000     0.0000030
  C        2.6470610     0.3608020    -0.0000010
  C        2.3925880    -0.9806700     0.0000040
  H       -1.2896900    -1.5740920    -0.0000030
  H       -3.6075680    -0.9997290     0.8912900
  H       -3.6075830    -0.9997540    -0.8912630
  H       -3.4076560     0.5288570    -0.0000100
  H        3.5343540     0.9743460    -0.0000030
  H        3.1579273    -1.8796464     0.0000084
units angstrom
no_reorient  #important for SAPT in psi4, default
symmetry c1  #important for SAPT in psi4, default
}

set PROPERTIES_ORIGIN ["COM"]
properties('MP2/aug-cc-pvtz', properties = ['dipole'])
--------------------------------------------------------------------------

    Molecular point group: c1
  Charge       = 0
  Multiplicity = 1
  Basis Set: AUG-CC-PVTZ
    Blend: AUG-CC-PVTZ
  Basis Set: (AUG-CC-PVTZ AUX)
    Blend: AUG-CC-PVTZ-JKFIT

    Orbital Energies [Eh]
    ---------------------

    Doubly Occupied:

       1A    -20.659701     2A    -20.533649     3A    -15.597486
       4A    -15.597063     5A    -11.375172     6A    -11.358107
       7A    -11.316575     8A    -11.292058     9A    -11.266037
      10A     -1.504144    11A     -1.385556    12A     -1.261615
      13A     -1.235025    14A     -1.060279    15A     -0.970915
      16A     -0.872145    17A     -0.844646    18A     -0.792692
      19A     -0.770943    20A     -0.680542    21A     -0.680033
      22A     -0.654261    23A     -0.628095    24A     -0.612892
      25A     -0.595307    26A     -0.584650    27A     -0.554443
      28A     -0.546746    29A     -0.490640    30A     -0.472127
      31A     -0.447665    32A     -0.400178    33A     -0.354974

  @DF-RHF Final Energy:  -451.60204143528034

   => Energetics <=

    Nuclear Repulsion Energy =            432.6488694099934378
    One-Electron Energy =               -1473.7091021653984626
    Two-Electron Energy =                 589.4581913201245698
    Total Energy =                       -451.6020414352803982
  Basis Set: (AUG-CC-PVTZ AUX)
    Blend: AUG-CC-PVTZ-RI
    Molecular point group: c1

    Geometry (in Angstrom), charge = 0, multiplicity = 1:

       Center              X                  Y                   Z               Mass
    ------------   -----------------  -----------------  -----------------  -----------------
         O            1.407896701927     0.990963712335    -0.000003885160    15.994914619570
         O           -1.314984298073     1.573251712335     0.000005114840    15.994914619570
         N           -1.774195298073    -0.691426287665    -0.000009885160    14.003074004430
         N            0.983219701927    -1.212374287665     0.000003114840    14.003074004430
         C            0.479076701927     0.002327712335    -0.000000885160    12.000000000000
         C           -0.957860298073     0.393191712335    -0.000000885160    12.000000000000
         C           -3.217874298073    -0.565734287665     0.000003114840    12.000000000000
         C            2.604964701927     0.331067712335    -0.000000885160    12.000000000000
         C            2.350491701927    -1.010404287665     0.000004114840    12.000000000000
         H           -1.331786298073    -1.603826287665    -0.000002885160     1.007825032230
         H           -3.649664298073    -1.029463287665     0.891290114840     1.007825032230
         H           -3.649679298073    -1.029488287665    -0.891262885160     1.007825032230
         H           -3.449752298073     0.499122712335    -0.000009885160     1.007825032230
         H            3.492257701927     0.944611712335    -0.000002885160     1.007825032230
         H            3.115831001927    -1.909380687665     0.000008514840     1.007825032230

  Basis Set: AUG-CC-PVTZ
    Blend: AUG-CC-PVTZ
  Basis Set: (AUG-CC-PVTZ AUX)
    Blend: AUG-CC-PVTZ-JKFIT
	 Reference Energy          =    -451.6020414352803414 [Eh]
	 Singles Energy            =      -0.0000000000000000 [Eh]
	 Same-Spin Energy          =      -0.4624252770830919 [Eh]
	 Opposite-Spin Energy      =      -1.3927626739689949 [Eh]
	 Correlation Energy        =      -1.8551879510520868 [Eh]
	 Total Energy              =    -453.4572293863324148 [Eh]

	 ================> DF-SCS-MP2 Energies <==================
	-----------------------------------------------------------
	 SCS Same-Spin Scale       =       0.3333333333333333 [-]
	 SCS Opposite-Spin Scale   =       1.2000000000000000 [-]
	 SCS Same-Spin Energy      =      -0.1541417590276973 [Eh]
	 SCS Opposite-Spin Energy  =      -1.6713152087627938 [Eh]
	 SCS Correlation Energy    =      -1.8254569677904910 [Eh]
	 SCS Total Energy          =    -453.4274984030708424 [Eh]
	-----------------------------------------------------------

  Dipole Moment: [D]
     X:     1.1313      Y:    -2.7070      Z:     0.0000     Total:     2.9339

*** Psi4 exiting successfully. Buy a developer a beer!
