                               Psi4 1.3.2 release

  ==> Input File <==

--------------------------------------------------------------------------
#psi4
#
memory 32 gb

molecule  {
0 1
  O        1.4499930     1.0206980    -0.0000040
  O       -1.3138539     1.5898037     0.0000049
  N       -1.7320990    -0.6616920    -0.0000100
  N        1.0253160    -1.1826400     0.0000030
  C        0.5211730     0.0320620    -0.0000010
  C       -0.9157640     0.4229260    -0.0000010
  C       -3.1757780    -0.5360000     0.0000030
  C        2.6470610     0.3608020    -0.0000010
  C        2.3925880    -0.9806700     0.0000040
  H       -1.2896900    -1.5740920    -0.0000030
  H       -3.6075680    -0.9997290     0.8912900
  H       -3.6075830    -0.9997540    -0.8912630
  H       -3.4076560     0.5288570    -0.0000100
  H        3.5343540     0.9743460    -0.0000030
  H        3.0931030    -1.8035030     0.0000080
units angstrom
no_reorient  #important for SAPT in psi4, default
symmetry c1  #important for SAPT in psi4, default
}

set PROPERTIES_ORIGIN ["COM"]
properties('MP2/aug-cc-pvtz', properties = ['dipole'])
--------------------------------------------------------------------------

    Molecular point group: c1
  Charge       = 0
  Multiplicity = 1
  Basis Set: AUG-CC-PVTZ
    Blend: AUG-CC-PVTZ
  Basis Set: (AUG-CC-PVTZ AUX)
    Blend: AUG-CC-PVTZ-JKFIT

    Orbital Energies [Eh]
    ---------------------

    Doubly Occupied:

       1A    -20.660630     2A    -20.532489     3A    -15.597713
       4A    -15.595233     5A    -11.374551     6A    -11.359393
       7A    -11.317340     8A    -11.282856     9A    -11.264199
      10A     -1.504943    11A     -1.385502    12A     -1.261471
      13A     -1.233249    14A     -1.062891    15A     -0.970312
      16A     -0.874892    17A     -0.850373    18A     -0.793605
      19A     -0.773894    20A     -0.681153    21A     -0.681021
      22A     -0.656506    23A     -0.626919    24A     -0.621384
      25A     -0.597821    26A     -0.592609    27A     -0.552203
      28A     -0.545795    29A     -0.492066    30A     -0.472719
      31A     -0.447413    32A     -0.398382    33A     -0.355826

  @DF-RHF Final Energy:  -451.60930252979028

   => Energetics <=

    Nuclear Repulsion Energy =            433.0408909660918653
    One-Electron Energy =               -1474.4656849344828515
    Two-Electron Energy =                 589.8154914386007022
    Total Energy =                       -451.6093025297902841
  Basis Set: (AUG-CC-PVTZ AUX)
    Blend: AUG-CC-PVTZ-RI
    Molecular point group: c1

    Geometry (in Angstrom), charge = 0, multiplicity = 1:

       Center              X                  Y                   Z               Mass
    ------------   -----------------  -----------------  -----------------  -----------------
         O            1.413613624246     0.992027719187    -0.000003869271    15.994914619570
         O           -1.350233275754     1.561133419187     0.000005030729    15.994914619570
         N           -1.768478375754    -0.690362280813    -0.000009869271    14.003074004430
         N            0.988936624246    -1.211310280813     0.000003130729    14.003074004430
         C            0.484793624246     0.003391719187    -0.000000869271    12.000000000000
         C           -0.952143375754     0.394255719187    -0.000000869271    12.000000000000
         C           -3.212157375754    -0.564670280813     0.000003130729    12.000000000000
         C            2.610681624246     0.332131719187    -0.000000869271    12.000000000000
         C            2.356208624246    -1.009340280813     0.000004130729    12.000000000000
         H           -1.326069375754    -1.602762280813    -0.000002869271     1.007825032230
         H           -3.643947375754    -1.028399280813     0.891290130729     1.007825032230
         H           -3.643962375754    -1.028424280813    -0.891262869271     1.007825032230
         H           -3.444035375754     0.500186719187    -0.000009869271     1.007825032230
         H            3.497974624246     0.945675719187    -0.000002869271     1.007825032230
         H            3.056723624246    -1.832173280813     0.000008130729     1.007825032230

  Basis Set: AUG-CC-PVTZ
    Blend: AUG-CC-PVTZ
  Basis Set: (AUG-CC-PVTZ AUX)
    Blend: AUG-CC-PVTZ-JKFIT
	 Reference Energy          =    -451.6093025297902841 [Eh]
	 Singles Energy            =      -0.0000000000000000 [Eh]
	 Same-Spin Energy          =      -0.4622950258835721 [Eh]
	 Opposite-Spin Energy      =      -1.3920283667891464 [Eh]
	 Correlation Energy        =      -1.8543233926727185 [Eh]
	 Total Energy              =    -453.4636259224629953 [Eh]

	 ================> DF-SCS-MP2 Energies <==================
	-----------------------------------------------------------
	 SCS Same-Spin Scale       =       0.3333333333333333 [-]
	 SCS Opposite-Spin Scale   =       1.2000000000000000 [-]
	 SCS Same-Spin Energy      =      -0.1540983419611907 [Eh]
	 SCS Opposite-Spin Energy  =      -1.6704340401469757 [Eh]
	 SCS Correlation Energy    =      -1.8245323821081665 [Eh]
	 SCS Total Energy          =    -453.4338349118984297 [Eh]
	-----------------------------------------------------------

  Dipole Moment: [D]
     X:     1.2899      Y:    -2.6746      Z:     0.0000     Total:     2.9694

*** Psi4 exiting successfully. Buy a developer a beer!
