                               Psi4 1.4a3.dev225

  ==> Input File <==

--------------------------------------------------------------------------
#psi4
#
memory 32 gb

molecule  {
0 1
  O        1.4499930     1.0206980    -0.0000040
  O       -1.2728880     1.6029860     0.0000050
  N       -1.7320990    -0.6616920    -0.0000100
  N        1.0253160    -1.1826400     0.0000030
  C        0.4869372    -0.0043785    -0.0000009
  C       -0.9157640     0.4229260    -0.0000010
  C       -3.1757780    -0.5360000     0.0000030
  C        2.6470610     0.3608020    -0.0000010
  C        2.3925880    -0.9806700     0.0000040
  H       -1.2896900    -1.5740920    -0.0000030
  H       -3.6075680    -0.9997290     0.8912900
  H       -3.6075830    -0.9997540    -0.8912630
  H       -3.4076560     0.5288570    -0.0000100
  H        3.5343540     0.9743460    -0.0000030
  H        3.0931030    -1.8035030     0.0000080
units angstrom
no_reorient  #important for SAPT in psi4, default
symmetry c1  #important for SAPT in psi4, default
}

set PROPERTIES_ORIGIN ["COM"]
properties('MP2/aug-cc-pvtz', properties = ['dipole'])
--------------------------------------------------------------------------

    Molecular point group: c1
  Charge       = 0
  Multiplicity = 1
  Basis Set: AUG-CC-PVTZ
    Blend: AUG-CC-PVTZ
  Basis Set: (AUG-CC-PVTZ AUX)
    Blend: AUG-CC-PVTZ-JKFIT

    Orbital Energies [Eh]
    ---------------------

    Doubly Occupied:

       1A    -20.650491     2A    -20.534461     3A    -15.599559
       4A    -15.597600     5A    -11.374874     6A    -11.356318
       7A    -11.318513     8A    -11.280532     9A    -11.266020
      10A     -1.484093    11A     -1.385992    12A     -1.265710
      13A     -1.236712    14A     -1.061822    15A     -0.973315
      16A     -0.876243    17A     -0.847102    18A     -0.791843
      19A     -0.770117    20A     -0.680805    21A     -0.671157
      22A     -0.658603    23A     -0.627285    24A     -0.621204
      25A     -0.599787    26A     -0.584089    27A     -0.554771
      28A     -0.547639    29A     -0.490999    30A     -0.474221
      31A     -0.448951    32A     -0.400742    33A     -0.355039

  @DF-RHF Final Energy:  -451.60515201207102

   => Energetics <=

    Nuclear Repulsion Energy =            432.9817124548158631
    One-Electron Energy =               -1474.4005145257449385
    Two-Electron Energy =                 589.8136500588581157
    Total Energy =                       -451.6051520120710165
  Basis Set: (AUG-CC-PVTZ AUX)
    Blend: AUG-CC-PVTZ-RI
    Molecular point group: c1

    Geometry (in Angstrom), charge = 0, multiplicity = 1:

       Center              X                  Y                   Z               Mass
    ------------   -----------------  -----------------  -----------------  -----------------
         O            1.411674471628     0.993824220122    -0.000003891482    15.994914619570
         O           -1.311206528372     1.576112220122     0.000005108518    15.994914619570
         N           -1.770417528372    -0.688565779878    -0.000009891482    14.003074004430
         N            0.986997471628    -1.209513779878     0.000003108518    14.003074004430
         C            0.448618671628    -0.031252279878    -0.000000791482    12.000000000000
         C           -0.954082528372     0.396052220122    -0.000000891482    12.000000000000
         C           -3.214096528372    -0.562873779878     0.000003108518    12.000000000000
         C            2.608742471628     0.333928220122    -0.000000891482    12.000000000000
         C            2.354269471628    -1.007543779878     0.000004108518    12.000000000000
         H           -1.328008528372    -1.600965779878    -0.000002891482     1.007825032230
         H           -3.645886528372    -1.026602779878     0.891290108518     1.007825032230
         H           -3.645901528372    -1.026627779878    -0.891262891482     1.007825032230
         H           -3.445974528372     0.501983220122    -0.000009891482     1.007825032230
         H            3.496035471628     0.947472220122    -0.000002891482     1.007825032230
         H            3.054784471628    -1.830376779878     0.000008108518     1.007825032230

  Basis Set: AUG-CC-PVTZ
    Blend: AUG-CC-PVTZ
  Basis Set: (AUG-CC-PVTZ AUX)
    Blend: AUG-CC-PVTZ-JKFIT
	 Reference Energy          =    -451.6051520120710165 [Eh]
	 Singles Energy            =      -0.0000000000000000 [Eh]
	 Same-Spin Energy          =      -0.4627006988857421 [Eh]
	 Opposite-Spin Energy      =      -1.3931473813940742 [Eh]
	 Correlation Energy        =      -1.8558480802798163 [Eh]
	 Total Energy              =    -453.4610000923508437 [Eh]

	 ================> DF-SCS-MP2 Energies <==================
	-----------------------------------------------------------
	 SCS Same-Spin Scale       =       0.3333333333333333 [-]
	 SCS Opposite-Spin Scale   =       1.2000000000000000 [-]
	 SCS Same-Spin Energy      =      -0.1542335662952474 [Eh]
	 SCS Opposite-Spin Energy  =      -1.6717768576728891 [Eh]
	 SCS Correlation Energy    =      -1.8260104239681365 [Eh]
	 SCS Total Energy          =    -453.4311624360391306 [Eh]
	-----------------------------------------------------------

  Dipole Moment: [D]
     X:     1.0627      Y:    -2.7960      Z:     0.0000     Total:     2.9912

*** Psi4 exiting successfully. Buy a developer a beer!
