                               Psi4 1.3.2 release

  ==> Input File <==

--------------------------------------------------------------------------
#psi4
#
memory 32 gb

molecule  {
0 1
  O        1.4499930     1.0206980    -0.0000040
  O       -1.2728880     1.6029860     0.0000050
  N       -1.7320990    -0.6616920    -0.0000100
  N        0.8955833    -1.2286830     0.0000033
  C        0.5211730     0.0320620    -0.0000010
  C       -0.9157640     0.4229260    -0.0000010
  C       -3.1757780    -0.5360000     0.0000030
  C        2.6470610     0.3608020    -0.0000010
  C        2.3925880    -0.9806700     0.0000040
  H       -1.2896900    -1.5740920    -0.0000030
  H       -3.6075680    -0.9997290     0.8912900
  H       -3.6075830    -0.9997540    -0.8912630
  H       -3.4076560     0.5288570    -0.0000100
  H        3.5343540     0.9743460    -0.0000030
  H        3.0931030    -1.8035030     0.0000080
units angstrom
no_reorient  #important for SAPT in psi4, default
symmetry c1  #important for SAPT in psi4, default
}

set PROPERTIES_ORIGIN ["COM"]
properties('MP2/aug-cc-pvtz', properties = ['dipole'])
--------------------------------------------------------------------------

    Molecular point group: c1
  Charge       = 0
  Multiplicity = 1
  Basis Set: AUG-CC-PVTZ
    Blend: AUG-CC-PVTZ
  Basis Set: (AUG-CC-PVTZ AUX)
    Blend: AUG-CC-PVTZ-JKFIT

    Orbital Energies [Eh]
    ---------------------

    Doubly Occupied:

       1A    -20.659440     2A    -20.532004     3A    -15.610364
       4A    -15.594005     5A    -11.370823     6A    -11.363810
       7A    -11.322298     8A    -11.293531     9A    -11.264145
      10A     -1.502034    11A     -1.383866    12A     -1.254072
      13A     -1.220504    14A     -1.060193    15A     -0.969469
      16A     -0.879215    17A     -0.843372    18A     -0.783315
      19A     -0.770121    20A     -0.679407    21A     -0.678660
      22A     -0.652777    23A     -0.626260    24A     -0.612507
      25A     -0.594109    26A     -0.584164    27A     -0.553748
      28A     -0.545587    29A     -0.504158    30A     -0.460240
      31A     -0.443329    32A     -0.397173    33A     -0.366245

  @DF-RHF Final Energy:  -451.59350152228279

   => Energetics <=

    Nuclear Repulsion Energy =            431.6952346705690502
    One-Electron Energy =               -1471.8275800617873301
    Two-Electron Energy =                 588.5388438689354871
    Total Energy =                       -451.5935015222827360
  Basis Set: (AUG-CC-PVTZ AUX)
    Blend: AUG-CC-PVTZ-RI
    Molecular point group: c1

    Geometry (in Angstrom), charge = 0, multiplicity = 1:

       Center              X                  Y                   Z               Mass
    ------------   -----------------  -----------------  -----------------  -----------------
         O            1.422828028812     0.995470147748    -0.000003915291    15.994914619570
         O           -1.300052971188     1.577758147748     0.000005084709    15.994914619570
         N           -1.759263971188    -0.686919852252    -0.000009915291    14.003074004430
         N            0.868418328812    -1.253910852252     0.000003384709    14.003074004430
         C            0.494008028812     0.006834147748    -0.000000915291    12.000000000000
         C           -0.942928971188     0.397698147748    -0.000000915291    12.000000000000
         C           -3.202942971188    -0.561227852252     0.000003084709    12.000000000000
         C            2.619896028812     0.335574147748    -0.000000915291    12.000000000000
         C            2.365423028812    -1.005897852252     0.000004084709    12.000000000000
         H           -1.316854971188    -1.599319852252    -0.000002915291     1.007825032230
         H           -3.634732971188    -1.024956852252     0.891290084709     1.007825032230
         H           -3.634747971188    -1.024981852252    -0.891262915291     1.007825032230
         H           -3.434820971188     0.503629147748    -0.000009915291     1.007825032230
         H            3.507189028812     0.949118147748    -0.000002915291     1.007825032230
         H            3.065938028812    -1.828730852252     0.000008084709     1.007825032230

  Basis Set: AUG-CC-PVTZ
    Blend: AUG-CC-PVTZ
  Basis Set: (AUG-CC-PVTZ AUX)
    Blend: AUG-CC-PVTZ-JKFIT
	 Reference Energy          =    -451.5935015222827928 [Eh]
	 Singles Energy            =      -0.0000000000000000 [Eh]
	 Same-Spin Energy          =      -0.4613034051477704 [Eh]
	 Opposite-Spin Energy      =      -1.3946679133630053 [Eh]
	 Correlation Energy        =      -1.8559713185107758 [Eh]
	 Total Energy              =    -453.4494728407935895 [Eh]

	 ================> DF-SCS-MP2 Energies <==================
	-----------------------------------------------------------
	 SCS Same-Spin Scale       =       0.3333333333333333 [-]
	 SCS Opposite-Spin Scale   =       1.2000000000000000 [-]
	 SCS Same-Spin Energy      =      -0.1537678017159234 [Eh]
	 SCS Opposite-Spin Energy  =      -1.6736014960356063 [Eh]
	 SCS Correlation Energy    =      -1.8273692977515297 [Eh]
	 SCS Total Energy          =    -453.4208708200343381 [Eh]
	-----------------------------------------------------------

  Dipole Moment: [D]
     X:     1.3223      Y:    -2.6056      Z:     0.0000     Total:     2.9220

*** Psi4 exiting successfully. Buy a developer a beer!
