                               Psi4 1.3.2 release

  ==> Input File <==

--------------------------------------------------------------------------
#psi4
#
memory 32 gb

molecule  {
0 1
  O       -3.1403193     0.0944755     0.3167296
  C        0.9902420    -0.0039870    -0.3612050
  C        2.4872910    -0.0052090    -0.5397260
  C        0.2806140    -1.2015640    -0.2442060
  C        0.2798770     1.1950560    -0.2368630
  C        3.2312830    -0.0061060     0.7967240
  C       -1.0960700    -1.2065460    -0.0157640
  C       -1.1159263     1.2186762    -0.0058682
  C       -1.7865290     0.0017960     0.1015840
  H        2.7838010    -0.8823900    -1.1265120
  H        2.7835740     0.8731460    -1.1246690
  H        0.8095070    -2.1483250    -0.3363770
  H        0.8092330     2.1418130    -0.3228610
  H        2.9650580     0.8755680     1.3857970
  H        4.3169070    -0.0053560     0.6533480
  H        2.9660240    -0.8892340     1.3840690
  H       -1.6288030    -2.1532140     0.0657430
  H       -1.6431320     2.1402150     0.0795740
  H       -3.4941530    -0.8345020     0.3676020
units angstrom
no_reorient  #important for SAPT in psi4, default
symmetry c1  #important for SAPT in psi4, default
}

set PROPERTIES_ORIGIN ["COM"]
properties('MP2/aug-cc-pvtz', properties = ['dipole'])
--------------------------------------------------------------------------

    Molecular point group: c1
  Charge       = 0
  Multiplicity = 1
  Basis Set: AUG-CC-PVTZ
    Blend: AUG-CC-PVTZ
  Basis Set: (AUG-CC-PVTZ AUX)
    Blend: AUG-CC-PVTZ-JKFIT

    Orbital Energies [Eh]
    ---------------------

    Doubly Occupied:

       1A    -20.591182     2A    -11.299058     3A    -11.239095
       4A    -11.238352     5A    -11.235451     6A    -11.231028
       7A    -11.227624     8A    -11.227169     9A    -11.215223
      10A     -1.394717    11A     -1.148968    12A     -1.057406
      13A     -1.015086    14A     -0.974949    15A     -0.859781
      16A     -0.844333    17A     -0.790323    18A     -0.723080
      19A     -0.672654    20A     -0.647692    21A     -0.611314
      22A     -0.597978    23A     -0.588025    24A     -0.585329
      25A     -0.566036    26A     -0.556193    27A     -0.522946
      28A     -0.499714    29A     -0.479758    30A     -0.479241
      31A     -0.466695    32A     -0.338177    33A     -0.306316

  @DF-RHF Final Energy:  -383.76339776049355

   => Energetics <=

    Nuclear Repulsion Energy =            417.9044053031418571
    One-Electron Energy =               -1348.8738163469852225
    Two-Electron Energy =                 547.2060132833498756
    Total Energy =                       -383.7633977604934898
  Basis Set: (AUG-CC-PVTZ AUX)
    Blend: AUG-CC-PVTZ-RI
    Molecular point group: c1

    Geometry (in Angstrom), charge = 0, multiplicity = 1:

       Center              X                  Y                   Z               Mass
    ------------   -----------------  -----------------  -----------------  -----------------
         O           -3.138449395892     0.090155639081     0.316435409589    15.994914619570
         C            0.992111904108    -0.008306860919    -0.361499190411    12.000000000000
         C            2.489160904108    -0.009528860919    -0.540020190411    12.000000000000
         C            0.282483904108    -1.205883860919    -0.244500190411    12.000000000000
         C            0.281746904108     1.190736139081    -0.237157190411    12.000000000000
         C            3.233152904108    -0.010425860919     0.796429809589    12.000000000000
         C           -1.094200095892    -1.210865860919    -0.016058190411    12.000000000000
         C           -1.114056395892     1.214356339081    -0.006162390411    12.000000000000
         C           -1.784659095892    -0.002523860919     0.101289809589    12.000000000000
         H            2.785670904108    -0.886709860919    -1.126806190411     1.007825032230
         H            2.785443904108     0.868826139081    -1.124963190411     1.007825032230
         H            0.811376904108    -2.152644860919    -0.336671190411     1.007825032230
         H            0.811102904108     2.137493139081    -0.323155190411     1.007825032230
         H            2.966927904108     0.871248139081     1.385502809589     1.007825032230
         H            4.318776904108    -0.009675860919     0.653053809589     1.007825032230
         H            2.967893904108    -0.893553860919     1.383774809589     1.007825032230
         H           -1.626933095892    -2.157533860919     0.065448809589     1.007825032230
         H           -1.641262095892     2.135895139081     0.079279809589     1.007825032230
         H           -3.492283095892    -0.838821860919     0.367307809589     1.007825032230

  Basis Set: AUG-CC-PVTZ
    Blend: AUG-CC-PVTZ
  Basis Set: (AUG-CC-PVTZ AUX)
    Blend: AUG-CC-PVTZ-JKFIT
	 Reference Energy          =    -383.7633977604935467 [Eh]
	 Singles Energy            =      -0.0000000000000000 [Eh]
	 Same-Spin Energy          =      -0.4131023109486240 [Eh]
	 Opposite-Spin Energy      =      -1.3197953342663193 [Eh]
	 Correlation Energy        =      -1.7328976452149434 [Eh]
	 Total Energy              =    -385.4962954057085085 [Eh]

	 ================> DF-SCS-MP2 Energies <==================
	-----------------------------------------------------------
	 SCS Same-Spin Scale       =       0.3333333333333333 [-]
	 SCS Opposite-Spin Scale   =       1.2000000000000000 [-]
	 SCS Same-Spin Energy      =      -0.1377007703162080 [Eh]
	 SCS Opposite-Spin Energy  =      -1.5837544011195832 [Eh]
	 SCS Correlation Energy    =      -1.7214551714357913 [Eh]
	 SCS Total Energy          =    -385.4848529319293107 [Eh]
	-----------------------------------------------------------

  Dipole Moment: [D]
     X:     0.4592      Y:    -1.2949      Z:    -0.0170     Total:     1.3740

*** Psi4 exiting successfully. Buy a developer a beer!
