                               Psi4 1.3.2 release

  ==> Input File <==

--------------------------------------------------------------------------
#psi4
#
memory 32 gb

molecule  {
0 1
  O       -3.1417080     0.0705380     0.3169670
  C        0.9902420    -0.0039870    -0.3612050
  C        2.4865038    -0.0578057    -0.5382108
  C        0.3226416    -1.2259004    -0.2485610
  C        0.2798770     1.1950560    -0.2368630
  C        3.2312830    -0.0061060     0.7967240
  C       -1.0960700    -1.2065460    -0.0157640
  C       -1.0950530     1.2066380    -0.0091780
  C       -1.7865290     0.0017960     0.1015840
  H        2.7838010    -0.8823900    -1.1265120
  H        2.7835740     0.8731460    -1.1246690
  H        0.8095070    -2.1483250    -0.3363770
  H        0.8092330     2.1418130    -0.3228610
  H        2.9650580     0.8755680     1.3857970
  H        4.3169070    -0.0053560     0.6533480
  H        2.9660240    -0.8892340     1.3840690
  H       -1.6288030    -2.1532140     0.0657430
  H       -1.6431320     2.1402150     0.0795740
  H       -3.4941530    -0.8345020     0.3676020
units angstrom
no_reorient  #important for SAPT in psi4, default
symmetry c1  #important for SAPT in psi4, default
}

set PROPERTIES_ORIGIN ["COM"]
properties('MP2/aug-cc-pvtz', properties = ['dipole'])
--------------------------------------------------------------------------

    Molecular point group: c1
  Charge       = 0
  Multiplicity = 1
  Basis Set: AUG-CC-PVTZ
    Blend: AUG-CC-PVTZ
  Basis Set: (AUG-CC-PVTZ AUX)
    Blend: AUG-CC-PVTZ-JKFIT

    Orbital Energies [Eh]
    ---------------------

    Doubly Occupied:

       1A    -20.589147     2A    -11.299286     3A    -11.238575
       4A    -11.237877     5A    -11.237561     6A    -11.232408
       7A    -11.230506     8A    -11.226549     9A    -11.215239
      10A     -1.398330    11A     -1.148127    12A     -1.058000
      13A     -1.012990    14A     -0.975865    15A     -0.862144
      16A     -0.845436    17A     -0.791395    18A     -0.728976
      19A     -0.667685    20A     -0.650375    21A     -0.620741
      22A     -0.594145    23A     -0.588071    24A     -0.585187
      25A     -0.570616    26A     -0.554023    27A     -0.523349
      28A     -0.502256    29A     -0.486415    30A     -0.469237
      31A     -0.462580    32A     -0.336358    33A     -0.307509

  @DF-RHF Final Energy:  -383.75952381401436

   => Energetics <=

    Nuclear Repulsion Energy =            417.7458447957827730
    One-Electron Energy =               -1348.5168225565601006
    Two-Electron Energy =                 547.0114539467630266
    Total Energy =                       -383.7595238140143010
  Basis Set: (AUG-CC-PVTZ AUX)
    Blend: AUG-CC-PVTZ-RI
    Molecular point group: c1

    Geometry (in Angstrom), charge = 0, multiplicity = 1:

       Center              X                  Y                   Z               Mass
    ------------   -----------------  -----------------  -----------------  -----------------
         O           -3.145762020797     0.078100634872     0.317246219865    15.994914619570
         C            0.986187979203     0.003575634872    -0.360925780135    12.000000000000
         C            2.482449779203    -0.050243065128    -0.537931580135    12.000000000000
         C            0.318587579203    -1.218337765128    -0.248281780135    12.000000000000
         C            0.275822979203     1.202618634872    -0.236583780135    12.000000000000
         C            3.227228979203     0.001456634872     0.797003219865    12.000000000000
         C           -1.100124020797    -1.198983365128    -0.015484780135    12.000000000000
         C           -1.099107020797     1.214200634872    -0.008898780135    12.000000000000
         C           -1.790583020797     0.009358634872     0.101863219865    12.000000000000
         H            2.779746979203    -0.874827365128    -1.126232780135     1.007825032230
         H            2.779519979203     0.880708634872    -1.124389780135     1.007825032230
         H            0.805452979203    -2.140762365128    -0.336097780135     1.007825032230
         H            0.805178979203     2.149375634872    -0.322581780135     1.007825032230
         H            2.961003979203     0.883130634872     1.386076219865     1.007825032230
         H            4.312852979203     0.002206634872     0.653627219865     1.007825032230
         H            2.961969979203    -0.881671365128     1.384348219865     1.007825032230
         H           -1.632857020797    -2.145651365128     0.066022219865     1.007825032230
         H           -1.647186020797     2.147777634872     0.079853219865     1.007825032230
         H           -3.498207020797    -0.826939365128     0.367881219865     1.007825032230

  Basis Set: AUG-CC-PVTZ
    Blend: AUG-CC-PVTZ
  Basis Set: (AUG-CC-PVTZ AUX)
    Blend: AUG-CC-PVTZ-JKFIT
	 Reference Energy          =    -383.7595238140143579 [Eh]
	 Singles Energy            =      -0.0000000000000000 [Eh]
	 Same-Spin Energy          =      -0.4128609578858017 [Eh]
	 Opposite-Spin Energy      =      -1.3194370810582101 [Eh]
	 Correlation Energy        =      -1.7322980389440117 [Eh]
	 Total Energy              =    -385.4918218529583669 [Eh]

	 ================> DF-SCS-MP2 Energies <==================
	-----------------------------------------------------------
	 SCS Same-Spin Scale       =       0.3333333333333333 [-]
	 SCS Opposite-Spin Scale   =       1.2000000000000000 [-]
	 SCS Same-Spin Energy      =      -0.1376203192952672 [Eh]
	 SCS Opposite-Spin Energy  =      -1.5833244972698521 [Eh]
	 SCS Correlation Energy    =      -1.7209448165651193 [Eh]
	 SCS Total Energy          =    -385.4804686305794803 [Eh]
	-----------------------------------------------------------

  Dipole Moment: [D]
     X:     0.4664      Y:    -1.2929      Z:    -0.0187     Total:     1.3746

*** Psi4 exiting successfully. Buy a developer a beer!
