                               Psi4 1.4a3.dev225

  ==> Input File <==

--------------------------------------------------------------------------
#psi4
#
memory 32 gb

molecule  {
0 1
  O        3.2216350    -0.1065060     0.2904990
  C       -0.9146420     0.0169590    -0.3639610
  C       -2.4121960     0.0318470    -0.5323860
  C       -0.1907600     1.2076380    -0.2374780
  C       -0.1888172    -1.2361268    -0.2500645
  C       -3.1413340    -0.0192130     0.8137010
  C        1.1888560     1.1991780    -0.0236810
  C        1.1619340    -1.2201410    -0.0407060
  C        1.8648900    -0.0185630     0.0807020
  H       -2.7091570     0.9353730    -1.0779940
  H       -2.7186560    -0.8212200    -1.1493620
  H       -0.7079800     2.1625600    -0.3214960
  H       -0.7531780    -2.1343060    -0.3521420
  H       -2.8726550    -0.9274190     1.3607640
  H       -4.2274440    -0.0080790     0.6778440
  H       -2.8630000     0.8390280     1.4320080
  H        1.7343360     2.1384520     0.0639930
  H        1.7070130    -2.1569100     0.0367280
  H        3.5799610     0.7963060     0.3524270
units angstrom
no_reorient  #important for SAPT in psi4, default
symmetry c1  #important for SAPT in psi4, default
}

set PROPERTIES_ORIGIN ["COM"]
properties('MP2/aug-cc-pvtz', properties = ['dipole'])
--------------------------------------------------------------------------

    Molecular point group: c1
  Charge       = 0
  Multiplicity = 1
  Basis Set: AUG-CC-PVTZ
    Blend: AUG-CC-PVTZ
  Basis Set: (AUG-CC-PVTZ AUX)
    Blend: AUG-CC-PVTZ-JKFIT

    Orbital Energies [Eh]
    ---------------------

    Doubly Occupied:

       1A    -20.589690     2A    -11.300314     3A    -11.237982
       4A    -11.237443     5A    -11.236067     6A    -11.234098
       7A    -11.227659     8A    -11.227593     9A    -11.215437
      10A     -1.397985    11A     -1.147243    12A     -1.056982
      13A     -1.020413    14A     -0.971153    15A     -0.863308
      16A     -0.840712    17A     -0.788927    18A     -0.729684
      19A     -0.670869    20A     -0.646041    21A     -0.614431
      22A     -0.596163    23A     -0.589627    24A     -0.586847
      25A     -0.570570    26A     -0.554067    27A     -0.522891
      28A     -0.499478    29A     -0.481798    30A     -0.472459
      31A     -0.466607    32A     -0.344587    33A     -0.300675

  @DF-RHF Final Energy:  -383.76311988718624

   => Energetics <=

    Nuclear Repulsion Energy =            417.5509310997753687
    One-Electron Energy =               -1348.1485016635135707
    Two-Electron Energy =                 546.8344506765519100
    Total Energy =                       -383.7631198871862352
  Basis Set: (AUG-CC-PVTZ AUX)
    Blend: AUG-CC-PVTZ-RI
    Molecular point group: c1

    Geometry (in Angstrom), charge = 0, multiplicity = 1:

       Center              X                  Y                   Z               Mass
    ------------   -----------------  -----------------  -----------------  -----------------
         O            3.139411684570    -0.095574974881     0.298438517995    15.994914619570
         C           -0.996865315430     0.027890025119    -0.356021482005    12.000000000000
         C           -2.494419315430     0.042778025119    -0.524446482005    12.000000000000
         C           -0.272983315430     1.218569025119    -0.229538482005    12.000000000000
         C           -0.271040515430    -1.225195774881    -0.242124982005    12.000000000000
         C           -3.223557315430    -0.008281974881     0.821640517995    12.000000000000
         C            1.106632684570     1.210109025119    -0.015741482005    12.000000000000
         C            1.079710684570    -1.209209974881    -0.032766482005    12.000000000000
         C            1.782666684570    -0.007631974881     0.088641517995    12.000000000000
         H           -2.791380315430     0.946304025119    -1.070054482005     1.007825032230
         H           -2.800879315430    -0.810288974881    -1.141422482005     1.007825032230
         H           -0.790203315430     2.173491025119    -0.313556482005     1.007825032230
         H           -0.835401315430    -2.123374974881    -0.344202482005     1.007825032230
         H           -2.954878315430    -0.916487974881     1.368703517995     1.007825032230
         H           -4.309667315430     0.002852025119     0.685783517995     1.007825032230
         H           -2.945223315430     0.849959025119     1.439947517995     1.007825032230
         H            1.652112684570     2.149383025119     0.071932517995     1.007825032230
         H            1.624789684570    -2.145978974881     0.044667517995     1.007825032230
         H            3.497737684570     0.807237025119     0.360366517995     1.007825032230

  Basis Set: AUG-CC-PVTZ
    Blend: AUG-CC-PVTZ
  Basis Set: (AUG-CC-PVTZ AUX)
    Blend: AUG-CC-PVTZ-JKFIT
	 Reference Energy          =    -383.7631198871862352 [Eh]
	 Singles Energy            =      -0.0000000000000000 [Eh]
	 Same-Spin Energy          =      -0.4126765183356064 [Eh]
	 Opposite-Spin Energy      =      -1.3191706127328997 [Eh]
	 Correlation Energy        =      -1.7318471310685062 [Eh]
	 Total Energy              =    -385.4949670182547266 [Eh]

	 ================> DF-SCS-MP2 Energies <==================
	-----------------------------------------------------------
	 SCS Same-Spin Scale       =       0.3333333333333333 [-]
	 SCS Opposite-Spin Scale   =       1.2000000000000000 [-]
	 SCS Same-Spin Energy      =      -0.1375588394452021 [Eh]
	 SCS Opposite-Spin Energy  =      -1.5830047352794796 [Eh]
	 SCS Correlation Energy    =      -1.7205635747246817 [Eh]
	 SCS Total Energy          =    -385.4836834619109140 [Eh]
	-----------------------------------------------------------

  Dipole Moment: [D]
     X:    -0.4699      Y:     1.2491      Z:    -0.0054     Total:     1.3346

*** Psi4 exiting successfully. Buy a developer a beer!
