                               Psi4 1.4a3.dev225

  ==> Input File <==

--------------------------------------------------------------------------
#psi4
#
memory 32 gb

molecule  {
0 1
  O        3.2216350    -0.1065060     0.2904990
  C       -0.9146420     0.0169590    -0.3639610
  C       -2.3625117     0.0313531    -0.5267982
  C       -0.1907600     1.2076380    -0.2374780
  C       -0.2138010    -1.1929940    -0.2539850
  C       -3.1413340    -0.0192130     0.8137010
  C        1.1888560     1.1991780    -0.0236810
  C        1.1619340    -1.2201410    -0.0407060
  C        1.8648900    -0.0185630     0.0807020
  H       -2.7091570     0.9353730    -1.0779940
  H       -2.7186560    -0.8212200    -1.1493620
  H       -0.7079800     2.1625600    -0.3214960
  H       -0.7531780    -2.1343060    -0.3521420
  H       -2.8726550    -0.9274190     1.3607640
  H       -4.2274440    -0.0080790     0.6778440
  H       -2.8630000     0.8390280     1.4320080
  H        1.7343360     2.1384520     0.0639930
  H        1.7070130    -2.1569100     0.0367280
  H        3.5799610     0.7963060     0.3524270
units angstrom
no_reorient  #important for SAPT in psi4, default
symmetry c1  #important for SAPT in psi4, default
}

set PROPERTIES_ORIGIN ["COM"]
properties('MP2/aug-cc-pvtz', properties = ['dipole'])
--------------------------------------------------------------------------

    Molecular point group: c1
  Charge       = 0
  Multiplicity = 1
  Basis Set: AUG-CC-PVTZ
    Blend: AUG-CC-PVTZ
  Basis Set: (AUG-CC-PVTZ AUX)
    Blend: AUG-CC-PVTZ-JKFIT

    Orbital Energies [Eh]
    ---------------------

    Doubly Occupied:

       1A    -20.589856     2A    -11.300391     3A    -11.239180
       4A    -11.237416     5A    -11.235352     6A    -11.229861
       7A    -11.229167     8A    -11.228005     9A    -11.216388
      10A     -1.398224    11A     -1.152939    12A     -1.060388
      13A     -1.017420    14A     -0.972500    15A     -0.864651
      16A     -0.843339    17A     -0.789447    18A     -0.728020
      19A     -0.672987    20A     -0.650454    21A     -0.612035
      22A     -0.594704    23A     -0.587914    24A     -0.586176
      25A     -0.568318    26A     -0.555930    27A     -0.519098
      28A     -0.498067    29A     -0.491605    30A     -0.472649
      31A     -0.464501    32A     -0.341297    33A     -0.304491

  @DF-RHF Final Energy:  -383.76309247278050

   => Energetics <=

    Nuclear Repulsion Energy =            418.7786052115085340
    One-Electron Energy =               -1350.5778614906835173
    Two-Electron Energy =                 548.0361638063944838
    Total Energy =                       -383.7630924727804995
  Basis Set: (AUG-CC-PVTZ AUX)
    Blend: AUG-CC-PVTZ-RI
    Molecular point group: c1

    Geometry (in Angstrom), charge = 0, multiplicity = 1:

       Center              X                  Y                   Z               Mass
    ------------   -----------------  -----------------  -----------------  -----------------
         O            3.136983583356    -0.099766451364     0.298274619565    15.994914619570
         C           -0.999293416644     0.023698548636    -0.356185380435    12.000000000000
         C           -2.447163116644     0.038092648636    -0.519022580435    12.000000000000
         C           -0.275411416644     1.214377548636    -0.229702380435    12.000000000000
         C           -0.298452416644    -1.186254451364    -0.246209380435    12.000000000000
         C           -3.225985416644    -0.012473451364     0.821476619565    12.000000000000
         C            1.104204583356     1.205917548636    -0.015905380435    12.000000000000
         C            1.077282583356    -1.213401451364    -0.032930380435    12.000000000000
         C            1.780238583356    -0.011823451364     0.088477619565    12.000000000000
         H           -2.793808416644     0.942112548636    -1.070218380435     1.007825032230
         H           -2.803307416644    -0.814480451364    -1.141586380435     1.007825032230
         H           -0.792631416644     2.169299548636    -0.313720380435     1.007825032230
         H           -0.837829416644    -2.127566451364    -0.344366380435     1.007825032230
         H           -2.957306416644    -0.920679451364     1.368539619565     1.007825032230
         H           -4.312095416644    -0.001339451364     0.685619619565     1.007825032230
         H           -2.947651416644     0.845767548636     1.439783619565     1.007825032230
         H            1.649684583356     2.145191548636     0.071768619565     1.007825032230
         H            1.622361583356    -2.150170451364     0.044503619565     1.007825032230
         H            3.495309583356     0.803045548636     0.360202619565     1.007825032230

  Basis Set: AUG-CC-PVTZ
    Blend: AUG-CC-PVTZ
  Basis Set: (AUG-CC-PVTZ AUX)
    Blend: AUG-CC-PVTZ-JKFIT
	 Reference Energy          =    -383.7630924727804995 [Eh]
	 Singles Energy            =      -0.0000000000000000 [Eh]
	 Same-Spin Energy          =      -0.4132365747744908 [Eh]
	 Opposite-Spin Energy      =      -1.3195390566530878 [Eh]
	 Correlation Energy        =      -1.7327756314275786 [Eh]
	 Total Energy              =    -385.4958681042080570 [Eh]

	 ================> DF-SCS-MP2 Energies <==================
	-----------------------------------------------------------
	 SCS Same-Spin Scale       =       0.3333333333333333 [-]
	 SCS Opposite-Spin Scale   =       1.2000000000000000 [-]
	 SCS Same-Spin Energy      =      -0.1377455249248303 [Eh]
	 SCS Opposite-Spin Energy  =      -1.5834468679837053 [Eh]
	 SCS Correlation Energy    =      -1.7211923929085355 [Eh]
	 SCS Total Energy          =    -385.4842848656890624 [Eh]
	-----------------------------------------------------------

  Dipole Moment: [D]
     X:    -0.4287      Y:     1.2736      Z:    -0.0006     Total:     1.3438

*** Psi4 exiting successfully. Buy a developer a beer!
