                               Psi4 1.3.2 release

  ==> Input File <==

--------------------------------------------------------------------------
#psi4
#
memory 32 gb

molecule  {
0 1
  O       -3.1417080     0.0705380     0.3169670
  C        0.9902420    -0.0039870    -0.3612050
  C        2.4872910    -0.0052090    -0.5397260
  C        0.2806140    -1.2015640    -0.2442060
  C        0.2798770     1.1950560    -0.2368630
  C        3.2312830    -0.0061060     0.7967240
  C       -1.0960700    -1.2065460    -0.0157640
  C       -1.0950530     1.2066380    -0.0091780
  C       -1.7859773     0.0137729     0.1015663
  H        2.7838010    -0.8823900    -1.1265120
  H        2.7835740     0.8731460    -1.1246690
  H        0.8095070    -2.1483250    -0.3363770
  H        0.8092330     2.1418130    -0.3228610
  H        2.9650580     0.8755680     1.3857970
  H        4.3169070    -0.0053560     0.6533480
  H        2.9660240    -0.8892340     1.3840690
  H       -1.6288030    -2.1532140     0.0657430
  H       -1.6431320     2.1402150     0.0795740
  H       -3.5019372    -0.8313607     0.3688552
units angstrom
no_reorient  #important for SAPT in psi4, default
symmetry c1  #important for SAPT in psi4, default
}

set PROPERTIES_ORIGIN ["COM"]
properties('MP2/aug-cc-pvtz', properties = ['dipole'])
--------------------------------------------------------------------------

    Molecular point group: c1
  Charge       = 0
  Multiplicity = 1
  Basis Set: AUG-CC-PVTZ
    Blend: AUG-CC-PVTZ
  Basis Set: (AUG-CC-PVTZ AUX)
    Blend: AUG-CC-PVTZ-JKFIT

    Orbital Energies [Eh]
    ---------------------

    Doubly Occupied:

       1A    -20.588699     2A    -11.299355     3A    -11.238193
       4A    -11.236376     5A    -11.235641     6A    -11.230871
       7A    -11.227036     8A    -11.226864     9A    -11.215223
      10A     -1.397665    11A     -1.151138    12A     -1.058098
      13A     -1.016768    14A     -0.975684    15A     -0.862257
      16A     -0.841934    17A     -0.791487    18A     -0.729384
      19A     -0.671276    20A     -0.647363    21A     -0.613370
      22A     -0.596175    23A     -0.587768    24A     -0.585183
      25A     -0.569931    26A     -0.554030    27A     -0.523322
      28A     -0.497850    29A     -0.480079    30A     -0.477697
      31A     -0.468109    32A     -0.340443    33A     -0.305852

  @DF-RHF Final Energy:  -383.76662831877229

   => Energetics <=

    Nuclear Repulsion Energy =            418.3148984824117065
    One-Electron Energy =               -1349.6808105951454309
    Two-Electron Energy =                 547.5992837939613764
    Total Energy =                       -383.7666283187722911
  Basis Set: (AUG-CC-PVTZ AUX)
    Blend: AUG-CC-PVTZ-RI
    Molecular point group: c1

    Geometry (in Angstrom), charge = 0, multiplicity = 1:

       Center              X                  Y                   Z               Mass
    ------------   -----------------  -----------------  -----------------  -----------------
         O           -3.141697986643     0.069334696173     0.316958456323    15.994914619570
         C            0.990252013357    -0.005190303827    -0.361213543677    12.000000000000
         C            2.487301013357    -0.006412303827    -0.539734543677    12.000000000000
         C            0.280624013357    -1.202767303827    -0.244214543677    12.000000000000
         C            0.279887013357     1.193852696173    -0.236871543677    12.000000000000
         C            3.231293013357    -0.007309303827     0.796715456323    12.000000000000
         C           -1.096059986643    -1.207749303827    -0.015772543677    12.000000000000
         C           -1.095042986643     1.205434696173    -0.009186543677    12.000000000000
         C           -1.785967286643     0.012569596173     0.101557756323    12.000000000000
         H            2.783811013357    -0.883593303827    -1.126520543677     1.007825032230
         H            2.783584013357     0.871942696173    -1.124677543677     1.007825032230
         H            0.809517013357    -2.149528303827    -0.336385543677     1.007825032230
         H            0.809243013357     2.140609696173    -0.322869543677     1.007825032230
         H            2.965068013357     0.874364696173     1.385788456323     1.007825032230
         H            4.316917013357    -0.006559303827     0.653339456323     1.007825032230
         H            2.966034013357    -0.890437303827     1.384060456323     1.007825032230
         H           -1.628792986643    -2.154417303827     0.065734456323     1.007825032230
         H           -1.643121986643     2.139011696173     0.079565456323     1.007825032230
         H           -3.501927186643    -0.832564003827     0.368846656323     1.007825032230

  Basis Set: AUG-CC-PVTZ
    Blend: AUG-CC-PVTZ
  Basis Set: (AUG-CC-PVTZ AUX)
    Blend: AUG-CC-PVTZ-JKFIT
	 Reference Energy          =    -383.7666283187722911 [Eh]
	 Singles Energy            =      -0.0000000000000000 [Eh]
	 Same-Spin Energy          =      -0.4127101534689278 [Eh]
	 Opposite-Spin Energy      =      -1.3186422425400610 [Eh]
	 Correlation Energy        =      -1.7313523960089887 [Eh]
	 Total Energy              =    -385.4979807147813062 [Eh]

	 ================> DF-SCS-MP2 Energies <==================
	-----------------------------------------------------------
	 SCS Same-Spin Scale       =       0.3333333333333333 [-]
	 SCS Opposite-Spin Scale   =       1.2000000000000000 [-]
	 SCS Same-Spin Energy      =      -0.1375700511563092 [Eh]
	 SCS Opposite-Spin Energy  =      -1.5823706910480733 [Eh]
	 SCS Correlation Energy    =      -1.7199407422043824 [Eh]
	 SCS Total Energy          =    -385.4865690609766489 [Eh]
	-----------------------------------------------------------

  Dipole Moment: [D]
     X:     0.4568      Y:    -1.2706      Z:    -0.0173     Total:     1.3503

*** Psi4 exiting successfully. Buy a developer a beer!
