                               Psi4 1.3.2 release

  ==> Input File <==

--------------------------------------------------------------------------
#psi4
#
memory 32 gb

molecule  {
0 1
  O       -3.1417080     0.0705380     0.3169670
  C        0.9902420    -0.0039870    -0.3612050
  C        2.4872910    -0.0052090    -0.5397260
  C        0.2806140    -1.2015640    -0.2442060
  C        0.2798770     1.1950560    -0.2368630
  C        3.2312830    -0.0061060     0.7967240
  C       -1.1169877    -1.2185847    -0.0123451
  C       -1.1158996     1.2186761    -0.0057034
  C       -1.7865290     0.0017960     0.1015840
  H        2.7838010    -0.8823900    -1.1265120
  H        2.7835740     0.8731460    -1.1246690
  H        0.8095070    -2.1483250    -0.3363770
  H        0.8092330     2.1418130    -0.3228610
  H        2.9650580     0.8755680     1.3857970
  H        4.3169070    -0.0053560     0.6533480
  H        2.9660240    -0.8892340     1.3840690
  H       -1.6288030    -2.1532140     0.0657430
  H       -1.6431320     2.1402150     0.0795740
  H       -3.4941530    -0.8345020     0.3676020
units angstrom
no_reorient  #important for SAPT in psi4, default
symmetry c1  #important for SAPT in psi4, default
}

set PROPERTIES_ORIGIN ["COM"]
properties('MP2/aug-cc-pvtz', properties = ['dipole'])
--------------------------------------------------------------------------

    Molecular point group: c1
  Charge       = 0
  Multiplicity = 1
  Basis Set: AUG-CC-PVTZ
    Blend: AUG-CC-PVTZ
  Basis Set: (AUG-CC-PVTZ AUX)
    Blend: AUG-CC-PVTZ-JKFIT

    Orbital Energies [Eh]
    ---------------------

    Doubly Occupied:

       1A    -20.587280     2A    -11.299884     3A    -11.241261
       4A    -11.239541     5A    -11.234943     6A    -11.231369
       7A    -11.228655     8A    -11.227424     9A    -11.215327
      10A     -1.397684    11A     -1.147405    12A     -1.057663
      13A     -1.013533    14A     -0.975793    15A     -0.860513
      16A     -0.845516    17A     -0.791685    18A     -0.726923
      19A     -0.670781    20A     -0.650942    21A     -0.613814
      22A     -0.598108    23A     -0.588710    24A     -0.585251
      25A     -0.567241    26A     -0.553087    27A     -0.522660
      28A     -0.501272    29A     -0.480624    30A     -0.479097
      31A     -0.465251    32A     -0.336265    33A     -0.307231

  @DF-RHF Final Energy:  -383.76480245212315

   => Energetics <=

    Nuclear Repulsion Energy =            417.6441326482527643
    One-Electron Energy =               -1348.3324058154694285
    Two-Electron Energy =                 546.9234707150935719
    Total Energy =                       -383.7648024521231491
  Basis Set: (AUG-CC-PVTZ AUX)
    Blend: AUG-CC-PVTZ-RI
    Molecular point group: c1

    Geometry (in Angstrom), charge = 0, multiplicity = 1:

       Center              X                  Y                   Z               Mass
    ------------   -----------------  -----------------  -----------------  -----------------
         O           -3.137602517433     0.070538039109     0.316289419900    15.994914619570
         C            0.994347482567    -0.003986960891    -0.361882580100    12.000000000000
         C            2.491396482567    -0.005208960891    -0.540403580100    12.000000000000
         C            0.284719482567    -1.201563960891    -0.244883580100    12.000000000000
         C            0.283982482567     1.195056039109    -0.237540580100    12.000000000000
         C            3.235388482567    -0.006105960891     0.796046419900    12.000000000000
         C           -1.112882217433    -1.218584660891    -0.013022680100    12.000000000000
         C           -1.111794117433     1.218676139109    -0.006380980100    12.000000000000
         C           -1.782423517433     0.001796039109     0.100906419900    12.000000000000
         H            2.787906482567    -0.882389960891    -1.127189580100     1.007825032230
         H            2.787679482567     0.873146039109    -1.125346580100     1.007825032230
         H            0.813612482567    -2.148324960891    -0.337054580100     1.007825032230
         H            0.813338482567     2.141813039109    -0.323538580100     1.007825032230
         H            2.969163482567     0.875568039109     1.385119419900     1.007825032230
         H            4.321012482567    -0.005355960891     0.652670419900     1.007825032230
         H            2.970129482567    -0.889233960891     1.383391419900     1.007825032230
         H           -1.624697517433    -2.153213960891     0.065065419900     1.007825032230
         H           -1.639026517433     2.140215039109     0.078896419900     1.007825032230
         H           -3.490047517433    -0.834501960891     0.366924419900     1.007825032230

  Basis Set: AUG-CC-PVTZ
    Blend: AUG-CC-PVTZ
  Basis Set: (AUG-CC-PVTZ AUX)
    Blend: AUG-CC-PVTZ-JKFIT
	 Reference Energy          =    -383.7648024521231491 [Eh]
	 Singles Energy            =      -0.0000000000000000 [Eh]
	 Same-Spin Energy          =      -0.4126758563942063 [Eh]
	 Opposite-Spin Energy      =      -1.3189831742161200 [Eh]
	 Correlation Energy        =      -1.7316590306103263 [Eh]
	 Total Energy              =    -385.4964614827334799 [Eh]

	 ================> DF-SCS-MP2 Energies <==================
	-----------------------------------------------------------
	 SCS Same-Spin Scale       =       0.3333333333333333 [-]
	 SCS Opposite-Spin Scale   =       1.2000000000000000 [-]
	 SCS Same-Spin Energy      =      -0.1375586187980688 [Eh]
	 SCS Opposite-Spin Energy  =      -1.5827798090593439 [Eh]
	 SCS Correlation Energy    =      -1.7203384278574128 [Eh]
	 SCS Total Energy          =    -385.4851408799805768 [Eh]
	-----------------------------------------------------------

  Dipole Moment: [D]
     X:     0.4867      Y:    -1.2696      Z:    -0.0204     Total:     1.3599

*** Psi4 exiting successfully. Buy a developer a beer!
