                               Psi4 1.3.2 release

  ==> Input File <==

--------------------------------------------------------------------------
#psi4
#
memory 32 gb

molecule  {
0 1
  O       -3.1417080     0.0705380     0.3169670
  C        0.9695165     0.0083825    -0.3577580
  C        2.4872910    -0.0052090    -0.5397260
  C        0.2806140    -1.2015640    -0.2442060
  C        0.2798770     1.1950560    -0.2368630
  C        3.2312830    -0.0061060     0.7967240
  C       -1.0959436    -1.1821903    -0.0157696
  C       -1.0950530     1.2066380    -0.0091780
  C       -1.7865290     0.0017960     0.1015840
  H        2.7838010    -0.8823900    -1.1265120
  H        2.7835740     0.8731460    -1.1246690
  H        0.8095070    -2.1483250    -0.3363770
  H        0.8092330     2.1418130    -0.3228610
  H        2.9650580     0.8755680     1.3857970
  H        4.3169070    -0.0053560     0.6533480
  H        2.9660240    -0.8892340     1.3840690
  H       -1.6288030    -2.1532140     0.0657430
  H       -1.6431320     2.1402150     0.0795740
  H       -3.4941530    -0.8345020     0.3676020
units angstrom
no_reorient  #important for SAPT in psi4, default
symmetry c1  #important for SAPT in psi4, default
}

set PROPERTIES_ORIGIN ["COM"]
properties('MP2/aug-cc-pvtz', properties = ['dipole'])
--------------------------------------------------------------------------

    Molecular point group: c1
  Charge       = 0
  Multiplicity = 1
  Basis Set: AUG-CC-PVTZ
    Blend: AUG-CC-PVTZ
  Basis Set: (AUG-CC-PVTZ AUX)
    Blend: AUG-CC-PVTZ-JKFIT

    Orbital Energies [Eh]
    ---------------------

    Doubly Occupied:

       1A    -20.588789     2A    -11.296246     3A    -11.238102
       4A    -11.234515     5A    -11.233501     6A    -11.229865
       7A    -11.228344     8A    -11.227661     9A    -11.215037
      10A     -1.398200    11A     -1.154587    12A     -1.056675
      13A     -1.017248    14A     -0.978171    15A     -0.859432
      16A     -0.844490    17A     -0.791898    18A     -0.729161
      19A     -0.672839    20A     -0.643308    21A     -0.612353
      22A     -0.595624    23A     -0.588522    24A     -0.586359
      25A     -0.569490    26A     -0.555320    27A     -0.522200
      28A     -0.499193    29A     -0.480620    30A     -0.472803
      31A     -0.470655    32A     -0.340892    33A     -0.308854

  @DF-RHF Final Energy:  -383.76566355131456

   => Energetics <=

    Nuclear Repulsion Energy =            418.8889960686877885
    One-Electron Energy =               -1350.8274128098960318
    Two-Electron Energy =                 548.1727531898936832
    Total Energy =                       -383.7656635513145602
  Basis Set: (AUG-CC-PVTZ AUX)
    Blend: AUG-CC-PVTZ-RI
    Molecular point group: c1

    Geometry (in Angstrom), charge = 0, multiplicity = 1:

       Center              X                  Y                   Z               Mass
    ------------   -----------------  -----------------  -----------------  -----------------
         O           -3.139683092636     0.066927830426     0.316628767209    15.994914619570
         C            0.971541407364     0.004772330426    -0.358096232791    12.000000000000
         C            2.489315907364    -0.008819169574    -0.540064232791    12.000000000000
         C            0.282638907364    -1.205174169574    -0.244544232791    12.000000000000
         C            0.281901907364     1.191445830426    -0.237201232791    12.000000000000
         C            3.233307907364    -0.009716169574     0.796385767209    12.000000000000
         C           -1.093918692636    -1.185800469574    -0.016107832791    12.000000000000
         C           -1.093028092636     1.203027830426    -0.009516232791    12.000000000000
         C           -1.784504092636    -0.001814169574     0.101245767209    12.000000000000
         H            2.785825907364    -0.886000169574    -1.126850232791     1.007825032230
         H            2.785598907364     0.869535830426    -1.125007232791     1.007825032230
         H            0.811531907364    -2.151935169574    -0.336715232791     1.007825032230
         H            0.811257907364     2.138202830426    -0.323199232791     1.007825032230
         H            2.967082907364     0.871957830426     1.385458767209     1.007825032230
         H            4.318931907364    -0.008966169574     0.653009767209     1.007825032230
         H            2.968048907364    -0.892844169574     1.383730767209     1.007825032230
         H           -1.626778092636    -2.156824169574     0.065404767209     1.007825032230
         H           -1.641107092636     2.136604830426     0.079235767209     1.007825032230
         H           -3.492128092636    -0.838112169574     0.367263767209     1.007825032230

  Basis Set: AUG-CC-PVTZ
    Blend: AUG-CC-PVTZ
  Basis Set: (AUG-CC-PVTZ AUX)
    Blend: AUG-CC-PVTZ-JKFIT
	 Reference Energy          =    -383.7656635513145602 [Eh]
	 Singles Energy            =      -0.0000000000000000 [Eh]
	 Same-Spin Energy          =      -0.4126537244452531 [Eh]
	 Opposite-Spin Energy      =      -1.3184402283158909 [Eh]
	 Correlation Energy        =      -1.7310939527611440 [Eh]
	 Total Energy              =    -385.4967575040757310 [Eh]

	 ================> DF-SCS-MP2 Energies <==================
	-----------------------------------------------------------
	 SCS Same-Spin Scale       =       0.3333333333333333 [-]
	 SCS Opposite-Spin Scale   =       1.2000000000000000 [-]
	 SCS Same-Spin Energy      =      -0.1375512414817510 [Eh]
	 SCS Opposite-Spin Energy  =      -1.5821282739790690 [Eh]
	 SCS Correlation Energy    =      -1.7196795154608200 [Eh]
	 SCS Total Energy          =    -385.4853430667753855 [Eh]
	-----------------------------------------------------------

  Dipole Moment: [D]
     X:     0.4776      Y:    -1.2777      Z:    -0.0243     Total:     1.3642

*** Psi4 exiting successfully. Buy a developer a beer!
