                               Psi4 1.3.2 release

  ==> Input File <==

--------------------------------------------------------------------------
#psi4
#
memory 32 gb

molecule  {
0 1
  O       -3.1417080     0.0705380     0.3169670
  C        0.9902420    -0.0039870    -0.3612050
  C        2.4872910    -0.0052090    -0.5397260
  C        0.2806140    -1.2015640    -0.2442060
  C        0.2798770     1.1950560    -0.2368630
  C        3.2312830    -0.0061060     0.7967240
  C       -1.0960700    -1.2065460    -0.0157640
  C       -1.0950530     1.2066380    -0.0091780
  C       -1.7444586     0.0255010     0.0949018
  H        2.7838010    -0.8823900    -1.1265120
  H        2.7835740     0.8731460    -1.1246690
  H        0.8095070    -2.1483250    -0.3363770
  H        0.8092330     2.1418130    -0.3228610
  H        2.9650580     0.8755680     1.3857970
  H        4.3169070    -0.0053560     0.6533480
  H        2.9660240    -0.8892340     1.3840690
  H       -1.5958769    -2.1714449     0.0603364
  H       -1.6431320     2.1402150     0.0795740
  H       -3.4941530    -0.8345020     0.3676020
units angstrom
no_reorient  #important for SAPT in psi4, default
symmetry c1  #important for SAPT in psi4, default
}

set PROPERTIES_ORIGIN ["COM"]
properties('MP2/aug-cc-pvtz', properties = ['dipole'])
--------------------------------------------------------------------------

    Molecular point group: c1
  Charge       = 0
  Multiplicity = 1
  Basis Set: AUG-CC-PVTZ
    Blend: AUG-CC-PVTZ
  Basis Set: (AUG-CC-PVTZ AUX)
    Blend: AUG-CC-PVTZ-JKFIT

    Orbital Energies [Eh]
    ---------------------

    Doubly Occupied:

       1A    -20.580343     2A    -11.296251     3A    -11.239072
       4A    -11.237794     5A    -11.236968     6A    -11.232799
       7A    -11.228268     8A    -11.225917     9A    -11.216286
      10A     -1.376643    11A     -1.156494    12A     -1.061676
      13A     -1.021313    14A     -0.977493    15A     -0.862426
      16A     -0.843137    17A     -0.790952    18A     -0.721860
      19A     -0.668767    20A     -0.647949    21A     -0.613917
      22A     -0.598224    23A     -0.589672    24A     -0.577383
      25A     -0.569065    26A     -0.547222    27A     -0.523043
      28A     -0.503001    29A     -0.481110    30A     -0.479210
      31A     -0.470125    32A     -0.342647    33A     -0.311604

  @DF-RHF Final Energy:  -383.76321469289257

   => Energetics <=

    Nuclear Repulsion Energy =            418.6197828073119922
    One-Electron Energy =               -1350.3087315651769131
    Two-Electron Energy =                 547.9257340649722892
    Total Energy =                       -383.7632146928925749
  Basis Set: (AUG-CC-PVTZ AUX)
    Blend: AUG-CC-PVTZ-RI
    Molecular point group: c1

    Geometry (in Angstrom), charge = 0, multiplicity = 1:

       Center              X                  Y                   Z               Mass
    ------------   -----------------  -----------------  -----------------  -----------------
         O           -3.146115446120     0.068358250924     0.317668570730    15.994914619570
         C            0.985834553880    -0.006166749076    -0.360503429270    12.000000000000
         C            2.482883553880    -0.007388749076    -0.539024429270    12.000000000000
         C            0.276206553880    -1.203743749076    -0.243504429270    12.000000000000
         C            0.275469553880     1.192876250924    -0.236161429270    12.000000000000
         C            3.226875553880    -0.008285749076     0.797425570730    12.000000000000
         C           -1.100477446120    -1.208725749076    -0.015062429270    12.000000000000
         C           -1.099460446120     1.204458250924    -0.008476429270    12.000000000000
         C           -1.748866046120     0.023321250924     0.095603370730    12.000000000000
         H            2.779393553880    -0.884569749076    -1.125810429270     1.007825032230
         H            2.779166553880     0.870966250924    -1.123967429270     1.007825032230
         H            0.805099553880    -2.150504749076    -0.335675429270     1.007825032230
         H            0.804825553880     2.139633250924    -0.322159429270     1.007825032230
         H            2.960650553880     0.873388250924     1.386498570730     1.007825032230
         H            4.312499553880    -0.007535749076     0.654049570730     1.007825032230
         H            2.961616553880    -0.891413749076     1.384770570730     1.007825032230
         H           -1.600284346120    -2.173624649076     0.061037970730     1.007825032230
         H           -1.647539446120     2.138035250924     0.080275570730     1.007825032230
         H           -3.498560446120    -0.836681749076     0.368303570730     1.007825032230

  Basis Set: AUG-CC-PVTZ
    Blend: AUG-CC-PVTZ
  Basis Set: (AUG-CC-PVTZ AUX)
    Blend: AUG-CC-PVTZ-JKFIT
	 Reference Energy          =    -383.7632146928925749 [Eh]
	 Singles Energy            =      -0.0000000000000000 [Eh]
	 Same-Spin Energy          =      -0.4127205485992715 [Eh]
	 Opposite-Spin Energy      =      -1.3190278346064537 [Eh]
	 Correlation Energy        =      -1.7317483832057252 [Eh]
	 Total Energy              =    -385.4949630760983155 [Eh]

	 ================> DF-SCS-MP2 Energies <==================
	-----------------------------------------------------------
	 SCS Same-Spin Scale       =       0.3333333333333333 [-]
	 SCS Opposite-Spin Scale   =       1.2000000000000000 [-]
	 SCS Same-Spin Energy      =      -0.1375735161997572 [Eh]
	 SCS Opposite-Spin Energy  =      -1.5828334015277443 [Eh]
	 SCS Correlation Energy    =      -1.7204069177275014 [Eh]
	 SCS Total Energy          =    -385.4836216106200482 [Eh]
	-----------------------------------------------------------

  Dipole Moment: [D]
     X:     0.7777      Y:    -1.2695      Z:    -0.0649     Total:     1.4902

*** Psi4 exiting successfully. Buy a developer a beer!
