                               Psi4 1.3.2 release

  ==> Input File <==

--------------------------------------------------------------------------
#psi4
#
memory 32 gb

molecule  {
0 1
  O       -3.1417080     0.0705380     0.3169670
  C        0.9902420    -0.0039870    -0.3612050
  C        2.4872910    -0.0052090    -0.5397260
  C        0.2806140    -1.2015640    -0.2442060
  C        0.2798770     1.1950560    -0.2368630
  C        3.2312830    -0.0061060     0.7967240
  C       -1.0960700    -1.2065460    -0.0157640
  C       -1.0950530     1.2066380    -0.0091780
  C       -1.7871839    -0.0101756     0.1016181
  H        2.7838010    -0.8823900    -1.1265120
  H        2.7835740     0.8731460    -1.1246690
  H        0.8095070    -2.1483250    -0.3363770
  H        0.8092330     2.1418130    -0.3228610
  H        2.9650580     0.8755680     1.3857970
  H        4.3169070    -0.0053560     0.6533480
  H        2.9660240    -0.8892340     1.3840690
  H       -1.6288030    -2.1532140     0.0657430
  H       -1.6431320     2.1402150     0.0795740
  H       -3.4863419    -0.8375744     0.3663450
units angstrom
no_reorient  #important for SAPT in psi4, default
symmetry c1  #important for SAPT in psi4, default
}

set PROPERTIES_ORIGIN ["COM"]
properties('MP2/aug-cc-pvtz', properties = ['dipole'])
--------------------------------------------------------------------------

    Molecular point group: c1
  Charge       = 0
  Multiplicity = 1
  Basis Set: AUG-CC-PVTZ
    Blend: AUG-CC-PVTZ
  Basis Set: (AUG-CC-PVTZ AUX)
    Blend: AUG-CC-PVTZ-JKFIT

    Orbital Energies [Eh]
    ---------------------

    Doubly Occupied:

       1A    -20.590065     2A    -11.299290     3A    -11.238096
       4A    -11.236251     5A    -11.233667     6A    -11.231018
       7A    -11.229399     8A    -11.227091     9A    -11.215270
      10A     -1.399434    11A     -1.151096    12A     -1.058011
      13A     -1.016657    14A     -0.975608    15A     -0.861206
      16A     -0.843492    17A     -0.791344    18A     -0.727644
      19A     -0.673098    20A     -0.646254    21A     -0.612631
      22A     -0.596121    23A     -0.587730    24A     -0.586230
      25A     -0.569071    26A     -0.556695    27A     -0.523392
      28A     -0.498247    29A     -0.479978    30A     -0.478170
      31A     -0.468302    32A     -0.340650    33A     -0.305791

  @DF-RHF Final Energy:  -383.76645167765787

   => Energetics <=

    Nuclear Repulsion Energy =            418.3332596395200085
    One-Electron Energy =               -1349.7054306056134010
    Two-Electron Energy =                 547.6057192884354663
    Total Energy =                       -383.7664516776578694
  Basis Set: (AUG-CC-PVTZ AUX)
    Blend: AUG-CC-PVTZ-RI
    Molecular point group: c1

    Geometry (in Angstrom), charge = 0, multiplicity = 1:

       Center              X                  Y                   Z               Mass
    ------------   -----------------  -----------------  -----------------  -----------------
         O           -3.141708129197     0.071740174252     0.316974088280    15.994914619570
         C            0.990241870803    -0.002784825748    -0.361197911720    12.000000000000
         C            2.487290870803    -0.004006825748    -0.539718911720    12.000000000000
         C            0.280613870803    -1.200361825748    -0.244198911720    12.000000000000
         C            0.279876870803     1.196258174252    -0.236855911720    12.000000000000
         C            3.231282870803    -0.004903825748     0.796731088280    12.000000000000
         C           -1.096070129197    -1.205343825748    -0.015756911720    12.000000000000
         C           -1.095053129197     1.207840174252    -0.009170911720    12.000000000000
         C           -1.787184029197    -0.008973425748     0.101625188280    12.000000000000
         H            2.783800870803    -0.881187825748    -1.126504911720     1.007825032230
         H            2.783573870803     0.874348174252    -1.124661911720     1.007825032230
         H            0.809506870803    -2.147122825748    -0.336369911720     1.007825032230
         H            0.809232870803     2.143015174252    -0.322853911720     1.007825032230
         H            2.965057870803     0.876770174252     1.385804088280     1.007825032230
         H            4.316906870803    -0.004153825748     0.653355088280     1.007825032230
         H            2.966023870803    -0.888031825748     1.384076088280     1.007825032230
         H           -1.628803129197    -2.152011825748     0.065750088280     1.007825032230
         H           -1.643132129197     2.141417174252     0.079581088280     1.007825032230
         H           -3.486342029197    -0.836372225748     0.366352088280     1.007825032230

  Basis Set: AUG-CC-PVTZ
    Blend: AUG-CC-PVTZ
  Basis Set: (AUG-CC-PVTZ AUX)
    Blend: AUG-CC-PVTZ-JKFIT
	 Reference Energy          =    -383.7664516776578694 [Eh]
	 Singles Energy            =      -0.0000000000000000 [Eh]
	 Same-Spin Energy          =      -0.4127762115705607 [Eh]
	 Opposite-Spin Energy      =      -1.3188408504783964 [Eh]
	 Correlation Energy        =      -1.7316170620489570 [Eh]
	 Total Energy              =    -385.4980687397068095 [Eh]

	 ================> DF-SCS-MP2 Energies <==================
	-----------------------------------------------------------
	 SCS Same-Spin Scale       =       0.3333333333333333 [-]
	 SCS Opposite-Spin Scale   =       1.2000000000000000 [-]
	 SCS Same-Spin Energy      =      -0.1375920705235202 [Eh]
	 SCS Opposite-Spin Energy  =      -1.5826090205740757 [Eh]
	 SCS Correlation Energy    =      -1.7202010910975960 [Eh]
	 SCS Total Energy          =    -385.4866527687554481 [Eh]
	-----------------------------------------------------------

  Dipole Moment: [D]
     X:     0.4717      Y:    -1.2740      Z:    -0.0195     Total:     1.3587

*** Psi4 exiting successfully. Buy a developer a beer!
