                               Psi4 1.3.2 release

  ==> Input File <==

--------------------------------------------------------------------------
#psi4
#
memory 32 gb

molecule  {
0 1
  O       -3.1417080     0.0705380     0.3169670
  C        0.9902420    -0.0039870    -0.3612050
  C        2.4872910    -0.0052090    -0.5397260
  C        0.2806140    -1.2015640    -0.2442060
  C        0.2798770     1.1950560    -0.2368630
  C        3.2312830    -0.0061060     0.7967240
  C       -1.0960700    -1.2065460    -0.0157640
  C       -1.0950530     1.2066380    -0.0091780
  C       -1.8277582    -0.0233812     0.1081232
  H        2.7838010    -0.8823900    -1.1265120
  H        2.7835740     0.8731460    -1.1246690
  H        0.8095070    -2.1483250    -0.3363770
  H        0.8092330     2.1418130    -0.3228610
  H        2.9650580     0.8755680     1.3857970
  H        4.3169070    -0.0053560     0.6533480
  H        2.9660240    -0.8892340     1.3840690
  H       -1.6610800    -2.1338297     0.0710503
  H       -1.6431320     2.1402150     0.0795740
  H       -3.4941530    -0.8345020     0.3676020
units angstrom
no_reorient  #important for SAPT in psi4, default
symmetry c1  #important for SAPT in psi4, default
}

set PROPERTIES_ORIGIN ["COM"]
properties('MP2/aug-cc-pvtz', properties = ['dipole'])
--------------------------------------------------------------------------

    Molecular point group: c1
  Charge       = 0
  Multiplicity = 1
  Basis Set: AUG-CC-PVTZ
    Blend: AUG-CC-PVTZ
  Basis Set: (AUG-CC-PVTZ AUX)
    Blend: AUG-CC-PVTZ-JKFIT

    Orbital Energies [Eh]
    ---------------------

    Doubly Occupied:

       1A    -20.598599     2A    -11.302923     3A    -11.237374
       4A    -11.234921     5A    -11.232465     6A    -11.230092
       7A    -11.228997     8A    -11.225840     9A    -11.214184
      10A     -1.422117    11A     -1.146293    12A     -1.054708
      13A     -1.012603    14A     -0.973628    15A     -0.861670
      16A     -0.843174    17A     -0.793080    18A     -0.733810
      19A     -0.676700    20A     -0.646040    21A     -0.611941
      22A     -0.600347    23A     -0.597164    24A     -0.580497
      25A     -0.568634    26A     -0.561795    27A     -0.523048
      28A     -0.492702    29A     -0.479550    30A     -0.474073
      31A     -0.465954    32A     -0.339055    33A     -0.299761

  @DF-RHF Final Energy:  -383.76334314704405

   => Energetics <=

    Nuclear Repulsion Energy =            418.0797501555255167
    One-Electron Energy =               -1349.1587061530258325
    Two-Electron Energy =                 547.3156128504562048
    Total Energy =                       -383.7633431470441110
  Basis Set: (AUG-CC-PVTZ AUX)
    Blend: AUG-CC-PVTZ-RI
    Molecular point group: c1

    Geometry (in Angstrom), charge = 0, multiplicity = 1:

       Center              X                  Y                   Z               Mass
    ------------   -----------------  -----------------  -----------------  -----------------
         O           -3.137388642675     0.072852906733     0.316280431603    15.994914619570
         C            0.994561357325    -0.001672093267    -0.361891568397    12.000000000000
         C            2.491610357325    -0.002894093267    -0.540412568397    12.000000000000
         C            0.284933357325    -1.199249093267    -0.244892568397    12.000000000000
         C            0.284196357325     1.197370906733    -0.237549568397    12.000000000000
         C            3.235602357325    -0.003791093267     0.796037431603    12.000000000000
         C           -1.091750642675    -1.204231093267    -0.016450568397    12.000000000000
         C           -1.090733642675     1.208952906733    -0.009864568397    12.000000000000
         C           -1.823438842675    -0.021066293267     0.107436631603    12.000000000000
         H            2.788120357325    -0.880075093267    -1.127198568397     1.007825032230
         H            2.787893357325     0.875460906733    -1.125355568397     1.007825032230
         H            0.813826357325    -2.146010093267    -0.337063568397     1.007825032230
         H            0.813552357325     2.144127906733    -0.323547568397     1.007825032230
         H            2.969377357325     0.877882906733     1.385110431603     1.007825032230
         H            4.321226357325    -0.003041093267     0.652661431603     1.007825032230
         H            2.970343357325    -0.886919093267     1.383382431603     1.007825032230
         H           -1.656760642675    -2.131514793267     0.070363731603     1.007825032230
         H           -1.638812642675     2.142529906733     0.078887431603     1.007825032230
         H           -3.489833642675    -0.832187093267     0.366915431603     1.007825032230

  Basis Set: AUG-CC-PVTZ
    Blend: AUG-CC-PVTZ
  Basis Set: (AUG-CC-PVTZ AUX)
    Blend: AUG-CC-PVTZ-JKFIT
	 Reference Energy          =    -383.7633431470440541 [Eh]
	 Singles Energy            =      -0.0000000000000000 [Eh]
	 Same-Spin Energy          =      -0.4128932828803112 [Eh]
	 Opposite-Spin Energy      =      -1.3188185142880551 [Eh]
	 Correlation Energy        =      -1.7317117971683662 [Eh]
	 Total Energy              =    -385.4950549442124270 [Eh]

	 ================> DF-SCS-MP2 Energies <==================
	-----------------------------------------------------------
	 SCS Same-Spin Scale       =       0.3333333333333333 [-]
	 SCS Opposite-Spin Scale   =       1.2000000000000000 [-]
	 SCS Same-Spin Energy      =      -0.1376310942934371 [Eh]
	 SCS Opposite-Spin Energy  =      -1.5825822171456660 [Eh]
	 SCS Correlation Energy    =      -1.7202133114391032 [Eh]
	 SCS Total Energy          =    -385.4835564584831786 [Eh]
	-----------------------------------------------------------

  Dipole Moment: [D]
     X:     0.1518      Y:    -1.2674      Z:     0.0279     Total:     1.2767

*** Psi4 exiting successfully. Buy a developer a beer!
