                               Psi4 1.3.2 release

  ==> Input File <==

--------------------------------------------------------------------------
#psi4
#
memory 32 gb

molecule  {
0 1
  O       -3.1432466     0.0226075     0.3172450
  C        0.9902420    -0.0039870    -0.3612050
  C        2.4872910    -0.0052090    -0.5397260
  C        0.2806140    -1.2015640    -0.2442060
  C        0.2798770     1.1950560    -0.2368630
  C        3.2312830    -0.0061060     0.7967240
  C       -1.0960700    -1.2065460    -0.0157640
  C       -1.0539446     1.1814643    -0.0156954
  C       -1.7865290     0.0017960     0.1015840
  H        2.7838010    -0.8823900    -1.1265120
  H        2.7835740     0.8731460    -1.1246690
  H        0.8095070    -2.1483250    -0.3363770
  H        0.8092330     2.1418130    -0.3228610
  H        2.9650580     0.8755680     1.3857970
  H        4.3169070    -0.0053560     0.6533480
  H        2.9660240    -0.8892340     1.3840690
  H       -1.6288030    -2.1532140     0.0657430
  H       -1.6431320     2.1402150     0.0795740
  H       -3.4941530    -0.8345020     0.3676020
units angstrom
no_reorient  #important for SAPT in psi4, default
symmetry c1  #important for SAPT in psi4, default
}

set PROPERTIES_ORIGIN ["COM"]
properties('MP2/aug-cc-pvtz', properties = ['dipole'])
--------------------------------------------------------------------------

    Molecular point group: c1
  Charge       = 0
  Multiplicity = 1
  Basis Set: AUG-CC-PVTZ
    Blend: AUG-CC-PVTZ
  Basis Set: (AUG-CC-PVTZ AUX)
    Blend: AUG-CC-PVTZ-JKFIT

    Orbital Energies [Eh]
    ---------------------

    Doubly Occupied:

       1A    -20.585424     2A    -11.300344     3A    -11.236340
       4A    -11.233249     5A    -11.232390     6A    -11.230773
       7A    -11.229324     8A    -11.226914     9A    -11.215352
      10A     -1.407139    11A     -1.156043    12A     -1.059303
      13A     -1.020313    14A     -0.977388    15A     -0.866212
      16A     -0.839875    17A     -0.794228    18A     -0.739378
      19A     -0.671955    20A     -0.646826    21A     -0.616374
      22A     -0.594107    23A     -0.588894    24A     -0.583616
      25A     -0.574226    26A     -0.553377    27A     -0.524167
      28A     -0.495304    29A     -0.480665    30A     -0.472880
      31A     -0.471644    32A     -0.345162    33A     -0.305040

  @DF-RHF Final Energy:  -383.76415210921482

   => Energetics <=

    Nuclear Repulsion Energy =            419.2293564311479486
    One-Electron Energy =               -1351.4385642619854480
    Two-Electron Energy =                 548.4450557216226798
    Total Energy =                       -383.7641521092148196
  Basis Set: (AUG-CC-PVTZ AUX)
    Blend: AUG-CC-PVTZ-RI
    Molecular point group: c1

    Geometry (in Angstrom), charge = 0, multiplicity = 1:

       Center              X                  Y                   Z               Mass
    ------------   -----------------  -----------------  -----------------  -----------------
         O           -3.147086046401     0.031362300696     0.317849308625    15.994914619570
         C            0.986402553599     0.004767800696    -0.360600691375    12.000000000000
         C            2.483451553599     0.003545800696    -0.539121691375    12.000000000000
         C            0.276774553599    -1.192809199304    -0.243601691375    12.000000000000
         C            0.276037553599     1.203810800696    -0.236258691375    12.000000000000
         C            3.227443553599     0.002648800696     0.797328308625    12.000000000000
         C           -1.099909446401    -1.197791199304    -0.015159691375    12.000000000000
         C           -1.057784046401     1.190219100696    -0.015091091375    12.000000000000
         C           -1.790368446401     0.010550800696     0.102188308625    12.000000000000
         H            2.779961553599    -0.873635199304    -1.125907691375     1.007825032230
         H            2.779734553599     0.881900800696    -1.124064691375     1.007825032230
         H            0.805667553599    -2.139570199304    -0.335772691375     1.007825032230
         H            0.805393553599     2.150567800696    -0.322256691375     1.007825032230
         H            2.961218553599     0.884322800696     1.386401308625     1.007825032230
         H            4.313067553599     0.003398800696     0.653952308625     1.007825032230
         H            2.962184553599    -0.880479199304     1.384673308625     1.007825032230
         H           -1.632642446401    -2.144459199304     0.066347308625     1.007825032230
         H           -1.646971446401     2.148969800696     0.080178308625     1.007825032230
         H           -3.497992446401    -0.825747199304     0.368206308625     1.007825032230

  Basis Set: AUG-CC-PVTZ
    Blend: AUG-CC-PVTZ
  Basis Set: (AUG-CC-PVTZ AUX)
    Blend: AUG-CC-PVTZ-JKFIT
	 Reference Energy          =    -383.7641521092148196 [Eh]
	 Singles Energy            =      -0.0000000000000000 [Eh]
	 Same-Spin Energy          =      -0.4121938287353140 [Eh]
	 Opposite-Spin Energy      =      -1.3170981318033581 [Eh]
	 Correlation Energy        =      -1.7292919605386721 [Eh]
	 Total Energy              =    -385.4934440697534797 [Eh]

	 ================> DF-SCS-MP2 Energies <==================
	-----------------------------------------------------------
	 SCS Same-Spin Scale       =       0.3333333333333333 [-]
	 SCS Opposite-Spin Scale   =       1.2000000000000000 [-]
	 SCS Same-Spin Energy      =      -0.1373979429117713 [Eh]
	 SCS Opposite-Spin Energy  =      -1.5805177581640297 [Eh]
	 SCS Correlation Energy    =      -1.7179157010758010 [Eh]
	 SCS Total Energy          =    -385.4820678102906300 [Eh]
	-----------------------------------------------------------

  Dipole Moment: [D]
     X:     0.4847      Y:    -1.2300      Z:    -0.0227     Total:     1.3223

*** Psi4 exiting successfully. Buy a developer a beer!
