                               Psi4 1.3.2 release

  ==> Input File <==

--------------------------------------------------------------------------
#psi4
#
memory 32 gb

molecule  {
0 1
  O       -3.1417080     0.0705380     0.3169670
  C        0.9902420    -0.0039870    -0.3612050
  C        2.4872910    -0.0052090    -0.5397260
  C        0.2806140    -1.2015640    -0.2442060
  C        0.2798770     1.1950560    -0.2368630
  C        3.2312830    -0.0061060     0.7967240
  C       -1.0960700    -1.2065460    -0.0157640
  C       -1.0950530     1.2066380    -0.0091780
  C       -1.7849419     0.0497258     0.1016116
  H        2.7838010    -0.8823900    -1.1265120
  H        2.7835740     0.8731460    -1.1246690
  H        0.8095070    -2.1483250    -0.3363770
  H        0.8092330     2.1418130    -0.3228610
  H        2.9650580     0.8755680     1.3857970
  H        4.3169070    -0.0053560     0.6533480
  H        2.9660240    -0.8892340     1.3840690
  H       -1.6288030    -2.1532140     0.0657430
  H       -1.6431320     2.1402150     0.0795740
  H       -3.5251230    -0.8215258     0.3725906
units angstrom
no_reorient  #important for SAPT in psi4, default
symmetry c1  #important for SAPT in psi4, default
}

set PROPERTIES_ORIGIN ["COM"]
properties('MP2/aug-cc-pvtz', properties = ['dipole'])
--------------------------------------------------------------------------

    Molecular point group: c1
  Charge       = 0
  Multiplicity = 1
  Basis Set: AUG-CC-PVTZ
    Blend: AUG-CC-PVTZ
  Basis Set: (AUG-CC-PVTZ AUX)
    Blend: AUG-CC-PVTZ-JKFIT

    Orbital Energies [Eh]
    ---------------------

    Doubly Occupied:

       1A    -20.586584     2A    -11.299247     3A    -11.239044
       4A    -11.237643     5A    -11.236481     6A    -11.230801
       7A    -11.226997     8A    -11.222867     9A    -11.215189
      10A     -1.395021    11A     -1.151408    12A     -1.058999
      13A     -1.016937    14A     -0.975606    15A     -0.864083
      16A     -0.839155    17A     -0.791649    18A     -0.732043
      19A     -0.668538    20A     -0.649315    21A     -0.614606
      22A     -0.596751    23A     -0.587392    24A     -0.583524
      25A     -0.570969    26A     -0.550063    27A     -0.523315
      28A     -0.496542    29A     -0.480486    30A     -0.475960
      31A     -0.467871    32A     -0.341168    33A     -0.305485

  @DF-RHF Final Energy:  -383.76372959677332

   => Energetics <=

    Nuclear Repulsion Energy =            418.2916550781491765
    One-Electron Energy =               -1349.6472845330679320
    Two-Electron Energy =                 547.5918998581454389
    Total Energy =                       -383.7637295967732598
  Basis Set: (AUG-CC-PVTZ AUX)
    Blend: AUG-CC-PVTZ-RI
    Molecular point group: c1

    Geometry (in Angstrom), charge = 0, multiplicity = 1:

       Center              X                  Y                   Z               Mass
    ------------   -----------------  -----------------  -----------------  -----------------
         O           -3.141608348354     0.065719268829     0.316923164131    15.994914619570
         C            0.990341651646    -0.008805731171    -0.361248835869    12.000000000000
         C            2.487390651646    -0.010027731171    -0.539769835869    12.000000000000
         C            0.280713651646    -1.206382731171    -0.244249835869    12.000000000000
         C            0.279976651646     1.190237268829    -0.236906835869    12.000000000000
         C            3.231382651646    -0.010924731171     0.796680164131    12.000000000000
         C           -1.095970348354    -1.211364731171    -0.015807835869    12.000000000000
         C           -1.094953348354     1.201819268829    -0.009221835869    12.000000000000
         C           -1.784842248354     0.044907068829     0.101567764131    12.000000000000
         H            2.783900651646    -0.887208731171    -1.126555835869     1.007825032230
         H            2.783673651646     0.868327268829    -1.124712835869     1.007825032230
         H            0.809606651646    -2.153143731171    -0.336420835869     1.007825032230
         H            0.809332651646     2.136994268829    -0.322904835869     1.007825032230
         H            2.965157651646     0.870749268829     1.385753164131     1.007825032230
         H            4.317006651646    -0.010174731171     0.653304164131     1.007825032230
         H            2.966123651646    -0.894052731171     1.384025164131     1.007825032230
         H           -1.628703348354    -2.158032731171     0.065699164131     1.007825032230
         H           -1.643032348354     2.135396268829     0.079530164131     1.007825032230
         H           -3.525023348354    -0.826344531171     0.372546764131     1.007825032230

  Basis Set: AUG-CC-PVTZ
    Blend: AUG-CC-PVTZ
  Basis Set: (AUG-CC-PVTZ AUX)
    Blend: AUG-CC-PVTZ-JKFIT
	 Reference Energy          =    -383.7637295967733166 [Eh]
	 Singles Energy            =      -0.0000000000000000 [Eh]
	 Same-Spin Energy          =      -0.4125412216812154 [Eh]
	 Opposite-Spin Energy      =      -1.3184737123552526 [Eh]
	 Correlation Energy        =      -1.7310149340364680 [Eh]
	 Total Energy              =    -385.4947445308097826 [Eh]

	 ================> DF-SCS-MP2 Energies <==================
	-----------------------------------------------------------
	 SCS Same-Spin Scale       =       0.3333333333333333 [-]
	 SCS Opposite-Spin Scale   =       1.2000000000000000 [-]
	 SCS Same-Spin Energy      =      -0.1375137405604051 [Eh]
	 SCS Opposite-Spin Energy  =      -1.5821684548263031 [Eh]
	 SCS Correlation Energy    =      -1.7196821953867083 [Eh]
	 SCS Total Energy          =    -385.4834117921600409 [Eh]
	-----------------------------------------------------------

  Dipole Moment: [D]
     X:     0.4349      Y:    -1.2636      Z:    -0.0138     Total:     1.3365

*** Psi4 exiting successfully. Buy a developer a beer!
