                               Psi4 1.3.2 release

  ==> Input File <==

--------------------------------------------------------------------------
#psi4
#
memory 32 gb

molecule  {
0 1
  O       -3.1417080     0.0705380     0.3169670
  C        0.9902420    -0.0039870    -0.3612050
  C        2.4872910    -0.0052090    -0.5397260
  C        0.2601231    -1.1888299    -0.2406851
  C        0.2593485     1.1822875    -0.2334125
  C        3.2312830    -0.0061060     0.7967240
  C       -1.0960700    -1.2065460    -0.0157640
  C       -1.0950530     1.2066380    -0.0091780
  C       -1.7865290     0.0017960     0.1015840
  H        2.7838010    -0.8823900    -1.1265120
  H        2.7835740     0.8731460    -1.1246690
  H        0.8095070    -2.1483250    -0.3363770
  H        0.8092330     2.1418130    -0.3228610
  H        2.9650580     0.8755680     1.3857970
  H        4.3169070    -0.0053560     0.6533480
  H        2.9660240    -0.8892340     1.3840690
  H       -1.6288030    -2.1532140     0.0657430
  H       -1.6431320     2.1402150     0.0795740
  H       -3.4941530    -0.8345020     0.3676020
units angstrom
no_reorient  #important for SAPT in psi4, default
symmetry c1  #important for SAPT in psi4, default
}

set PROPERTIES_ORIGIN ["COM"]
properties('MP2/aug-cc-pvtz', properties = ['dipole'])
--------------------------------------------------------------------------

    Molecular point group: c1
  Charge       = 0
  Multiplicity = 1
  Basis Set: AUG-CC-PVTZ
    Blend: AUG-CC-PVTZ
  Basis Set: (AUG-CC-PVTZ AUX)
    Blend: AUG-CC-PVTZ-JKFIT

    Orbital Energies [Eh]
    ---------------------

    Doubly Occupied:

       1A    -20.589785     2A    -11.299703     3A    -11.237488
       4A    -11.235604     5A    -11.232034     6A    -11.229996
       7A    -11.228104     8A    -11.225311     9A    -11.215454
      10A     -1.398926    11A     -1.154737    12A     -1.058680
      13A     -1.020542    14A     -0.975599    15A     -0.862509
      16A     -0.839382    17A     -0.793818    18A     -0.727287
      19A     -0.674129    20A     -0.646476    21A     -0.609437
      22A     -0.595004    23A     -0.587830    24A     -0.584577
      25A     -0.571520    26A     -0.555916    27A     -0.524306
      28A     -0.494291    29A     -0.483453    30A     -0.474344
      31A     -0.471023    32A     -0.344976    33A     -0.304482

  @DF-RHF Final Energy:  -383.76556783044163

   => Energetics <=

    Nuclear Repulsion Energy =            418.9529174237198390
    One-Electron Energy =               -1350.9435241061603392
    Two-Electron Energy =                 548.2250388519988746
    Total Energy =                       -383.7655678304416824
  Basis Set: (AUG-CC-PVTZ AUX)
    Blend: AUG-CC-PVTZ-RI
    Molecular point group: c1

    Geometry (in Angstrom), charge = 0, multiplicity = 1:

       Center              X                  Y                   Z               Mass
    ------------   -----------------  -----------------  -----------------  -----------------
         O           -3.137675742371     0.070541361707     0.316281762197    15.994914619570
         C            0.994274257629    -0.003983638293    -0.361890237803    12.000000000000
         C            2.491323257629    -0.005205638293    -0.540411237803    12.000000000000
         C            0.264155357629    -1.188826538293    -0.241370337803    12.000000000000
         C            0.263380757629     1.182290861707    -0.234097737803    12.000000000000
         C            3.235315257629    -0.006102638293     0.796038762197    12.000000000000
         C           -1.092037742371    -1.206542638293    -0.016449237803    12.000000000000
         C           -1.091020742371     1.206641361707    -0.009863237803    12.000000000000
         C           -1.782496742371     0.001799361707     0.100898762197    12.000000000000
         H            2.787833257629    -0.882386638293    -1.127197237803     1.007825032230
         H            2.787606257629     0.873149361707    -1.125354237803     1.007825032230
         H            0.813539257629    -2.148321638293    -0.337062237803     1.007825032230
         H            0.813265257629     2.141816361707    -0.323546237803     1.007825032230
         H            2.969090257629     0.875571361707     1.385111762197     1.007825032230
         H            4.320939257629    -0.005352638293     0.652662762197     1.007825032230
         H            2.970056257629    -0.889230638293     1.383383762197     1.007825032230
         H           -1.624770742371    -2.153210638293     0.065057762197     1.007825032230
         H           -1.639099742371     2.140218361707     0.078888762197     1.007825032230
         H           -3.490120742371    -0.834498638293     0.366916762197     1.007825032230

  Basis Set: AUG-CC-PVTZ
    Blend: AUG-CC-PVTZ
  Basis Set: (AUG-CC-PVTZ AUX)
    Blend: AUG-CC-PVTZ-JKFIT
	 Reference Energy          =    -383.7655678304416256 [Eh]
	 Singles Energy            =      -0.0000000000000000 [Eh]
	 Same-Spin Energy          =      -0.4127825030110851 [Eh]
	 Opposite-Spin Energy      =      -1.3185414671571989 [Eh]
	 Correlation Energy        =      -1.7313239701682841 [Eh]
	 Total Energy              =    -385.4968918006098875 [Eh]

	 ================> DF-SCS-MP2 Energies <==================
	-----------------------------------------------------------
	 SCS Same-Spin Scale       =       0.3333333333333333 [-]
	 SCS Opposite-Spin Scale   =       1.2000000000000000 [-]
	 SCS Same-Spin Energy      =      -0.1375941676703617 [Eh]
	 SCS Opposite-Spin Energy  =      -1.5822497605886385 [Eh]
	 SCS Correlation Energy    =      -1.7198439282590003 [Eh]
	 SCS Total Energy          =    -385.4854117587006499 [Eh]
	-----------------------------------------------------------

  Dipole Moment: [D]
     X:     0.4521      Y:    -1.2753      Z:    -0.0127     Total:     1.3532

*** Psi4 exiting successfully. Buy a developer a beer!
