                               Psi4 1.3.2 release

  ==> Input File <==

--------------------------------------------------------------------------
#psi4
#
memory 32 gb

molecule  {
0 1
  O       -3.1402926     0.0944750     0.3168978
  C        0.9902420    -0.0039870    -0.3612050
  C        2.4872910    -0.0052090    -0.5397260
  C        0.2806140    -1.2015640    -0.2442060
  C        0.2798770     1.1950560    -0.2368630
  C        3.2312830    -0.0061060     0.7967240
  C       -1.0753343    -1.1941400    -0.0189723
  C       -1.0950530     1.2066380    -0.0091780
  C       -1.7865290     0.0017960     0.1015840
  H        2.7838010    -0.8823900    -1.1265120
  H        2.7835740     0.8731460    -1.1246690
  H        0.8095070    -2.1483250    -0.3363770
  H        0.8092330     2.1418130    -0.3228610
  H        2.9650580     0.8755680     1.3857970
  H        4.3169070    -0.0053560     0.6533480
  H        2.9660240    -0.8892340     1.3840690
  H       -1.6288030    -2.1532140     0.0657430
  H       -1.6431320     2.1402150     0.0795740
  H       -3.4941530    -0.8345020     0.3676020
units angstrom
no_reorient  #important for SAPT in psi4, default
symmetry c1  #important for SAPT in psi4, default
}

set PROPERTIES_ORIGIN ["COM"]
properties('MP2/aug-cc-pvtz', properties = ['dipole'])
--------------------------------------------------------------------------

    Molecular point group: c1
  Charge       = 0
  Multiplicity = 1
  Basis Set: AUG-CC-PVTZ
    Blend: AUG-CC-PVTZ
  Basis Set: (AUG-CC-PVTZ AUX)
    Blend: AUG-CC-PVTZ-JKFIT

    Orbital Energies [Eh]
    ---------------------

    Doubly Occupied:

       1A    -20.593265     2A    -11.298591     3A    -11.236305
       4A    -11.235221     5A    -11.234905     6A    -11.230641
       7A    -11.227135     8A    -11.226842     9A    -11.215171
      10A     -1.395568    11A     -1.152845    12A     -1.057777
      13A     -1.018442    14A     -0.974872    15A     -0.861148
      16A     -0.841429    17A     -0.790256    18A     -0.724754
      19A     -0.674210    20A     -0.643741    21A     -0.610331
      22A     -0.596099    23A     -0.587908    24A     -0.584885
      25A     -0.568454    26A     -0.558555    27A     -0.523639
      28A     -0.496548    29A     -0.480127    30A     -0.476468
      31A     -0.469711    32A     -0.342479    33A     -0.304973

  @DF-RHF Final Energy:  -383.76364870748785

   => Energetics <=

    Nuclear Repulsion Energy =            418.5949665783112437
    One-Electron Energy =               -1350.2506426306754292
    Two-Electron Energy =                 547.8920273448763965
    Total Energy =                       -383.7636487074878460
  Basis Set: (AUG-CC-PVTZ AUX)
    Blend: AUG-CC-PVTZ-RI
    Molecular point group: c1

    Geometry (in Angstrom), charge = 0, multiplicity = 1:

       Center              X                  Y                   Z               Mass
    ------------   -----------------  -----------------  -----------------  -----------------
         O           -3.142516429879     0.090119049228     0.317222311131    15.994914619570
         C            0.988018170121    -0.008342950772    -0.360880488869    12.000000000000
         C            2.485067170121    -0.009564950772    -0.539401488869    12.000000000000
         C            0.278390170121    -1.205919950772    -0.243881488869    12.000000000000
         C            0.277653170121     1.190700049228    -0.236538488869    12.000000000000
         C            3.229059170121    -0.010461950772     0.797048511131    12.000000000000
         C           -1.077558129879    -1.198495950772    -0.018647788869    12.000000000000
         C           -1.097276829879     1.202282049228    -0.008853488869    12.000000000000
         C           -1.788752829879    -0.002559950772     0.101908511131    12.000000000000
         H            2.781577170121    -0.886745950772    -1.126187488869     1.007825032230
         H            2.781350170121     0.868790049228    -1.124344488869     1.007825032230
         H            0.807283170121    -2.152680950772    -0.336052488869     1.007825032230
         H            0.807009170121     2.137457049228    -0.322536488869     1.007825032230
         H            2.962834170121     0.871212049228     1.386121511131     1.007825032230
         H            4.314683170121    -0.009711950772     0.653672511131     1.007825032230
         H            2.963800170121    -0.893589950772     1.384393511131     1.007825032230
         H           -1.631026829879    -2.157569950772     0.066067511131     1.007825032230
         H           -1.645355829879     2.135859049228     0.079898511131     1.007825032230
         H           -3.496376829879    -0.838857950772     0.367926511131     1.007825032230

  Basis Set: AUG-CC-PVTZ
    Blend: AUG-CC-PVTZ
  Basis Set: (AUG-CC-PVTZ AUX)
    Blend: AUG-CC-PVTZ-JKFIT
	 Reference Energy          =    -383.7636487074878460 [Eh]
	 Singles Energy            =      -0.0000000000000000 [Eh]
	 Same-Spin Energy          =      -0.4132134814897773 [Eh]
	 Opposite-Spin Energy      =      -1.3196490305511692 [Eh]
	 Correlation Energy        =      -1.7328625120409464 [Eh]
	 Total Energy              =    -385.4965112195287702 [Eh]

	 ================> DF-SCS-MP2 Energies <==================
	-----------------------------------------------------------
	 SCS Same-Spin Scale       =       0.3333333333333333 [-]
	 SCS Opposite-Spin Scale   =       1.2000000000000000 [-]
	 SCS Same-Spin Energy      =      -0.1377378271632591 [Eh]
	 SCS Opposite-Spin Energy  =      -1.5835788366614030 [Eh]
	 SCS Correlation Energy    =      -1.7213166638246622 [Eh]
	 SCS Total Energy          =    -385.4849653713125122 [Eh]
	-----------------------------------------------------------

  Dipole Moment: [D]
     X:     0.4395      Y:    -1.2946      Z:    -0.0157     Total:     1.3673

*** Psi4 exiting successfully. Buy a developer a beer!
