                               Psi4 1.4a3.dev225

  ==> Input File <==

--------------------------------------------------------------------------
#psi4
#
memory 32 gb

molecule  {
0 1
  O        3.2216350    -0.1065060     0.2904990
  C       -0.9146420     0.0169590    -0.3639610
  C       -2.4121960     0.0318470    -0.5323860
  C       -0.1907600     1.2076380    -0.2374780
  C       -0.2138010    -1.1929940    -0.2539850
  C       -3.1508544    -0.0198797     0.8312770
  C        1.1888560     1.1991780    -0.0236810
  C        1.1619340    -1.2201410    -0.0407060
  C        1.8648900    -0.0185630     0.0807020
  H       -2.7091570     0.9353730    -1.0779940
  H       -2.7186560    -0.8212200    -1.1493620
  H       -0.7079800     2.1625600    -0.3214960
  H       -0.7531780    -2.1343060    -0.3521420
  H       -2.8726550    -0.9274190     1.3607640
  H       -4.2274440    -0.0080790     0.6778440
  H       -2.8630000     0.8390280     1.4320080
  H        1.7343360     2.1384520     0.0639930
  H        1.7070130    -2.1569100     0.0367280
  H        3.5799610     0.7963060     0.3524270
units angstrom
no_reorient  #important for SAPT in psi4, default
symmetry c1  #important for SAPT in psi4, default
}

set PROPERTIES_ORIGIN ["COM"]
properties('MP2/aug-cc-pvtz', properties = ['dipole'])
--------------------------------------------------------------------------

    Molecular point group: c1
  Charge       = 0
  Multiplicity = 1
  Basis Set: AUG-CC-PVTZ
    Blend: AUG-CC-PVTZ
  Basis Set: (AUG-CC-PVTZ AUX)
    Blend: AUG-CC-PVTZ-JKFIT

    Orbital Energies [Eh]
    ---------------------

    Doubly Occupied:

       1A    -20.589359     2A    -11.299739     3A    -11.238638
       4A    -11.236895     5A    -11.234931     6A    -11.231742
       7A    -11.228744     8A    -11.228096     9A    -11.214705
      10A     -1.397740    11A     -1.150017    12A     -1.055537
      13A     -1.016755    14A     -0.973746    15A     -0.862716
      16A     -0.842237    17A     -0.791096    18A     -0.727361
      19A     -0.671338    20A     -0.646664    21A     -0.612645
      22A     -0.595984    23A     -0.587344    24A     -0.585731
      25A     -0.569115    26A     -0.555388    27A     -0.520189
      28A     -0.499729    29A     -0.482221    30A     -0.479558
      31A     -0.466113    32A     -0.340798    33A     -0.304791

  @DF-RHF Final Energy:  -383.76608288386092

   => Energetics <=

    Nuclear Repulsion Energy =            417.8263423978172000
    One-Electron Energy =               -1348.7095274775274447
    Two-Electron Energy =                 547.1171021958493839
    Total Energy =                       -383.7660828838609177
  Basis Set: (AUG-CC-PVTZ AUX)
    Blend: AUG-CC-PVTZ-RI
    Molecular point group: c1

    Geometry (in Angstrom), charge = 0, multiplicity = 1:

       Center              X                  Y                   Z               Mass
    ------------   -----------------  -----------------  -----------------  -----------------
         O            3.142803506189    -0.099749464830     0.297096159090    15.994914619570
         C           -0.993473493811     0.023715535170    -0.357363840910    12.000000000000
         C           -2.491027493811     0.038603535170    -0.525788840910    12.000000000000
         C           -0.269591493811     1.214394535170    -0.230880840910    12.000000000000
         C           -0.292632493811    -1.186237464830    -0.247387840910    12.000000000000
         C           -3.229685893811    -0.013123164830     0.837874159090    12.000000000000
         C            1.110024506189     1.205934535170    -0.017083840910    12.000000000000
         C            1.083102506189    -1.213384464830    -0.034108840910    12.000000000000
         C            1.786058506189    -0.011806464830     0.087299159090    12.000000000000
         H           -2.787988493811     0.942129535170    -1.071396840910     1.007825032230
         H           -2.797487493811    -0.814463464830    -1.142764840910     1.007825032230
         H           -0.786811493811     2.169316535170    -0.314898840910     1.007825032230
         H           -0.832009493811    -2.127549464830    -0.345544840910     1.007825032230
         H           -2.951486493811    -0.920662464830     1.367361159090     1.007825032230
         H           -4.306275493811    -0.001322464830     0.684441159090     1.007825032230
         H           -2.941831493811     0.845784535170     1.438605159090     1.007825032230
         H            1.655504506189     2.145208535170     0.070590159090     1.007825032230
         H            1.628181506189    -2.150153464830     0.043325159090     1.007825032230
         H            3.501129506189     0.803062535170     0.359024159090     1.007825032230

  Basis Set: AUG-CC-PVTZ
    Blend: AUG-CC-PVTZ
  Basis Set: (AUG-CC-PVTZ AUX)
    Blend: AUG-CC-PVTZ-JKFIT
	 Reference Energy          =    -383.7660828838609177 [Eh]
	 Singles Energy            =      -0.0000000000000000 [Eh]
	 Same-Spin Energy          =      -0.4126971493679107 [Eh]
	 Opposite-Spin Energy      =      -1.3189300497955663 [Eh]
	 Correlation Energy        =      -1.7316271991634771 [Eh]
	 Total Energy              =    -385.4977100830244012 [Eh]

	 ================> DF-SCS-MP2 Energies <==================
	-----------------------------------------------------------
	 SCS Same-Spin Scale       =       0.3333333333333333 [-]
	 SCS Opposite-Spin Scale   =       1.2000000000000000 [-]
	 SCS Same-Spin Energy      =      -0.1375657164559702 [Eh]
	 SCS Opposite-Spin Energy  =      -1.5827160597546794 [Eh]
	 SCS Correlation Energy    =      -1.7202817762106497 [Eh]
	 SCS Total Energy          =    -385.4863646600715583 [Eh]
	-----------------------------------------------------------

  Dipole Moment: [D]
     X:    -0.4672      Y:     1.2740      Z:    -0.0035     Total:     1.3569

*** Psi4 exiting successfully. Buy a developer a beer!
