                               Psi4 1.3.2 release

  ==> Input File <==

--------------------------------------------------------------------------
#psi4
#
memory 32 gb

molecule  {
0 1
  O       -3.1422475     0.0585609     0.3170611
  C        0.9902420    -0.0039870    -0.3612050
  C        2.4872910    -0.0052090    -0.5397260
  C        0.2806140    -1.2015640    -0.2442060
  C        0.2798770     1.1950560    -0.2368630
  C        3.2312830    -0.0061060     0.7967240
  C       -1.0960700    -1.2065460    -0.0157640
  C       -1.0846950     1.2004810    -0.0108203
  C       -1.7865290     0.0017960     0.1015840
  H        2.7838010    -0.8823900    -1.1265120
  H        2.7835740     0.8731460    -1.1246690
  H        0.8095070    -2.1483250    -0.3363770
  H        0.8092330     2.1418130    -0.3228610
  H        2.9650580     0.8755680     1.3857970
  H        4.3169070    -0.0053560     0.6533480
  H        2.9660240    -0.8892340     1.3840690
  H       -1.6288030    -2.1532140     0.0657430
  H       -1.6431320     2.1402150     0.0795740
  H       -3.4941530    -0.8345020     0.3676020
units angstrom
no_reorient  #important for SAPT in psi4, default
symmetry c1  #important for SAPT in psi4, default
}

set PROPERTIES_ORIGIN ["COM"]
properties('MP2/aug-cc-pvtz', properties = ['dipole'])
--------------------------------------------------------------------------

    Molecular point group: c1
  Charge       = 0
  Multiplicity = 1
  Basis Set: AUG-CC-PVTZ
    Blend: AUG-CC-PVTZ
  Basis Set: (AUG-CC-PVTZ AUX)
    Blend: AUG-CC-PVTZ-JKFIT

    Orbital Energies [Eh]
    ---------------------

    Doubly Occupied:

       1A    -20.588443     2A    -11.299531     3A    -11.237677
       4A    -11.235295     5A    -11.234298     6A    -11.230898
       7A    -11.228438     8A    -11.227015     9A    -11.215262
      10A     -1.400582    11A     -1.152253    12A     -1.058314
      13A     -1.017565    14A     -0.976052    15A     -0.862749
      16A     -0.841999    17A     -0.792049    18A     -0.731234
      19A     -0.672048    20A     -0.646554    21A     -0.613847
      22A     -0.595326    23A     -0.587799    24A     -0.585640
      25A     -0.571002    26A     -0.554915    27A     -0.523552
      28A     -0.497321    29A     -0.480198    30A     -0.477016
      31A     -0.469009    32A     -0.341640    33A     -0.305633

  @DF-RHF Final Energy:  -383.76728908319228

   => Energetics <=

    Nuclear Repulsion Energy =            418.5418858525839596
    One-Electron Energy =               -1350.1160369972346871
    Two-Electron Energy =                 547.8068620614584461
    Total Energy =                       -383.7672890831922814
  Basis Set: (AUG-CC-PVTZ AUX)
    Blend: AUG-CC-PVTZ-RI
    Molecular point group: c1

    Geometry (in Angstrom), charge = 0, multiplicity = 1:

       Center              X                  Y                   Z               Mass
    ------------   -----------------  -----------------  -----------------  -----------------
         O           -3.143195039068     0.060735450534     0.317210273909    15.994914619570
         C            0.989294460932    -0.001812449466    -0.361055826091    12.000000000000
         C            2.486343460932    -0.003034449466    -0.539576826091    12.000000000000
         C            0.279666460932    -1.199389449466    -0.244056826091    12.000000000000
         C            0.278929460932     1.197230550534    -0.236713826091    12.000000000000
         C            3.230335460932    -0.003931449466     0.796873173909    12.000000000000
         C           -1.097017539068    -1.204371449466    -0.015614826091    12.000000000000
         C           -1.085642539068     1.202655550534    -0.010671126091    12.000000000000
         C           -1.787476539068     0.003970550534     0.101733173909    12.000000000000
         H            2.782853460932    -0.880215449466    -1.126362826091     1.007825032230
         H            2.782626460932     0.875320550534    -1.124519826091     1.007825032230
         H            0.808559460932    -2.146150449466    -0.336227826091     1.007825032230
         H            0.808285460932     2.143987550534    -0.322711826091     1.007825032230
         H            2.964110460932     0.877742550534     1.385946173909     1.007825032230
         H            4.315959460932    -0.003181449466     0.653497173909     1.007825032230
         H            2.965076460932    -0.887059449466     1.384218173909     1.007825032230
         H           -1.629750539068    -2.151039449466     0.065892173909     1.007825032230
         H           -1.644079539068     2.142389550534     0.079723173909     1.007825032230
         H           -3.495100539068    -0.832327449466     0.367751173909     1.007825032230

  Basis Set: AUG-CC-PVTZ
    Blend: AUG-CC-PVTZ
  Basis Set: (AUG-CC-PVTZ AUX)
    Blend: AUG-CC-PVTZ-JKFIT
	 Reference Energy          =    -383.7672890831922814 [Eh]
	 Singles Energy            =      -0.0000000000000000 [Eh]
	 Same-Spin Energy          =      -0.4125899275559870 [Eh]
	 Opposite-Spin Energy      =      -1.3182635012631079 [Eh]
	 Correlation Energy        =      -1.7308534288190949 [Eh]
	 Total Energy              =    -385.4981425120113840 [Eh]

	 ================> DF-SCS-MP2 Energies <==================
	-----------------------------------------------------------
	 SCS Same-Spin Scale       =       0.3333333333333333 [-]
	 SCS Opposite-Spin Scale   =       1.2000000000000000 [-]
	 SCS Same-Spin Energy      =      -0.1375299758519957 [Eh]
	 SCS Opposite-Spin Energy  =      -1.5819162015157293 [Eh]
	 SCS Correlation Energy    =      -1.7194461773677250 [Eh]
	 SCS Total Energy          =    -385.4867352605600104 [Eh]
	-----------------------------------------------------------

  Dipole Moment: [D]
     X:     0.4680      Y:    -1.2614      Z:    -0.0193     Total:     1.3456

*** Psi4 exiting successfully. Buy a developer a beer!
