                               Psi4 1.3.2 release

  ==> Input File <==

--------------------------------------------------------------------------
#psi4
#
memory 32 gb

molecule  {
0 1
  O       -3.1417080     0.0705380     0.3169670
  C        0.9878182    -0.0486179    -0.3889816
  C        2.4872910    -0.0052090    -0.5397260
  C        0.2806140    -1.2015640    -0.2442060
  C        0.2798770     1.1950560    -0.2368630
  C        3.2312830    -0.0061060     0.7967240
  C       -1.0960700    -1.2065460    -0.0157640
  C       -1.0950530     1.2066380    -0.0091780
  C       -1.7865290     0.0017960     0.1015840
  H        2.7469885    -0.8926199    -1.1285737
  H        2.7835740     0.8731460    -1.1246690
  H        0.8095070    -2.1483250    -0.3363770
  H        0.8092330     2.1418130    -0.3228610
  H        2.9650580     0.8755680     1.3857970
  H        4.3169070    -0.0053560     0.6533480
  H        2.9660240    -0.8892340     1.3840690
  H       -1.6288030    -2.1532140     0.0657430
  H       -1.6431320     2.1402150     0.0795740
  H       -3.4941530    -0.8345020     0.3676020
units angstrom
no_reorient  #important for SAPT in psi4, default
symmetry c1  #important for SAPT in psi4, default
}

set PROPERTIES_ORIGIN ["COM"]
properties('MP2/aug-cc-pvtz', properties = ['dipole'])
--------------------------------------------------------------------------

    Molecular point group: c1
  Charge       = 0
  Multiplicity = 1
  Basis Set: AUG-CC-PVTZ
    Blend: AUG-CC-PVTZ
  Basis Set: (AUG-CC-PVTZ AUX)
    Blend: AUG-CC-PVTZ-JKFIT

    Orbital Energies [Eh]
    ---------------------

    Doubly Occupied:

       1A    -20.589612     2A    -11.299835     3A    -11.240676
       4A    -11.233900     5A    -11.232743     6A    -11.230329
       7A    -11.229193     8A    -11.227149     9A    -11.215991
      10A     -1.398751    11A     -1.151146    12A     -1.058147
      13A     -1.016924    14A     -0.975137    15A     -0.862988
      16A     -0.844135    17A     -0.788913    18A     -0.728343
      19A     -0.673850    20A     -0.644786    21A     -0.611761
      22A     -0.599110    23A     -0.587588    24A     -0.584350
      25A     -0.567948    26A     -0.556379    27A     -0.525103
      28A     -0.498781    29A     -0.486403    30A     -0.469977
      31A     -0.467399    32A     -0.340786    33A     -0.305982

  @DF-RHF Final Energy:  -383.76360119621097

   => Energetics <=

    Nuclear Repulsion Energy =            418.2854343182438015
    One-Electron Energy =               -1349.6098471632303699
    Two-Electron Energy =                 547.5608116487755979
    Total Energy =                       -383.7636011962109706
  Basis Set: (AUG-CC-PVTZ AUX)
    Blend: AUG-CC-PVTZ-RI
    Molecular point group: c1

    Geometry (in Angstrom), charge = 0, multiplicity = 1:

       Center              X                  Y                   Z               Mass
    ------------   -----------------  -----------------  -----------------  -----------------
         O           -3.141165834901     0.075009730734     0.319714570981    15.994914619570
         C            0.988360365099    -0.044146169266    -0.386234029019    12.000000000000
         C            2.487833165099    -0.000737269266    -0.536978429019    12.000000000000
         C            0.281156165099    -1.197092269266    -0.241458429019    12.000000000000
         C            0.280419165099     1.199527730734    -0.234115429019    12.000000000000
         C            3.231825165099    -0.001634269266     0.799471570981    12.000000000000
         C           -1.095527834901    -1.202074269266    -0.013016429019    12.000000000000
         C           -1.094510834901     1.211109730734    -0.006430429019    12.000000000000
         C           -1.785986834901     0.006267730734     0.104331570981    12.000000000000
         H            2.747530665099    -0.888148169266    -1.125826129019     1.007825032230
         H            2.784116165099     0.877617730734    -1.121921429019     1.007825032230
         H            0.810049165099    -2.143853269266    -0.333629429019     1.007825032230
         H            0.809775165099     2.146284730734    -0.320113429019     1.007825032230
         H            2.965600165099     0.880039730734     1.388544570981     1.007825032230
         H            4.317449165099    -0.000884269266     0.656095570981     1.007825032230
         H            2.966566165099    -0.884762269266     1.386816570981     1.007825032230
         H           -1.628260834901    -2.148742269266     0.068490570981     1.007825032230
         H           -1.642589834901     2.144686730734     0.082321570981     1.007825032230
         H           -3.493610834901    -0.830030269266     0.370349570981     1.007825032230

  Basis Set: AUG-CC-PVTZ
    Blend: AUG-CC-PVTZ
  Basis Set: (AUG-CC-PVTZ AUX)
    Blend: AUG-CC-PVTZ-JKFIT
	 Reference Energy          =    -383.7636011962109706 [Eh]
	 Singles Energy            =      -0.0000000000000000 [Eh]
	 Same-Spin Energy          =      -0.4126618844466635 [Eh]
	 Opposite-Spin Energy      =      -1.3188606600998276 [Eh]
	 Correlation Energy        =      -1.7315225445464910 [Eh]
	 Total Energy              =    -385.4951237407574354 [Eh]

	 ================> DF-SCS-MP2 Energies <==================
	-----------------------------------------------------------
	 SCS Same-Spin Scale       =       0.3333333333333333 [-]
	 SCS Opposite-Spin Scale   =       1.2000000000000000 [-]
	 SCS Same-Spin Energy      =      -0.1375539614822212 [Eh]
	 SCS Opposite-Spin Energy  =      -1.5826327921197931 [Eh]
	 SCS Correlation Energy    =      -1.7201867536020143 [Eh]
	 SCS Total Energy          =    -385.4837879498130064 [Eh]
	-----------------------------------------------------------

  Dipole Moment: [D]
     X:     0.4555      Y:    -1.2323      Z:     0.0055     Total:     1.3138

*** Psi4 exiting successfully. Buy a developer a beer!
