                               Psi4 1.3.2 release

  ==> Input File <==

--------------------------------------------------------------------------
#psi4
#
memory 32 gb

molecule  {
0 1
  O       -3.1385183     0.1183848     0.3164266
  C        0.9902420    -0.0039870    -0.3612050
  C        2.4872910    -0.0052090    -0.5397260
  C        0.2806140    -1.2015640    -0.2442060
  C        0.2798770     1.1950560    -0.2368630
  C        3.2312830    -0.0061060     0.7967240
  C       -1.0960700    -1.2065460    -0.0157640
  C       -1.1370038     1.2303438    -0.0025256
  C       -1.7865290     0.0017960     0.1015840
  H        2.7838010    -0.8823900    -1.1265120
  H        2.7835740     0.8731460    -1.1246690
  H        0.8095070    -2.1483250    -0.3363770
  H        0.8092330     2.1418130    -0.3228610
  H        2.9650580     0.8755680     1.3857970
  H        4.3169070    -0.0053560     0.6533480
  H        2.9660240    -0.8892340     1.3840690
  H       -1.6288030    -2.1532140     0.0657430
  H       -1.6431320     2.1402150     0.0795740
  H       -3.4941530    -0.8345020     0.3676020
units angstrom
no_reorient  #important for SAPT in psi4, default
symmetry c1  #important for SAPT in psi4, default
}

set PROPERTIES_ORIGIN ["COM"]
properties('MP2/aug-cc-pvtz', properties = ['dipole'])
--------------------------------------------------------------------------

    Molecular point group: c1
  Charge       = 0
  Multiplicity = 1
  Basis Set: AUG-CC-PVTZ
    Blend: AUG-CC-PVTZ
  Basis Set: (AUG-CC-PVTZ AUX)
    Blend: AUG-CC-PVTZ-JKFIT

    Orbital Energies [Eh]
    ---------------------

    Doubly Occupied:

       1A    -20.592862     2A    -11.298930     3A    -11.240348
       4A    -11.240073     5A    -11.236267     6A    -11.231151
       7A    -11.227295     8A    -11.227190     9A    -11.215221
      10A     -1.391206    11A     -1.147044    12A     -1.056849
      13A     -1.013559    14A     -0.974336    15A     -0.858070
      16A     -0.846004    17A     -0.789455    18A     -0.717724
      19A     -0.673408    20A     -0.649083    21A     -0.609745
      22A     -0.600050    23A     -0.588198    24A     -0.584786
      25A     -0.562024    26A     -0.556921    27A     -0.522551
      28A     -0.501252    29A     -0.480724    30A     -0.478524
      31A     -0.465330    32A     -0.335917    33A     -0.306809

  @DF-RHF Final Energy:  -383.75711332779201

   => Energetics <=

    Nuclear Repulsion Energy =            417.5075765806240611
    One-Electron Energy =               -1348.0915657626940174
    Two-Electron Energy =                 546.8268758542778869
    Total Energy =                       -383.7571133277920126
  Basis Set: (AUG-CC-PVTZ AUX)
    Blend: AUG-CC-PVTZ-RI
    Molecular point group: c1

    Geometry (in Angstrom), charge = 0, multiplicity = 1:

       Center              X                  Y                   Z               Mass
    ------------   -----------------  -----------------  -----------------  -----------------
         O           -3.134812421876     0.109785223614     0.315843527582    15.994914619570
         C            0.993947878124    -0.012586576386    -0.361788072418    12.000000000000
         C            2.490996878124    -0.013808576386    -0.540309072418    12.000000000000
         C            0.284319878124    -1.210163576386    -0.244789072418    12.000000000000
         C            0.283582878124     1.186456423614    -0.237446072418    12.000000000000
         C            3.234988878124    -0.014705576386     0.796140927582    12.000000000000
         C           -1.092364121876    -1.215145576386    -0.016347072418    12.000000000000
         C           -1.133297921876     1.221744223614    -0.003108672418    12.000000000000
         C           -1.782823121876    -0.006803576386     0.101000927582    12.000000000000
         H            2.787506878124    -0.890989576386    -1.127095072418     1.007825032230
         H            2.787279878124     0.864546423614    -1.125252072418     1.007825032230
         H            0.813212878124    -2.156924576386    -0.336960072418     1.007825032230
         H            0.812938878124     2.133213423614    -0.323444072418     1.007825032230
         H            2.968763878124     0.866968423614     1.385213927582     1.007825032230
         H            4.320612878124    -0.013955576386     0.652764927582     1.007825032230
         H            2.969729878124    -0.897833576386     1.383485927582     1.007825032230
         H           -1.625097121876    -2.161813576386     0.065159927582     1.007825032230
         H           -1.639426121876     2.131615423614     0.078990927582     1.007825032230
         H           -3.490447121876    -0.843101576386     0.367018927582     1.007825032230

  Basis Set: AUG-CC-PVTZ
    Blend: AUG-CC-PVTZ
  Basis Set: (AUG-CC-PVTZ AUX)
    Blend: AUG-CC-PVTZ-JKFIT
	 Reference Energy          =    -383.7571133277920126 [Eh]
	 Singles Energy            =      -0.0000000000000000 [Eh]
	 Same-Spin Energy          =      -0.4135085609555150 [Eh]
	 Opposite-Spin Energy      =      -1.3210241088545538 [Eh]
	 Correlation Energy        =      -1.7345326698100687 [Eh]
	 Total Energy              =    -385.4916459976020633 [Eh]

	 ================> DF-SCS-MP2 Energies <==================
	-----------------------------------------------------------
	 SCS Same-Spin Scale       =       0.3333333333333333 [-]
	 SCS Opposite-Spin Scale   =       1.2000000000000000 [-]
	 SCS Same-Spin Energy      =      -0.1378361869851716 [Eh]
	 SCS Opposite-Spin Energy  =      -1.5852289306254645 [Eh]
	 SCS Correlation Energy    =      -1.7230651176106362 [Eh]
	 SCS Total Energy          =    -385.4801784454026574 [Eh]
	-----------------------------------------------------------

  Dipole Moment: [D]
     X:     0.4574      Y:    -1.3179      Z:    -0.0160     Total:     1.3951

*** Psi4 exiting successfully. Buy a developer a beer!
