                               Psi4 1.3.2 release

  ==> Input File <==

--------------------------------------------------------------------------
#psi4
#
memory 32 gb

molecule  {
0 1
  O       -3.1417080     0.0705380     0.3169670
  C        0.9902420    -0.0039870    -0.3612050
  C        2.4872910    -0.0052090    -0.5397260
  C        0.2806140    -1.2015640    -0.2442060
  C        0.2798770     1.1950560    -0.2368630
  C        3.2312830    -0.0061060     0.7967240
  C       -1.0960700    -1.2065460    -0.0157640
  C       -1.0950530     1.2066380    -0.0091780
  C       -1.8071825     0.0142013     0.1049169
  H        2.7838010    -0.8823900    -1.1265120
  H        2.7835740     0.8731460    -1.1246690
  H        0.8095070    -2.1483250    -0.3363770
  H        0.8092330     2.1418130    -0.3228610
  H        2.9650580     0.8755680     1.3857970
  H        4.3169070    -0.0053560     0.6533480
  H        2.9660240    -0.8892340     1.3840690
  H       -1.6288030    -2.1532140     0.0657430
  H       -1.6591351     2.1303829     0.0821466
  H       -3.4941530    -0.8345020     0.3676020
units angstrom
no_reorient  #important for SAPT in psi4, default
symmetry c1  #important for SAPT in psi4, default
}

set PROPERTIES_ORIGIN ["COM"]
properties('MP2/aug-cc-pvtz', properties = ['dipole'])
--------------------------------------------------------------------------

    Molecular point group: c1
  Charge       = 0
  Multiplicity = 1
  Basis Set: AUG-CC-PVTZ
    Blend: AUG-CC-PVTZ
  Basis Set: (AUG-CC-PVTZ AUX)
    Blend: AUG-CC-PVTZ-JKFIT

    Orbital Energies [Eh]
    ---------------------

    Doubly Occupied:

       1A    -20.593209     2A    -11.301177     3A    -11.237713
       4A    -11.236062     5A    -11.235521     6A    -11.229837
       7A    -11.226697     8A    -11.226420     9A    -11.214689
      10A     -1.409693    11A     -1.148608    12A     -1.056331
      13A     -1.014758    14A     -0.974653    15A     -0.862722
      16A     -0.841123    17A     -0.792037    18A     -0.733143
      19A     -0.672547    20A     -0.648136    21A     -0.613266
      22A     -0.596863    23A     -0.592661    24A     -0.583326
      25A     -0.570529    26A     -0.556638    27A     -0.523223
      28A     -0.495071    29A     -0.479786    30A     -0.476001
      31A     -0.466960    32A     -0.339552    33A     -0.302798

  @DF-RHF Final Energy:  -383.76600545564457

   => Energetics <=

    Nuclear Repulsion Energy =            418.2054506144583002
    One-Electron Energy =               -1349.4394126325494199
    Two-Electron Energy =                 547.4679565624464885
    Total Energy =                       -383.7660054556446312
  Basis Set: (AUG-CC-PVTZ AUX)
    Blend: AUG-CC-PVTZ-RI
    Molecular point group: c1

    Geometry (in Angstrom), charge = 0, multiplicity = 1:

       Center              X                  Y                   Z               Mass
    ------------   -----------------  -----------------  -----------------  -----------------
         O           -3.139545624874     0.069399690943     0.316618193790    15.994914619570
         C            0.992404375126    -0.005125309057    -0.361553806210    12.000000000000
         C            2.489453375126    -0.006347309057    -0.540074806210    12.000000000000
         C            0.282776375126    -1.202702309057    -0.244554806210    12.000000000000
         C            0.282039375126     1.193917690943    -0.237211806210    12.000000000000
         C            3.233445375126    -0.007244309057     0.796375193790    12.000000000000
         C           -1.093907624874    -1.207684309057    -0.016112806210    12.000000000000
         C           -1.092890624874     1.205499690943    -0.009526806210    12.000000000000
         C           -1.805020124874     0.013062990943     0.104568093790    12.000000000000
         H            2.785963375126    -0.883528309057    -1.126860806210     1.007825032230
         H            2.785736375126     0.872007690943    -1.125017806210     1.007825032230
         H            0.811669375126    -2.149463309057    -0.336725806210     1.007825032230
         H            0.811395375126     2.140674690943    -0.323209806210     1.007825032230
         H            2.967220375126     0.874429690943     1.385448193790     1.007825032230
         H            4.319069375126    -0.006494309057     0.652999193790     1.007825032230
         H            2.968186375126    -0.890372309057     1.383720193790     1.007825032230
         H           -1.626640624874    -2.154352309057     0.065394193790     1.007825032230
         H           -1.656972724874     2.129244590943     0.081797793790     1.007825032230
         H           -3.491990624874    -0.835640309057     0.367253193790     1.007825032230

  Basis Set: AUG-CC-PVTZ
    Blend: AUG-CC-PVTZ
  Basis Set: (AUG-CC-PVTZ AUX)
    Blend: AUG-CC-PVTZ-JKFIT
	 Reference Energy          =    -383.7660054556445743 [Eh]
	 Singles Energy            =      -0.0000000000000000 [Eh]
	 Same-Spin Energy          =      -0.4127831090188406 [Eh]
	 Opposite-Spin Energy      =      -1.3185969327742990 [Eh]
	 Correlation Energy        =      -1.7313800417931398 [Eh]
	 Total Energy              =    -385.4973854974377332 [Eh]

	 ================> DF-SCS-MP2 Energies <==================
	-----------------------------------------------------------
	 SCS Same-Spin Scale       =       0.3333333333333333 [-]
	 SCS Opposite-Spin Scale   =       1.2000000000000000 [-]
	 SCS Same-Spin Energy      =      -0.1375943696729469 [Eh]
	 SCS Opposite-Spin Energy  =      -1.5823163193291587 [Eh]
	 SCS Correlation Energy    =      -1.7199106890021056 [Eh]
	 SCS Total Energy          =    -385.4859161446466942 [Eh]
	-----------------------------------------------------------

  Dipole Moment: [D]
     X:     0.3070      Y:    -1.2778      Z:     0.0048     Total:     1.3142

*** Psi4 exiting successfully. Buy a developer a beer!
