                               Psi4 1.4a3.dev225

  ==> Input File <==

--------------------------------------------------------------------------
#psi4
#
memory 32 gb

molecule  {
0 1
  O        3.2216350    -0.1065060     0.2904990
  C       -0.9146420     0.0169590    -0.3639610
  C       -2.4121960     0.0318470    -0.5323860
  C       -0.1907600     1.2076380    -0.2374780
  C       -0.2138010    -1.1929940    -0.2539850
  C       -3.1413340    -0.0192130     0.8137010
  C        1.1888560     1.1991780    -0.0236810
  C        1.1619340    -1.2201410    -0.0407060
  C        1.8648900    -0.0185630     0.0807020
  H       -2.7091570     0.9353730    -1.0779940
  H       -2.7186560    -0.8212200    -1.1493620
  H       -0.7079800     2.1625600    -0.3214960
  H       -0.7531780    -2.1343060    -0.3521420
  H       -2.8726550    -0.9274190     1.3607640
  H       -4.2274440    -0.0080790     0.6778440
  H       -2.8630000     0.8390280     1.4320080
  H        1.7343360     2.1384520     0.0639930
  H        1.7070130    -2.1569100     0.0367280
  H        3.5725978     0.7777543     0.3511545
units angstrom
no_reorient  #important for SAPT in psi4, default
symmetry c1  #important for SAPT in psi4, default
}

set PROPERTIES_ORIGIN ["COM"]
properties('MP2/aug-cc-pvtz', properties = ['dipole'])
--------------------------------------------------------------------------

    Molecular point group: c1
  Charge       = 0
  Multiplicity = 1
  Basis Set: AUG-CC-PVTZ
    Blend: AUG-CC-PVTZ
  Basis Set: (AUG-CC-PVTZ AUX)
    Blend: AUG-CC-PVTZ-JKFIT

    Orbital Energies [Eh]
    ---------------------

    Doubly Occupied:

       1A    -20.587719     2A    -11.299976     3A    -11.238838
       4A    -11.237061     5A    -11.235133     6A    -11.231915
       7A    -11.228884     8A    -11.227456     9A    -11.215542
      10A     -1.402175    11A     -1.150624    12A     -1.058005
      13A     -1.016946    14A     -0.975283    15A     -0.862327
      16A     -0.842508    17A     -0.791977    18A     -0.730337
      19A     -0.672011    20A     -0.647252    21A     -0.613619
      22A     -0.596141    23A     -0.587771    24A     -0.586178
      25A     -0.569185    26A     -0.556220    27A     -0.523020
      28A     -0.498450    29A     -0.480550    30A     -0.478325
      31A     -0.467893    32A     -0.340913    33A     -0.305393

  @DF-RHF Final Energy:  -383.76717333239094

   => Energetics <=

    Nuclear Repulsion Energy =            418.2197891252479280
    One-Electron Energy =               -1349.4626650692277963
    Two-Electron Energy =                 547.4757026115889857
    Total Energy =                       -383.7671733323909393
  Basis Set: (AUG-CC-PVTZ AUX)
    Blend: AUG-CC-PVTZ-RI
    Molecular point group: c1

    Geometry (in Angstrom), charge = 0, multiplicity = 1:

       Center              X                  Y                   Z               Mass
    ------------   -----------------  -----------------  -----------------  -----------------
         O            3.141928424571    -0.099661841414     0.298834415466    15.994914619570
         C           -0.994348575429     0.023803158586    -0.355625584534    12.000000000000
         C           -2.491902575429     0.038691158586    -0.524050584534    12.000000000000
         C           -0.270466575429     1.214482158586    -0.229142584534    12.000000000000
         C           -0.293507575429    -1.186149841414    -0.245649584534    12.000000000000
         C           -3.221040575429    -0.012368841414     0.822036415466    12.000000000000
         C            1.109149424571     1.206022158586    -0.015345584534    12.000000000000
         C            1.082227424571    -1.213296841414    -0.032370584534    12.000000000000
         C            1.785183424571    -0.011718841414     0.089037415466    12.000000000000
         H           -2.788863575429     0.942217158586    -1.069658584534     1.007825032230
         H           -2.798362575429    -0.814375841414    -1.141026584534     1.007825032230
         H           -0.787686575429     2.169404158586    -0.313160584534     1.007825032230
         H           -0.832884575429    -2.127461841414    -0.343806584534     1.007825032230
         H           -2.952361575429    -0.920574841414     1.369099415466     1.007825032230
         H           -4.307150575429    -0.001234841414     0.686179415466     1.007825032230
         H           -2.942706575429     0.845872158586     1.440343415466     1.007825032230
         H            1.654629424571     2.145296158586     0.072328415466     1.007825032230
         H            1.627306424571    -2.150065841414     0.045063415466     1.007825032230
         H            3.492891224571     0.784598458586     0.359489915466     1.007825032230

  Basis Set: AUG-CC-PVTZ
    Blend: AUG-CC-PVTZ
  Basis Set: (AUG-CC-PVTZ AUX)
    Blend: AUG-CC-PVTZ-JKFIT
	 Reference Energy          =    -383.7671733323909393 [Eh]
	 Singles Energy            =      -0.0000000000000000 [Eh]
	 Same-Spin Energy          =      -0.4125410636560763 [Eh]
	 Opposite-Spin Energy      =      -1.3183686342358287 [Eh]
	 Correlation Energy        =      -1.7309096978919052 [Eh]
	 Total Energy              =    -385.4980830302828281 [Eh]

	 ================> DF-SCS-MP2 Energies <==================
	-----------------------------------------------------------
	 SCS Same-Spin Scale       =       0.3333333333333333 [-]
	 SCS Opposite-Spin Scale   =       1.2000000000000000 [-]
	 SCS Same-Spin Energy      =      -0.1375136878853588 [Eh]
	 SCS Opposite-Spin Energy  =      -1.5820423610829943 [Eh]
	 SCS Correlation Energy    =      -1.7195560489683530 [Eh]
	 SCS Total Energy          =    -385.4867293813592823 [Eh]
	-----------------------------------------------------------

  Dipole Moment: [D]
     X:    -0.4797      Y:     1.2590      Z:    -0.0062     Total:     1.3473

*** Psi4 exiting successfully. Buy a developer a beer!
