                               Psi4 1.3.2 release

  ==> Input File <==

--------------------------------------------------------------------------
#psi4
#
memory 32 gb

molecule  {
0 1
  O       -3.1417080     0.0705380     0.3169670
  C        0.9486132     0.0203831    -0.3540858
  C        2.4872910    -0.0052090    -0.5397260
  C        0.2806140    -1.2015640    -0.2442060
  C        0.2798770     1.1950560    -0.2368630
  C        3.2312830    -0.0061060     0.7967240
  C       -1.0960700    -1.2065460    -0.0157640
  C       -1.0950530     1.2066380    -0.0091780
  C       -1.7865290     0.0017960     0.1015840
  H        2.7838010    -0.8823900    -1.1265120
  H        2.7835740     0.8731460    -1.1246690
  H        0.7765992    -2.1664843    -0.3308504
  H        0.8092330     2.1418130    -0.3228610
  H        2.9650580     0.8755680     1.3857970
  H        4.3169070    -0.0053560     0.6533480
  H        2.9660240    -0.8892340     1.3840690
  H       -1.6288030    -2.1532140     0.0657430
  H       -1.6431320     2.1402150     0.0795740
  H       -3.4941530    -0.8345020     0.3676020
units angstrom
no_reorient  #important for SAPT in psi4, default
symmetry c1  #important for SAPT in psi4, default
}

set PROPERTIES_ORIGIN ["COM"]
properties('MP2/aug-cc-pvtz', properties = ['dipole'])
--------------------------------------------------------------------------

    Molecular point group: c1
  Charge       = 0
  Multiplicity = 1
  Basis Set: AUG-CC-PVTZ
    Blend: AUG-CC-PVTZ
  Basis Set: (AUG-CC-PVTZ AUX)
    Blend: AUG-CC-PVTZ-JKFIT

    Orbital Energies [Eh]
    ---------------------

    Doubly Occupied:

       1A    -20.588753     2A    -11.298312     3A    -11.238692
       4A    -11.234936     5A    -11.231604     6A    -11.228756
       7A    -11.227924     8A    -11.227445     9A    -11.214369
      10A     -1.398012    11A     -1.154733    12A     -1.052602
      13A     -1.019191    14A     -0.977589    15A     -0.857310
      16A     -0.843535    17A     -0.793759    18A     -0.730049
      19A     -0.670249    20A     -0.643855    21A     -0.614277
      22A     -0.595167    23A     -0.591142    24A     -0.586493
      25A     -0.569205    26A     -0.554554    27A     -0.520839
      28A     -0.499324    29A     -0.482185    30A     -0.471522
      31A     -0.467166    32A     -0.341752    33A     -0.308308

  @DF-RHF Final Energy:  -383.76426331935852

   => Energetics <=

    Nuclear Repulsion Energy =            418.6317569151882481
    One-Electron Energy =               -1350.3248202320633027
    Two-Electron Energy =                 547.9287999975165349
    Total Energy =                       -383.7642633193585198
  Basis Set: (AUG-CC-PVTZ AUX)
    Blend: AUG-CC-PVTZ-RI
    Molecular point group: c1

    Geometry (in Angstrom), charge = 0, multiplicity = 1:

       Center              X                  Y                   Z               Mass
    ------------   -----------------  -----------------  -----------------  -----------------
         O           -3.137344153487     0.068292279339     0.316221606095    15.994914619570
         C            0.952977046513     0.018137379339    -0.354831193905    12.000000000000
         C            2.491654846513    -0.007454720661    -0.540471393905    12.000000000000
         C            0.284977846513    -1.203809720661    -0.244951393905    12.000000000000
         C            0.284240846513     1.192810279339    -0.237608393905    12.000000000000
         C            3.235646846513    -0.008351720661     0.795978606095    12.000000000000
         C           -1.091706153487    -1.208791720661    -0.016509393905    12.000000000000
         C           -1.090689153487     1.204392279339    -0.009923393905    12.000000000000
         C           -1.782165153487    -0.000449720661     0.100838606095    12.000000000000
         H            2.788164846513    -0.884635720661    -1.127257393905     1.007825032230
         H            2.787937846513     0.870900279339    -1.125414393905     1.007825032230
         H            0.780963046513    -2.168730020661    -0.331595793905     1.007825032230
         H            0.813596846513     2.139567279339    -0.323606393905     1.007825032230
         H            2.969421846513     0.873322279339     1.385051606095     1.007825032230
         H            4.321270846513    -0.007601720661     0.652602606095     1.007825032230
         H            2.970387846513    -0.891479720661     1.383323606095     1.007825032230
         H           -1.624439153487    -2.155459720661     0.064997606095     1.007825032230
         H           -1.638768153487     2.137969279339     0.078828606095     1.007825032230
         H           -3.489789153487    -0.836747720661     0.366856606095     1.007825032230

  Basis Set: AUG-CC-PVTZ
    Blend: AUG-CC-PVTZ
  Basis Set: (AUG-CC-PVTZ AUX)
    Blend: AUG-CC-PVTZ-JKFIT
	 Reference Energy          =    -383.7642633193585198 [Eh]
	 Singles Energy            =      -0.0000000000000000 [Eh]
	 Same-Spin Energy          =      -0.4124709803015960 [Eh]
	 Opposite-Spin Energy      =      -1.3183511814681177 [Eh]
	 Correlation Energy        =      -1.7308221617697137 [Eh]
	 Total Energy              =    -385.4950854811282284 [Eh]

	 ================> DF-SCS-MP2 Energies <==================
	-----------------------------------------------------------
	 SCS Same-Spin Scale       =       0.3333333333333333 [-]
	 SCS Opposite-Spin Scale   =       1.2000000000000000 [-]
	 SCS Same-Spin Energy      =      -0.1374903267671987 [Eh]
	 SCS Opposite-Spin Energy  =      -1.5820214177617411 [Eh]
	 SCS Correlation Energy    =      -1.7195117445289398 [Eh]
	 SCS Total Energy          =    -385.4837750638874354 [Eh]
	-----------------------------------------------------------

  Dipole Moment: [D]
     X:     0.4204      Y:    -1.3006      Z:    -0.0209     Total:     1.3670

*** Psi4 exiting successfully. Buy a developer a beer!
