                               Psi4 1.3.2 release

  ==> Input File <==

--------------------------------------------------------------------------
#psi4
#
memory 32 gb

molecule  {
0 1
  O       -3.1417080     0.0705380     0.3169670
  C        0.9902420    -0.0039870    -0.3612050
  C        2.4872910    -0.0052090    -0.5397260
  C        0.2806140    -1.2015640    -0.2442060
  C        0.2798770     1.1950560    -0.2368630
  C        3.2312830    -0.0061060     0.7967240
  C       -1.0960700    -1.2065460    -0.0157640
  C       -1.0950530     1.2066380    -0.0091780
  C       -1.9838025     0.0118028     0.1329373
  H        2.7838010    -0.8823900    -1.1265120
  H        2.7835740     0.8731460    -1.1246690
  H        0.8095070    -2.1483250    -0.3363770
  H        0.8092330     2.1418130    -0.3228610
  H        2.9650580     0.8755680     1.3857970
  H        4.3169070    -0.0053560     0.6533480
  H        2.9660240    -0.8892340     1.3840690
  H       -1.6288030    -2.1532140     0.0657430
  H       -1.6431320     2.1402150     0.0795740
  H       -3.4941530    -0.8345020     0.3676020
units angstrom
no_reorient  #important for SAPT in psi4, default
symmetry c1  #important for SAPT in psi4, default
}

set PROPERTIES_ORIGIN ["COM"]
properties('MP2/aug-cc-pvtz', properties = ['dipole'])
--------------------------------------------------------------------------

    Molecular point group: c1
  Charge       = 0
  Multiplicity = 1
  Basis Set: AUG-CC-PVTZ
    Blend: AUG-CC-PVTZ
  Basis Set: (AUG-CC-PVTZ AUX)
    Blend: AUG-CC-PVTZ-JKFIT

    Orbital Energies [Eh]
    ---------------------

    Doubly Occupied:

       1A    -20.636034     2A    -11.325380     3A    -11.233403
       4A    -11.232198     5A    -11.230657     6A    -11.224068
       7A    -11.218856     8A    -11.215573     9A    -11.208269
      10A     -1.534612    11A     -1.128784    12A     -1.039562
      13A     -1.000135    14A     -0.965589    15A     -0.885115
      16A     -0.837776    17A     -0.808588    18A     -0.748523
      19A     -0.706560    20A     -0.667296    21A     -0.644960
      22A     -0.609761    23A     -0.599663    24A     -0.568186
      25A     -0.566726    26A     -0.552984    27A     -0.517541
      28A     -0.479368    29A     -0.472773    30A     -0.454403
      31A     -0.443629    32A     -0.331864    33A     -0.273812

  @DF-RHF Final Energy:  -383.70450341349215

   => Energetics <=

    Nuclear Repulsion Energy =            417.5633275100612423
    One-Electron Energy =               -1347.8103677701997185
    Two-Electron Energy =                 546.5425368466462714
    Total Energy =                       -383.7045034134921480
  Basis Set: (AUG-CC-PVTZ AUX)
    Blend: AUG-CC-PVTZ-RI
    Molecular point group: c1

    Geometry (in Angstrom), charge = 0, multiplicity = 1:

       Center              X                  Y                   Z               Mass
    ------------   -----------------  -----------------  -----------------  -----------------
         O           -3.122315698246     0.069554294647     0.313884979906    15.994914619570
         C            1.009634301754    -0.004970705353    -0.364287020094    12.000000000000
         C            2.506683301754    -0.006192705353    -0.542808020094    12.000000000000
         C            0.300006301754    -1.202547705353    -0.247288020094    12.000000000000
         C            0.299269301754     1.194072294647    -0.239945020094    12.000000000000
         C            3.250675301754    -0.007089705353     0.793641979906    12.000000000000
         C           -1.076677698246    -1.207529705353    -0.018846020094    12.000000000000
         C           -1.075660698246     1.205654294647    -0.012260020094    12.000000000000
         C           -1.964410198246     0.010819094647     0.129855279906    12.000000000000
         H            2.803193301754    -0.883373705353    -1.129594020094     1.007825032230
         H            2.802966301754     0.872162294647    -1.127751020094     1.007825032230
         H            0.828899301754    -2.149308705353    -0.339459020094     1.007825032230
         H            0.828625301754     2.140829294647    -0.325943020094     1.007825032230
         H            2.984450301754     0.874584294647     1.382714979906     1.007825032230
         H            4.336299301754    -0.006339705353     0.650265979906     1.007825032230
         H            2.985416301754    -0.890217705353     1.380986979906     1.007825032230
         H           -1.609410698246    -2.154197705353     0.062660979906     1.007825032230
         H           -1.623739698246     2.139231294647     0.076491979906     1.007825032230
         H           -3.474760698246    -0.835485705353     0.364519979906     1.007825032230

  Basis Set: AUG-CC-PVTZ
    Blend: AUG-CC-PVTZ
  Basis Set: (AUG-CC-PVTZ AUX)
    Blend: AUG-CC-PVTZ-JKFIT
	 Reference Energy          =    -383.7045034134921480 [Eh]
	 Singles Energy            =      -0.0000000000000000 [Eh]
	 Same-Spin Energy          =      -0.4139656617128071 [Eh]
	 Opposite-Spin Energy      =      -1.3194456323797090 [Eh]
	 Correlation Energy        =      -1.7334112940925162 [Eh]
	 Total Energy              =    -385.4379147075846390 [Eh]

	 ================> DF-SCS-MP2 Energies <==================
	-----------------------------------------------------------
	 SCS Same-Spin Scale       =       0.3333333333333333 [-]
	 SCS Opposite-Spin Scale   =       1.2000000000000000 [-]
	 SCS Same-Spin Energy      =      -0.1379885539042690 [Eh]
	 SCS Opposite-Spin Energy  =      -1.5833347588556508 [Eh]
	 SCS Correlation Energy    =      -1.7213233127599199 [Eh]
	 SCS Total Energy          =    -385.4258267262520690 [Eh]
	-----------------------------------------------------------

  Dipole Moment: [D]
     X:    -1.2212      Y:    -1.2876      Z:     0.2262     Total:     1.7890

*** Psi4 exiting successfully. Buy a developer a beer!
