                               Psi4 1.3.2 release

  ==> Input File <==

--------------------------------------------------------------------------
#psi4
#
memory 32 gb

molecule  {
0 1
  O       -3.1417080     0.0705380     0.3169670
  C        0.9894649    -0.0151467    -0.3681301
  C        2.4872910    -0.0052090    -0.5397260
  C        0.2806140    -1.2015640    -0.2442060
  C        0.2798770     1.1950560    -0.2368630
  C        3.2312830    -0.0061060     0.7967240
  C       -1.0960700    -1.2065460    -0.0157640
  C       -1.0950530     1.2066380    -0.0091780
  C       -1.7865290     0.0017960     0.1015840
  H        2.7746300    -0.8850482    -1.1270946
  H        2.7835740     0.8731460    -1.1246690
  H        0.8095070    -2.1483250    -0.3363770
  H        0.8092330     2.1418130    -0.3228610
  H        2.9650580     0.8755680     1.3857970
  H        4.3169070    -0.0053560     0.6533480
  H        2.9660240    -0.8892340     1.3840690
  H       -1.6288030    -2.1532140     0.0657430
  H       -1.6431320     2.1402150     0.0795740
  H       -3.4941530    -0.8345020     0.3676020
units angstrom
no_reorient  #important for SAPT in psi4, default
symmetry c1  #important for SAPT in psi4, default
}

set PROPERTIES_ORIGIN ["COM"]
properties('MP2/aug-cc-pvtz', properties = ['dipole'])
--------------------------------------------------------------------------

    Molecular point group: c1
  Charge       = 0
  Multiplicity = 1
  Basis Set: AUG-CC-PVTZ
    Blend: AUG-CC-PVTZ
  Basis Set: (AUG-CC-PVTZ AUX)
    Blend: AUG-CC-PVTZ-JKFIT

    Orbital Energies [Eh]
    ---------------------

    Doubly Occupied:

       1A    -20.589426     2A    -11.299438     3A    -11.237443
       4A    -11.236969     5A    -11.234289     6A    -11.230816
       7A    -11.228426     8A    -11.227064     9A    -11.215423
      10A     -1.398586    11A     -1.151079    12A     -1.057993
      13A     -1.016716    14A     -0.975542    15A     -0.862015
      16A     -0.843062    17A     -0.790853    18A     -0.728473
      19A     -0.672595    20A     -0.646298    21A     -0.612689
      22A     -0.596797    23A     -0.587688    24A     -0.585420
      25A     -0.569102    26A     -0.555635    27A     -0.523736
      28A     -0.498294    29A     -0.481408    30A     -0.476245
      31A     -0.468225    32A     -0.340395    33A     -0.305960

  @DF-RHF Final Energy:  -383.76654787331529

   => Energetics <=

    Nuclear Repulsion Energy =            418.3151441171950751
    One-Electron Energy =               -1349.6751789561101305
    Two-Electron Energy =                 547.5934869655997090
    Total Energy =                       -383.7665478733152895
  Basis Set: (AUG-CC-PVTZ AUX)
    Blend: AUG-CC-PVTZ-RI
    Molecular point group: c1

    Geometry (in Angstrom), charge = 0, multiplicity = 1:

       Center              X                  Y                   Z               Mass
    ------------   -----------------  -----------------  -----------------  -----------------
         O           -3.141555914044     0.071656943502     0.317652621705    15.994914619570
         C            0.989616985956    -0.014027756498    -0.367444478295    12.000000000000
         C            2.487443085956    -0.004090056498    -0.539040378295    12.000000000000
         C            0.280766085956    -1.200445056498    -0.243520378295    12.000000000000
         C            0.280029085956     1.196174943502    -0.236177378295    12.000000000000
         C            3.231435085956    -0.004987056498     0.797409621705    12.000000000000
         C           -1.095917914044    -1.205427056498    -0.015078378295    12.000000000000
         C           -1.094900914044     1.207756943502    -0.008492378295    12.000000000000
         C           -1.786376914044     0.002914943502     0.102269621705    12.000000000000
         H            2.774782085956    -0.883929256498    -1.126408978295     1.007825032230
         H            2.783726085956     0.874264943502    -1.123983378295     1.007825032230
         H            0.809659085956    -2.147206056498    -0.335691378295     1.007825032230
         H            0.809385085956     2.142931943502    -0.322175378295     1.007825032230
         H            2.965210085956     0.876686943502     1.386482621705     1.007825032230
         H            4.317059085956    -0.004237056498     0.654033621705     1.007825032230
         H            2.966176085956    -0.888115056498     1.384754621705     1.007825032230
         H           -1.628650914044    -2.152095056498     0.066428621705     1.007825032230
         H           -1.642979914044     2.141333943502     0.080259621705     1.007825032230
         H           -3.494000914044    -0.833383056498     0.368287621705     1.007825032230

  Basis Set: AUG-CC-PVTZ
    Blend: AUG-CC-PVTZ
  Basis Set: (AUG-CC-PVTZ AUX)
    Blend: AUG-CC-PVTZ-JKFIT
	 Reference Energy          =    -383.7665478733152895 [Eh]
	 Singles Energy            =      -0.0000000000000000 [Eh]
	 Same-Spin Energy          =      -0.4127328110779440 [Eh]
	 Opposite-Spin Energy      =      -1.3187345770388317 [Eh]
	 Correlation Energy        =      -1.7314673881167757 [Eh]
	 Total Energy              =    -385.4980152614320446 [Eh]

	 ================> DF-SCS-MP2 Energies <==================
	-----------------------------------------------------------
	 SCS Same-Spin Scale       =       0.3333333333333333 [-]
	 SCS Opposite-Spin Scale   =       1.2000000000000000 [-]
	 SCS Same-Spin Energy      =      -0.1375776036926480 [Eh]
	 SCS Opposite-Spin Energy  =      -1.5824814924465980 [Eh]
	 SCS Correlation Energy    =      -1.7200590961392459 [Eh]
	 SCS Total Energy          =    -385.4866069694545558 [Eh]
	-----------------------------------------------------------

  Dipole Moment: [D]
     X:     0.4623      Y:    -1.2624      Z:    -0.0126     Total:     1.3444

*** Psi4 exiting successfully. Buy a developer a beer!
