                               Psi4 1.3.2 release

  ==> Input File <==

--------------------------------------------------------------------------
#psi4
#
memory 32 gb

molecule  {
0 1
  O       -3.1417080     0.0705380     0.3169670
  C        0.9902420    -0.0039870    -0.3612050
  C        2.4872910    -0.0052090    -0.5397260
  C        0.2806140    -1.2015640    -0.2442060
  C        0.2798770     1.1950560    -0.2368630
  C        3.2312830    -0.0061060     0.7967240
  C       -1.0960700    -1.2065460    -0.0157640
  C       -1.0950530     1.2066380    -0.0091780
  C       -1.5892555    -0.0082108     0.0702307
  H        2.7838010    -0.8823900    -1.1265120
  H        2.7835740     0.8731460    -1.1246690
  H        0.8095070    -2.1483250    -0.3363770
  H        0.8092330     2.1418130    -0.3228610
  H        2.9650580     0.8755680     1.3857970
  H        4.3169070    -0.0053560     0.6533480
  H        2.9660240    -0.8892340     1.3840690
  H       -1.6288030    -2.1532140     0.0657430
  H       -1.6431320     2.1402150     0.0795740
  H       -3.4941530    -0.8345020     0.3676020
units angstrom
no_reorient  #important for SAPT in psi4, default
symmetry c1  #important for SAPT in psi4, default
}

set PROPERTIES_ORIGIN ["COM"]
properties('MP2/aug-cc-pvtz', properties = ['dipole'])
--------------------------------------------------------------------------

    Molecular point group: c1
  Charge       = 0
  Multiplicity = 1
  Basis Set: AUG-CC-PVTZ
    Blend: AUG-CC-PVTZ
  Basis Set: (AUG-CC-PVTZ AUX)
    Blend: AUG-CC-PVTZ-JKFIT

    Orbital Energies [Eh]
    ---------------------

    Doubly Occupied:

       1A    -20.551434     2A    -11.288534     3A    -11.244959
       4A    -11.243514     5A    -11.239430     6A    -11.235072
       7A    -11.232713     8A    -11.231470     9A    -11.219782
      10A     -1.314899    11A     -1.178296    12A     -1.072396
      13A     -1.040031    14A     -0.983632    15A     -0.861632
      16A     -0.857055    17A     -0.793817    18A     -0.699061
      19A     -0.673017    20A     -0.645988    21A     -0.620033
      22A     -0.608728    23A     -0.591752    24A     -0.568632
      25A     -0.555744    26A     -0.528939    27A     -0.520479
      28A     -0.507612    29A     -0.487270    30A     -0.472127
      31A     -0.469573    32A     -0.351072    33A     -0.329820

  @DF-RHF Final Energy:  -383.72242163792481

   => Energetics <=

    Nuclear Repulsion Energy =            419.9889362626553861
    One-Electron Energy =               -1352.9856940542072152
    Two-Electron Energy =                 549.2743361536269049
    Total Energy =                       -383.7224216379248674
  Basis Set: (AUG-CC-PVTZ AUX)
    Blend: AUG-CC-PVTZ-RI
    Molecular point group: c1

    Geometry (in Angstrom), charge = 0, multiplicity = 1:

       Center              X                  Y                   Z               Mass
    ------------   -----------------  -----------------  -----------------  -----------------
         O           -3.161100340246     0.071521665609     0.320049145473    15.994914619570
         C            0.970849659754    -0.003003334391    -0.358122854527    12.000000000000
         C            2.467898659754    -0.004225334391    -0.536643854527    12.000000000000
         C            0.261221659754    -1.200580334391    -0.241123854527    12.000000000000
         C            0.260484659754     1.196039665609    -0.233780854527    12.000000000000
         C            3.211890659754    -0.005122334391     0.799806145473    12.000000000000
         C           -1.115462340246    -1.205562334391    -0.012681854527    12.000000000000
         C           -1.114445340246     1.207621665609    -0.006095854527    12.000000000000
         C           -1.608647840246    -0.007227134391     0.073312845473    12.000000000000
         H            2.764408659754    -0.881406334391    -1.123429854527     1.007825032230
         H            2.764181659754     0.874129665609    -1.121586854527     1.007825032230
         H            0.790114659754    -2.147341334391    -0.333294854527     1.007825032230
         H            0.789840659754     2.142796665609    -0.319778854527     1.007825032230
         H            2.945665659754     0.876551665609     1.388879145473     1.007825032230
         H            4.297514659754    -0.004372334391     0.656430145473     1.007825032230
         H            2.946631659754    -0.888250334391     1.387151145473     1.007825032230
         H           -1.648195340246    -2.152230334391     0.068825145473     1.007825032230
         H           -1.662524340246     2.141198665609     0.082656145473     1.007825032230
         H           -3.513545340246    -0.833518334391     0.370684145473     1.007825032230

  Basis Set: AUG-CC-PVTZ
    Blend: AUG-CC-PVTZ
  Basis Set: (AUG-CC-PVTZ AUX)
    Blend: AUG-CC-PVTZ-JKFIT
	 Reference Energy          =    -383.7224216379248105 [Eh]
	 Singles Energy            =      -0.0000000000000000 [Eh]
	 Same-Spin Energy          =      -0.4140862110290050 [Eh]
	 Opposite-Spin Energy      =      -1.3226792582555738 [Eh]
	 Correlation Energy        =      -1.7367654692845789 [Eh]
	 Total Energy              =    -385.4591871072094023 [Eh]

	 ================> DF-SCS-MP2 Energies <==================
	-----------------------------------------------------------
	 SCS Same-Spin Scale       =       0.3333333333333333 [-]
	 SCS Opposite-Spin Scale   =       1.2000000000000000 [-]
	 SCS Same-Spin Energy      =      -0.1380287370096683 [Eh]
	 SCS Opposite-Spin Energy  =      -1.5872151099066885 [Eh]
	 SCS Correlation Energy    =      -1.7252438469163569 [Eh]
	 SCS Total Energy          =    -385.4476654848411954 [Eh]
	-----------------------------------------------------------

  Dipole Moment: [D]
     X:     1.7795      Y:    -1.2462      Z:    -0.2126     Total:     2.1829

*** Psi4 exiting successfully. Buy a developer a beer!
