                               Psi4 1.3.2 release

  ==> Input File <==

--------------------------------------------------------------------------
#psi4
#
memory 32 gb

molecule  {
0 1
  O       -3.1417080     0.0705380     0.3169670
  C        1.0005438     0.0023516    -0.3628748
  C        2.4872910    -0.0052090    -0.5397260
  C        0.2806140    -1.2015640    -0.2442060
  C        0.2798770     1.1950560    -0.2368630
  C        3.2312830    -0.0061060     0.7967240
  C       -1.0960700    -1.2065460    -0.0157640
  C       -1.0948899     1.2187991    -0.0091366
  C       -1.7865290     0.0017960     0.1015840
  H        2.7838010    -0.8823900    -1.1265120
  H        2.7835740     0.8731460    -1.1246690
  H        0.8095070    -2.1483250    -0.3363770
  H        0.8092330     2.1418130    -0.3228610
  H        2.9650580     0.8755680     1.3857970
  H        4.3169070    -0.0053560     0.6533480
  H        2.9660240    -0.8892340     1.3840690
  H       -1.6288030    -2.1532140     0.0657430
  H       -1.6431320     2.1402150     0.0795740
  H       -3.4941530    -0.8345020     0.3676020
units angstrom
no_reorient  #important for SAPT in psi4, default
symmetry c1  #important for SAPT in psi4, default
}

set PROPERTIES_ORIGIN ["COM"]
properties('MP2/aug-cc-pvtz', properties = ['dipole'])
--------------------------------------------------------------------------

    Molecular point group: c1
  Charge       = 0
  Multiplicity = 1
  Basis Set: AUG-CC-PVTZ
    Blend: AUG-CC-PVTZ
  Basis Set: (AUG-CC-PVTZ AUX)
    Blend: AUG-CC-PVTZ-JKFIT

    Orbital Energies [Eh]
    ---------------------

    Doubly Occupied:

       1A    -20.589703     2A    -11.300830     3A    -11.239515
       4A    -11.236339     5A    -11.234690     6A    -11.231536
       7A    -11.228417     8A    -11.226744     9A    -11.215351
      10A     -1.398731    11A     -1.149504    12A     -1.058751
      13A     -1.016442    14A     -0.974457    15A     -0.862380
      16A     -0.842048    17A     -0.792192    18A     -0.727731
      19A     -0.672090    20A     -0.648899    21A     -0.612349
      22A     -0.596118    23A     -0.587439    24A     -0.585730
      25A     -0.569990    26A     -0.555250    27A     -0.523866
      28A     -0.497606    29A     -0.482969    30A     -0.476977
      31A     -0.466991    32A     -0.340637    33A     -0.304049

  @DF-RHF Final Energy:  -383.76603925974513

   => Energetics <=

    Nuclear Repulsion Energy =            418.0467916493665257
    One-Electron Energy =               -1349.1330221502057611
    Two-Electron Energy =                 547.3201912410941077
    Total Energy =                       -383.7660392597451846
  Basis Set: (AUG-CC-PVTZ AUX)
    Blend: AUG-CC-PVTZ-RI
    Molecular point group: c1

    Geometry (in Angstrom), charge = 0, multiplicity = 1:

       Center              X                  Y                   Z               Mass
    ------------   -----------------  -----------------  -----------------  -----------------
         O           -3.142736736737     0.068719428114     0.317127137182    15.994914619570
         C            0.999515063263     0.000533028114    -0.362714662818    12.000000000000
         C            2.486262263263    -0.007027571886    -0.539565862818    12.000000000000
         C            0.279585263263    -1.203382571886    -0.244045862818    12.000000000000
         C            0.278848263263     1.193237428114    -0.236702862818    12.000000000000
         C            3.230254263263    -0.007924571886     0.796884137182    12.000000000000
         C           -1.097098736737    -1.208364571886    -0.015603862818    12.000000000000
         C           -1.095918636737     1.216980528114    -0.008976462818    12.000000000000
         C           -1.787557736737    -0.000022571886     0.101744137182    12.000000000000
         H            2.782772263263    -0.884208571886    -1.126351862818     1.007825032230
         H            2.782545263263     0.871327428114    -1.124508862818     1.007825032230
         H            0.808478263263    -2.150143571886    -0.336216862818     1.007825032230
         H            0.808204263263     2.139994428114    -0.322700862818     1.007825032230
         H            2.964029263263     0.873749428114     1.385957137182     1.007825032230
         H            4.315878263263    -0.007174571886     0.653508137182     1.007825032230
         H            2.964995263263    -0.891052571886     1.384229137182     1.007825032230
         H           -1.629831736737    -2.155032571886     0.065903137182     1.007825032230
         H           -1.644160736737     2.138396428114     0.079734137182     1.007825032230
         H           -3.495181736737    -0.836320571886     0.367762137182     1.007825032230

  Basis Set: AUG-CC-PVTZ
    Blend: AUG-CC-PVTZ
  Basis Set: (AUG-CC-PVTZ AUX)
    Blend: AUG-CC-PVTZ-JKFIT
	 Reference Energy          =    -383.7660392597451278 [Eh]
	 Singles Energy            =      -0.0000000000000000 [Eh]
	 Same-Spin Energy          =      -0.4128423096049155 [Eh]
	 Opposite-Spin Energy      =      -1.3189682341216358 [Eh]
	 Correlation Energy        =      -1.7318105437265512 [Eh]
	 Total Energy              =    -385.4978498034716949 [Eh]

	 ================> DF-SCS-MP2 Energies <==================
	-----------------------------------------------------------
	 SCS Same-Spin Scale       =       0.3333333333333333 [-]
	 SCS Opposite-Spin Scale   =       1.2000000000000000 [-]
	 SCS Same-Spin Energy      =      -0.1376141032016385 [Eh]
	 SCS Opposite-Spin Energy  =      -1.5827618809459629 [Eh]
	 SCS Correlation Energy    =      -1.7203759841476014 [Eh]
	 SCS Total Energy          =    -385.4864152438927363 [Eh]
	-----------------------------------------------------------

  Dipole Moment: [D]
     X:     0.4600      Y:    -1.2762      Z:    -0.0158     Total:     1.3566

*** Psi4 exiting successfully. Buy a developer a beer!
