                               Psi4 1.3.2 release

  ==> Input File <==

--------------------------------------------------------------------------
#psi4
#
memory 32 gb

molecule  {
0 1
  O       -3.1417080     0.0705380     0.3169670
  C        0.9902420    -0.0039870    -0.3612050
  C        2.4872910    -0.0052090    -0.5397260
  C        0.2806140    -1.2015640    -0.2442060
  C        0.2798770     1.1950560    -0.2368630
  C        3.2312830    -0.0061060     0.7967240
  C       -1.0960700    -1.2065460    -0.0157640
  C       -1.0950530     1.2066380    -0.0091780
  C       -1.7656648    -0.0102423     0.0982173
  H        2.7838010    -0.8823900    -1.1265120
  H        2.7835740     0.8731460    -1.1246690
  H        0.8095070    -2.1483250    -0.3363770
  H        0.8092330     2.1418130    -0.3228610
  H        2.9650580     0.8755680     1.3857970
  H        4.3169070    -0.0053560     0.6533480
  H        2.9660240    -0.8892340     1.3840690
  H       -1.6288030    -2.1532140     0.0657430
  H       -1.6269619     2.1497627     0.0769744
  H       -3.4941530    -0.8345020     0.3676020
units angstrom
no_reorient  #important for SAPT in psi4, default
symmetry c1  #important for SAPT in psi4, default
}

set PROPERTIES_ORIGIN ["COM"]
properties('MP2/aug-cc-pvtz', properties = ['dipole'])
--------------------------------------------------------------------------

    Molecular point group: c1
  Charge       = 0
  Multiplicity = 1
  Basis Set: AUG-CC-PVTZ
    Blend: AUG-CC-PVTZ
  Basis Set: (AUG-CC-PVTZ AUX)
    Blend: AUG-CC-PVTZ-JKFIT

    Orbital Energies [Eh]
    ---------------------

    Doubly Occupied:

       1A    -20.585602     2A    -11.297608     3A    -11.238618
       4A    -11.236599     5A    -11.233694     6A    -11.231981
       7A    -11.229593     8A    -11.227682     9A    -11.215782
      10A     -1.387831    11A     -1.153731    12A     -1.059764
      13A     -1.018791    14A     -0.976622    15A     -0.861004
      16A     -0.844257    17A     -0.791226    18A     -0.723766
      19A     -0.672303    20A     -0.645455    21A     -0.612631
      22A     -0.595663    23A     -0.589822    24A     -0.581682
      25A     -0.568301    26A     -0.553391    27A     -0.523322
      28A     -0.501141    29A     -0.480104    30A     -0.479551
      31A     -0.469371    32A     -0.341580    33A     -0.308779

  @DF-RHF Final Energy:  -383.76581772073609

   => Energetics <=

    Nuclear Repulsion Energy =            418.4562447348957335
    One-Electron Energy =               -1349.9696339706770232
    Two-Electron Energy =                 547.7475715150451379
    Total Energy =                       -383.7658177207360950
  Basis Set: (AUG-CC-PVTZ AUX)
    Blend: AUG-CC-PVTZ-RI
    Molecular point group: c1

    Geometry (in Angstrom), charge = 0, multiplicity = 1:

       Center              X                  Y                   Z               Mass
    ------------   -----------------  -----------------  -----------------  -----------------
         O           -3.143892504523     0.071642540569     0.317319477096    15.994914619570
         C            0.988057495477    -0.002882459431    -0.360852522904    12.000000000000
         C            2.485106495477    -0.004104459431    -0.539373522904    12.000000000000
         C            0.278429495477    -1.200459459431    -0.243853522904    12.000000000000
         C            0.277692495477     1.196160540569    -0.236510522904    12.000000000000
         C            3.229098495477    -0.005001459431     0.797076477096    12.000000000000
         C           -1.098254504523    -1.205441459431    -0.015411522904    12.000000000000
         C           -1.097237504523     1.207742540569    -0.008825522904    12.000000000000
         C           -1.767849304523    -0.009137759431     0.098569777096    12.000000000000
         H            2.781616495477    -0.881285459431    -1.126159522904     1.007825032230
         H            2.781389495477     0.874250540569    -1.124316522904     1.007825032230
         H            0.807322495477    -2.147220459431    -0.336024522904     1.007825032230
         H            0.807048495477     2.142917540569    -0.322508522904     1.007825032230
         H            2.962873495477     0.876672540569     1.386149477096     1.007825032230
         H            4.314722495477    -0.004251459431     0.653700477096     1.007825032230
         H            2.963839495477    -0.888129459431     1.384421477096     1.007825032230
         H           -1.630987504523    -2.152109459431     0.066095477096     1.007825032230
         H           -1.629146404523     2.150867240569     0.077326877096     1.007825032230
         H           -3.496337504523    -0.833397459431     0.367954477096     1.007825032230

  Basis Set: AUG-CC-PVTZ
    Blend: AUG-CC-PVTZ
  Basis Set: (AUG-CC-PVTZ AUX)
    Blend: AUG-CC-PVTZ-JKFIT
	 Reference Energy          =    -383.7658177207360950 [Eh]
	 Singles Energy            =      -0.0000000000000000 [Eh]
	 Same-Spin Energy          =      -0.4127422422815679 [Eh]
	 Opposite-Spin Energy      =      -1.3189573570718944 [Eh]
	 Correlation Energy        =      -1.7316995993534623 [Eh]
	 Total Energy              =    -385.4975173200895711 [Eh]

	 ================> DF-SCS-MP2 Energies <==================
	-----------------------------------------------------------
	 SCS Same-Spin Scale       =       0.3333333333333333 [-]
	 SCS Opposite-Spin Scale   =       1.2000000000000000 [-]
	 SCS Same-Spin Energy      =      -0.1375807474271893 [Eh]
	 SCS Opposite-Spin Energy  =      -1.5827488284862732 [Eh]
	 SCS Correlation Energy    =      -1.7203295759134625 [Eh]
	 SCS Total Energy          =    -385.4861472966495626 [Eh]
	-----------------------------------------------------------

  Dipole Moment: [D]
     X:     0.6192      Y:    -1.2683      Z:    -0.0413     Total:     1.4120

*** Psi4 exiting successfully. Buy a developer a beer!
