                               Psi4 1.3.2 release

  ==> Input File <==

--------------------------------------------------------------------------
#psi4
#
memory 32 gb

molecule  {
0 1
  O       -3.1417080     0.0705380     0.3169670
  C        0.9902420    -0.0039870    -0.3612050
  C        2.4872910    -0.0052090    -0.5397260
  C        0.2806140    -1.2015640    -0.2442060
  C        0.2798770     1.1950560    -0.2368630
  C        3.2312830    -0.0061060     0.7967240
  C       -1.0960700    -1.2065460    -0.0157640
  C       -1.0950530     1.2066380    -0.0091780
  C       -1.7233301    -0.0332032     0.0913869
  H        2.7838010    -0.8823900    -1.1265120
  H        2.7835740     0.8731460    -1.1246690
  H        0.8095070    -2.1483250    -0.3363770
  H        0.8092330     2.1418130    -0.3228610
  H        2.9650580     0.8755680     1.3857970
  H        4.3169070    -0.0053560     0.6533480
  H        2.9660240    -0.8892340     1.3840690
  H       -1.6288030    -2.1532140     0.0657430
  H       -1.5941406     2.1679934     0.0716972
  H       -3.4941530    -0.8345020     0.3676020
units angstrom
no_reorient  #important for SAPT in psi4, default
symmetry c1  #important for SAPT in psi4, default
}

set PROPERTIES_ORIGIN ["COM"]
properties('MP2/aug-cc-pvtz', properties = ['dipole'])
--------------------------------------------------------------------------

    Molecular point group: c1
  Charge       = 0
  Multiplicity = 1
  Basis Set: AUG-CC-PVTZ
    Blend: AUG-CC-PVTZ
  Basis Set: (AUG-CC-PVTZ AUX)
    Blend: AUG-CC-PVTZ-JKFIT

    Orbital Energies [Eh]
    ---------------------

    Doubly Occupied:

       1A    -20.578050     2A    -11.294532     3A    -11.239678
       4A    -11.237256     5A    -11.233940     6A    -11.232466
       7A    -11.231492     8A    -11.228880     9A    -11.216813
      10A     -1.367649    11A     -1.159435    12A     -1.063566
      13A     -1.023279    14A     -0.978384    15A     -0.860636
      16A     -0.846651    17A     -0.791723    18A     -0.714538
      19A     -0.673575    20A     -0.643227    21A     -0.611696
      22A     -0.598534    23A     -0.592976    24A     -0.573642
      25A     -0.565042    26A     -0.547449    27A     -0.522600
      28A     -0.506851    29A     -0.481929    30A     -0.479720
      31A     -0.471362    32A     -0.344441    33A     -0.314101

  @DF-RHF Final Energy:  -383.75894489946944

   => Energetics <=

    Nuclear Repulsion Energy =            418.7634647505139469
    One-Electron Energy =               -1350.5925925108347201
    Two-Electron Energy =                 548.0701828608512187
    Total Energy =                       -383.7589448994694976
  Basis Set: (AUG-CC-PVTZ AUX)
    Blend: AUG-CC-PVTZ-RI
    Molecular point group: c1

    Geometry (in Angstrom), charge = 0, multiplicity = 1:

       Center              X                  Y                   Z               Mass
    ------------   -----------------  -----------------  -----------------  -----------------
         O           -3.148325047318     0.073749125127     0.318034485134    15.994914619570
         C            0.983624952682    -0.000775874873    -0.360137514866    12.000000000000
         C            2.480673952682    -0.001997874873    -0.538658514866    12.000000000000
         C            0.273996952682    -1.198352874873    -0.243138514866    12.000000000000
         C            0.273259952682     1.198267125127    -0.235795514866    12.000000000000
         C            3.224665952682    -0.002894874873     0.797791485134    12.000000000000
         C           -1.102687047318    -1.203334874873    -0.014696514866    12.000000000000
         C           -1.101670047318     1.209849125127    -0.008110514866    12.000000000000
         C           -1.729947147318    -0.029992074873     0.092454385134    12.000000000000
         H            2.777183952682    -0.879178874873    -1.125444514866     1.007825032230
         H            2.776956952682     0.876357125127    -1.123601514866     1.007825032230
         H            0.802889952682    -2.145113874873    -0.335309514866     1.007825032230
         H            0.802615952682     2.145024125127    -0.321793514866     1.007825032230
         H            2.958440952682     0.878779125127     1.386864485134     1.007825032230
         H            4.310289952682    -0.002144874873     0.654415485134     1.007825032230
         H            2.959406952682    -0.886022874873     1.385136485134     1.007825032230
         H           -1.635420047318    -2.150002874873     0.066810485134     1.007825032230
         H           -1.600757647318     2.171204525127     0.072764685134     1.007825032230
         H           -3.500770047318    -0.831290874873     0.368669485134     1.007825032230

  Basis Set: AUG-CC-PVTZ
    Blend: AUG-CC-PVTZ
  Basis Set: (AUG-CC-PVTZ AUX)
    Blend: AUG-CC-PVTZ-JKFIT
	 Reference Energy          =    -383.7589448994694408 [Eh]
	 Singles Energy            =      -0.0000000000000000 [Eh]
	 Same-Spin Energy          =      -0.4128292377435704 [Eh]
	 Opposite-Spin Energy      =      -1.3196823960659132 [Eh]
	 Correlation Energy        =      -1.7325116338094837 [Eh]
	 Total Energy              =    -385.4914565332789493 [Eh]

	 ================> DF-SCS-MP2 Energies <==================
	-----------------------------------------------------------
	 SCS Same-Spin Scale       =       0.3333333333333333 [-]
	 SCS Opposite-Spin Scale   =       1.2000000000000000 [-]
	 SCS Same-Spin Energy      =      -0.1376097459145235 [Eh]
	 SCS Opposite-Spin Energy  =      -1.5836188752790958 [Eh]
	 SCS Correlation Energy    =      -1.7212286211936192 [Eh]
	 SCS Total Energy          =    -385.4801735206630724 [Eh]
	-----------------------------------------------------------

  Dipole Moment: [D]
     X:     0.9232      Y:    -1.2645      Z:    -0.0864     Total:     1.5680

*** Psi4 exiting successfully. Buy a developer a beer!
