                               Psi4 1.3.2 release

  ==> Input File <==

--------------------------------------------------------------------------
#psi4
#
memory 32 gb

molecule  {
0 1
  O       -3.1417080     0.0705380     0.3169670
  C        0.9273229    -0.0400844    -0.3509917
  C        2.4872910    -0.0052090    -0.5397260
  C        0.2806140    -1.2015640    -0.2442060
  C        0.2798770     1.1950560    -0.2368630
  C        3.2312830    -0.0061060     0.7967240
  C       -1.0960700    -1.2065460    -0.0157640
  C       -1.0938328     1.1336850    -0.0097901
  C       -1.7865290     0.0017960     0.1015840
  H        2.7838010    -0.8823900    -1.1265120
  H        2.7835740     0.8731460    -1.1246690
  H        0.8095070    -2.1483250    -0.3363770
  H        0.8092330     2.1418130    -0.3228610
  H        2.9650580     0.8755680     1.3857970
  H        4.3169070    -0.0053560     0.6533480
  H        2.9660240    -0.8892340     1.3840690
  H       -1.6288030    -2.1532140     0.0657430
  H       -1.6431320     2.1402150     0.0795740
  H       -3.4941530    -0.8345020     0.3676020
units angstrom
no_reorient  #important for SAPT in psi4, default
symmetry c1  #important for SAPT in psi4, default
}

set PROPERTIES_ORIGIN ["COM"]
properties('MP2/aug-cc-pvtz', properties = ['dipole'])
--------------------------------------------------------------------------

    Molecular point group: c1
  Charge       = 0
  Multiplicity = 1
  Basis Set: AUG-CC-PVTZ
    Blend: AUG-CC-PVTZ
  Basis Set: (AUG-CC-PVTZ AUX)
    Blend: AUG-CC-PVTZ-JKFIT

    Orbital Energies [Eh]
    ---------------------

    Doubly Occupied:

       1A    -20.587845     2A    -11.290517     3A    -11.236872
       4A    -11.235579     5A    -11.229875     6A    -11.228684
       7A    -11.227323     8A    -11.226861     9A    -11.214592
      10A     -1.397735    11A     -1.162734    12A     -1.055265
      13A     -1.019490    14A     -0.982406    15A     -0.861173
      16A     -0.845066    17A     -0.786091    18A     -0.733397
      19A     -0.673533    20A     -0.636809    21A     -0.619747
      22A     -0.596006    23A     -0.590634    24A     -0.586024
      25A     -0.565893    26A     -0.555223    27A     -0.521535
      28A     -0.499606    29A     -0.483374    30A     -0.475898
      31A     -0.455272    32A     -0.342233    33A     -0.314942

  @DF-RHF Final Energy:  -383.75312498436148

   => Energetics <=

    Nuclear Repulsion Energy =            420.0859011177713001
    One-Electron Energy =               -1353.2015854495662097
    Two-Electron Energy =                 549.3625593474334892
    Total Energy =                       -383.7531249843614205
  Basis Set: (AUG-CC-PVTZ AUX)
    Blend: AUG-CC-PVTZ-RI
    Molecular point group: c1

    Geometry (in Angstrom), charge = 0, multiplicity = 1:

       Center              X                  Y                   Z               Mass
    ------------   -----------------  -----------------  -----------------  -----------------
         O           -3.135642912305     0.081257820157     0.316023248379    15.994914619570
         C            0.933387987695    -0.029364579843    -0.351935451621    12.000000000000
         C            2.493356087695     0.005510820157    -0.540669751621    12.000000000000
         C            0.286679087695    -1.190844179843    -0.245149751621    12.000000000000
         C            0.285942087695     1.205775820157    -0.237806751621    12.000000000000
         C            3.237348087695     0.004613820157     0.795780248379    12.000000000000
         C           -1.090004912305    -1.195826179843    -0.016707751621    12.000000000000
         C           -1.087767712305     1.144404820157    -0.010733851621    12.000000000000
         C           -1.780463912305     0.012515820157     0.100640248379    12.000000000000
         H            2.789866087695    -0.871670179843    -1.127455751621     1.007825032230
         H            2.789639087695     0.883865820157    -1.125612751621     1.007825032230
         H            0.815572087695    -2.137605179843    -0.337320751621     1.007825032230
         H            0.815298087695     2.152532820157    -0.323804751621     1.007825032230
         H            2.971123087695     0.886287820157     1.384853248379     1.007825032230
         H            4.322972087695     0.005363820157     0.652404248379     1.007825032230
         H            2.972089087695    -0.878514179843     1.383125248379     1.007825032230
         H           -1.622737912305    -2.142494179843     0.064799248379     1.007825032230
         H           -1.637066912305     2.150934820157     0.078630248379     1.007825032230
         H           -3.488087912305    -0.823782179843     0.366658248379     1.007825032230

  Basis Set: AUG-CC-PVTZ
    Blend: AUG-CC-PVTZ
  Basis Set: (AUG-CC-PVTZ AUX)
    Blend: AUG-CC-PVTZ-JKFIT
	 Reference Energy          =    -383.7531249843614773 [Eh]
	 Singles Energy            =      -0.0000000000000000 [Eh]
	 Same-Spin Energy          =      -0.4127313929101037 [Eh]
	 Opposite-Spin Energy      =      -1.3185059066142151 [Eh]
	 Correlation Energy        =      -1.7312372995243188 [Eh]
	 Total Energy              =    -385.4843622838857868 [Eh]

	 ================> DF-SCS-MP2 Energies <==================
	-----------------------------------------------------------
	 SCS Same-Spin Scale       =       0.3333333333333333 [-]
	 SCS Opposite-Spin Scale   =       1.2000000000000000 [-]
	 SCS Same-Spin Energy      =      -0.1375771309700346 [Eh]
	 SCS Opposite-Spin Energy  =      -1.5822070879370580 [Eh]
	 SCS Correlation Energy    =      -1.7197842189070927 [Eh]
	 SCS Total Energy          =    -385.4729092032685571 [Eh]
	-----------------------------------------------------------

  Dipole Moment: [D]
     X:     0.4986      Y:    -1.2640      Z:    -0.0348     Total:     1.3592

*** Psi4 exiting successfully. Buy a developer a beer!
