                               Psi4 1.3.2 release

  ==> Input File <==

--------------------------------------------------------------------------
#psi4
#
memory 32 gb

molecule  {
0 1
  O       -3.1417080     0.0705380     0.3169670
  C        0.9902420    -0.0039870    -0.3612050
  C        2.4861322    -0.0577963    -0.5413269
  C        0.2806140    -1.2015640    -0.2442060
  C        0.2386380     1.1692083    -0.2328012
  C        3.2312830    -0.0061060     0.7967240
  C       -1.0960700    -1.2065460    -0.0157640
  C       -1.0950530     1.2066380    -0.0091780
  C       -1.7865290     0.0017960     0.1015840
  H        2.7838010    -0.8823900    -1.1265120
  H        2.7835740     0.8731460    -1.1246690
  H        0.8095070    -2.1483250    -0.3363770
  H        0.8092330     2.1418130    -0.3228610
  H        2.9650580     0.8755680     1.3857970
  H        4.3169070    -0.0053560     0.6533480
  H        2.9660240    -0.8892340     1.3840690
  H       -1.6288030    -2.1532140     0.0657430
  H       -1.6431320     2.1402150     0.0795740
  H       -3.4941530    -0.8345020     0.3676020
units angstrom
no_reorient  #important for SAPT in psi4, default
symmetry c1  #important for SAPT in psi4, default
}

set PROPERTIES_ORIGIN ["COM"]
properties('MP2/aug-cc-pvtz', properties = ['dipole'])
--------------------------------------------------------------------------

    Molecular point group: c1
  Charge       = 0
  Multiplicity = 1
  Basis Set: AUG-CC-PVTZ
    Blend: AUG-CC-PVTZ
  Basis Set: (AUG-CC-PVTZ AUX)
    Blend: AUG-CC-PVTZ-JKFIT

    Orbital Energies [Eh]
    ---------------------

    Doubly Occupied:

       1A    -20.589841     2A    -11.299868     3A    -11.236843
       4A    -11.236397     5A    -11.232659     6A    -11.230380
       7A    -11.228527     8A    -11.224627     9A    -11.215791
      10A     -1.398976    11A     -1.154992    12A     -1.059139
      13A     -1.020197    14A     -0.975425    15A     -0.863528
      16A     -0.838799    17A     -0.796170    18A     -0.726008
      19A     -0.671514    20A     -0.650187    21A     -0.611360
      22A     -0.593811    23A     -0.588151    24A     -0.582042
      25A     -0.574828    26A     -0.555282    27A     -0.524833
      28A     -0.496075    29A     -0.485170    30A     -0.472715
      31A     -0.465912    32A     -0.345155    33A     -0.304605

  @DF-RHF Final Energy:  -383.76062783301228

   => Energetics <=

    Nuclear Repulsion Energy =            418.9518646741395855
    One-Electron Energy =               -1350.9253746607791982
    Two-Electron Energy =                 548.2128821536273335
    Total Energy =                       -383.7606278330122223
  Basis Set: (AUG-CC-PVTZ AUX)
    Blend: AUG-CC-PVTZ-RI
    Molecular point group: c1

    Geometry (in Angstrom), charge = 0, multiplicity = 1:

       Center              X                  Y                   Z               Mass
    ------------   -----------------  -----------------  -----------------  -----------------
         O           -3.137540243304     0.078248274200     0.316725152028    15.994914619570
         C            0.994409756696     0.003723274200    -0.361446847972    12.000000000000
         C            2.490299956696    -0.050086025800    -0.541568747972    12.000000000000
         C            0.284781756696    -1.193853725800    -0.244447847972    12.000000000000
         C            0.242805756696     1.176918574200    -0.233043047972    12.000000000000
         C            3.235450756696     0.001604274200     0.796482152028    12.000000000000
         C           -1.091902243304    -1.198835725800    -0.016005847972    12.000000000000
         C           -1.090885243304     1.214348274200    -0.009419847972    12.000000000000
         C           -1.782361243304     0.009506274200     0.101342152028    12.000000000000
         H            2.787968756696    -0.874679725800    -1.126753847972     1.007825032230
         H            2.787741756696     0.880856274200    -1.124910847972     1.007825032230
         H            0.813674756696    -2.140614725800    -0.336618847972     1.007825032230
         H            0.813400756696     2.149523274200    -0.323102847972     1.007825032230
         H            2.969225756696     0.883278274200     1.385555152028     1.007825032230
         H            4.321074756696     0.002354274200     0.653106152028     1.007825032230
         H            2.970191756696    -0.881523725800     1.383827152028     1.007825032230
         H           -1.624635243304    -2.145503725800     0.065501152028     1.007825032230
         H           -1.638964243304     2.147925274200     0.079332152028     1.007825032230
         H           -3.489985243304    -0.826791725800     0.367360152028     1.007825032230

  Basis Set: AUG-CC-PVTZ
    Blend: AUG-CC-PVTZ
  Basis Set: (AUG-CC-PVTZ AUX)
    Blend: AUG-CC-PVTZ-JKFIT
	 Reference Energy          =    -383.7606278330122791 [Eh]
	 Singles Energy            =      -0.0000000000000000 [Eh]
	 Same-Spin Energy          =      -0.4128261048938637 [Eh]
	 Opposite-Spin Energy      =      -1.3188042822946442 [Eh]
	 Correlation Energy        =      -1.7316303871885079 [Eh]
	 Total Energy              =    -385.4922582202007675 [Eh]

	 ================> DF-SCS-MP2 Energies <==================
	-----------------------------------------------------------
	 SCS Same-Spin Scale       =       0.3333333333333333 [-]
	 SCS Opposite-Spin Scale   =       1.2000000000000000 [-]
	 SCS Same-Spin Energy      =      -0.1376087016312879 [Eh]
	 SCS Opposite-Spin Energy  =      -1.5825651387535731 [Eh]
	 SCS Correlation Energy    =      -1.7201738403848610 [Eh]
	 SCS Total Energy          =    -385.4808016733971385 [Eh]
	-----------------------------------------------------------

  Dipole Moment: [D]
     X:     0.4485      Y:    -1.3082      Z:    -0.0071     Total:     1.3829

*** Psi4 exiting successfully. Buy a developer a beer!
