                               Psi4 1.3.2 release

  ==> Input File <==

--------------------------------------------------------------------------
#psi4
#
memory 32 gb

molecule  {
0 1
  O       -3.1417080     0.0705380     0.3169670
  C        1.0016367    -0.0040125    -0.2831001
  C        2.4872910    -0.0052090    -0.5397260
  C        0.2806140    -1.2015640    -0.2442060
  C        0.2798770     1.1950560    -0.2368630
  C        3.1603190    -0.0060539     0.8338300
  C       -1.0960700    -1.2065460    -0.0157640
  C       -1.0950530     1.2066380    -0.0091780
  C       -1.7865290     0.0017960     0.1015840
  H        2.7838010    -0.8823900    -1.1265120
  H        2.7835740     0.8731460    -1.1246690
  H        0.8095070    -2.1483250    -0.3363770
  H        0.8092330     2.1418130    -0.3228610
  H        2.9650580     0.8755680     1.3857970
  H        4.3169070    -0.0053560     0.6533480
  H        2.9660240    -0.8892340     1.3840690
  H       -1.6288030    -2.1532140     0.0657430
  H       -1.6431320     2.1402150     0.0795740
  H       -3.4941530    -0.8345020     0.3676020
units angstrom
no_reorient  #important for SAPT in psi4, default
symmetry c1  #important for SAPT in psi4, default
}

set PROPERTIES_ORIGIN ["COM"]
properties('MP2/aug-cc-pvtz', properties = ['dipole'])
--------------------------------------------------------------------------

    Molecular point group: c1
  Charge       = 0
  Multiplicity = 1
  Basis Set: AUG-CC-PVTZ
    Blend: AUG-CC-PVTZ
  Basis Set: (AUG-CC-PVTZ AUX)
    Blend: AUG-CC-PVTZ-JKFIT

    Orbital Energies [Eh]
    ---------------------

    Doubly Occupied:

       1A    -20.588895     2A    -11.298594     3A    -11.237889
       4A    -11.236060     5A    -11.234505     6A    -11.230898
       7A    -11.228061     8A    -11.227990     9A    -11.215618
      10A     -1.398082    11A     -1.151242    12A     -1.060093
      13A     -1.016440    14A     -0.974360    15A     -0.860850
      16A     -0.842444    17A     -0.792424    18A     -0.728194
      19A     -0.672693    20A     -0.648023    21A     -0.616675
      22A     -0.598274    23A     -0.587138    24A     -0.585711
      25A     -0.567673    26A     -0.551661    27A     -0.525521
      28A     -0.504298    29A     -0.483457    30A     -0.476916
      31A     -0.456855    32A     -0.340101    33A     -0.304372

  @DF-RHF Final Energy:  -383.75725107340065

   => Energetics <=

    Nuclear Repulsion Energy =            419.0085464308805285
    One-Electron Energy =               -1351.0475764506475116
    Two-Electron Energy =                 548.2817789463663303
    Total Energy =                       -383.7572510734006528
  Basis Set: (AUG-CC-PVTZ AUX)
    Blend: AUG-CC-PVTZ-RI
    Molecular point group: c1

    Geometry (in Angstrom), charge = 0, multiplicity = 1:

       Center              X                  Y                   Z               Mass
    ------------   -----------------  -----------------  -----------------  -----------------
         O           -3.135852255612     0.070535365303     0.305641635019    15.994914619570
         C            1.007492444388    -0.004015134697    -0.294425464981    12.000000000000
         C            2.493146744388    -0.005211634697    -0.551051364981    12.000000000000
         C            0.286469744388    -1.201566634697    -0.255531364981    12.000000000000
         C            0.285732744388     1.195053365303    -0.248188364981    12.000000000000
         C            3.166174744388    -0.006056534697     0.822504635019    12.000000000000
         C           -1.090214255612    -1.206548634697    -0.027089364981    12.000000000000
         C           -1.089197255612     1.206635365303    -0.020503364981    12.000000000000
         C           -1.780673255612     0.001793365303     0.090258635019    12.000000000000
         H            2.789656744388    -0.882392634697    -1.137837364981     1.007825032230
         H            2.789429744388     0.873143365303    -1.135994364981     1.007825032230
         H            0.815362744388    -2.148327634697    -0.347702364981     1.007825032230
         H            0.815088744388     2.141810365303    -0.334186364981     1.007825032230
         H            2.970913744388     0.875565365303     1.374471635019     1.007825032230
         H            4.322762744388    -0.005358634697     0.642022635019     1.007825032230
         H            2.971879744388    -0.889236634697     1.372743635019     1.007825032230
         H           -1.622947255612    -2.153216634697     0.054417635019     1.007825032230
         H           -1.637276255612     2.140212365303     0.068248635019     1.007825032230
         H           -3.488297255612    -0.834504634697     0.356276635019     1.007825032230

  Basis Set: AUG-CC-PVTZ
    Blend: AUG-CC-PVTZ
  Basis Set: (AUG-CC-PVTZ AUX)
    Blend: AUG-CC-PVTZ-JKFIT
	 Reference Energy          =    -383.7572510734006528 [Eh]
	 Singles Energy            =      -0.0000000000000000 [Eh]
	 Same-Spin Energy          =      -0.4131485847786331 [Eh]
	 Opposite-Spin Energy      =      -1.3196784664688925 [Eh]
	 Correlation Energy        =      -1.7328270512475257 [Eh]
	 Total Energy              =    -385.4900781246481642 [Eh]

	 ================> DF-SCS-MP2 Energies <==================
	-----------------------------------------------------------
	 SCS Same-Spin Scale       =       0.3333333333333333 [-]
	 SCS Opposite-Spin Scale   =       1.2000000000000000 [-]
	 SCS Same-Spin Energy      =      -0.1377161949262110 [Eh]
	 SCS Opposite-Spin Energy  =      -1.5836141597626709 [Eh]
	 SCS Correlation Energy    =      -1.7213303546888821 [Eh]
	 SCS Total Energy          =    -385.4785814280895124 [Eh]
	-----------------------------------------------------------

  Dipole Moment: [D]
     X:     0.4515      Y:    -1.2721      Z:    -0.0613     Total:     1.3512

*** Psi4 exiting successfully. Buy a developer a beer!
