                               Psi4 1.4a3.dev225

  ==> Input File <==

--------------------------------------------------------------------------
#psi4
#
memory 32 gb

molecule  {
0 1
  O        3.2216350    -0.1065060     0.2904990
  C       -0.9146420     0.0169590    -0.3639610
  C       -2.4121960     0.0318470    -0.5323860
  C       -0.1907600     1.2076380    -0.2374780
  C       -0.2138010    -1.1929940    -0.2539850
  C       -3.1413340    -0.0192130     0.8137010
  C        1.1888560     1.1991780    -0.0236810
  C        1.1619340    -1.2201410    -0.0407060
  C        1.8451653    -0.0172845     0.0776519
  H       -2.7091570     0.9353730    -1.0779940
  H       -2.7186560    -0.8212200    -1.1493620
  H       -0.7079800     2.1625600    -0.3214960
  H       -0.7531780    -2.1343060    -0.3521420
  H       -2.8726550    -0.9274190     1.3607640
  H       -4.2274440    -0.0080790     0.6778440
  H       -2.8630000     0.8390280     1.4320080
  H        1.7343360     2.1384520     0.0639930
  H        1.7070130    -2.1569100     0.0367280
  H        3.5799610     0.7963060     0.3524270
units angstrom
no_reorient  #important for SAPT in psi4, default
symmetry c1  #important for SAPT in psi4, default
}

set PROPERTIES_ORIGIN ["COM"]
properties('MP2/aug-cc-pvtz', properties = ['dipole'])
--------------------------------------------------------------------------

    Molecular point group: c1
  Charge       = 0
  Multiplicity = 1
  Basis Set: AUG-CC-PVTZ
    Blend: AUG-CC-PVTZ
  Basis Set: (AUG-CC-PVTZ AUX)
    Blend: AUG-CC-PVTZ-JKFIT

    Orbital Energies [Eh]
    ---------------------

    Doubly Occupied:

       1A    -20.585584     2A    -11.297979     3A    -11.239285
       4A    -11.237588     5A    -11.234957     6A    -11.232810
       7A    -11.229030     8A    -11.228001     9A    -11.215989
      10A     -1.387577    11A     -1.152744    12A     -1.059261
      13A     -1.018754    14A     -0.975662    15A     -0.861190
      16A     -0.843377    17A     -0.790575    18A     -0.723532
      19A     -0.670911    20A     -0.646774    21A     -0.612777
      22A     -0.595627    23A     -0.589536    24A     -0.581368
      25A     -0.568510    26A     -0.552836    27A     -0.522957
      28A     -0.500611    29A     -0.480774    30A     -0.479622
      31A     -0.468716    32A     -0.341742    33A     -0.307936

  @DF-RHF Final Energy:  -383.76566379857553

   => Energetics <=

    Nuclear Repulsion Energy =            418.2337211721093126
    One-Electron Energy =               -1349.5295878641190939
    Two-Electron Energy =                 547.5302028934343070
    Total Energy =                       -383.7656637985754742
  Basis Set: (AUG-CC-PVTZ AUX)
    Blend: AUG-CC-PVTZ-RI
    Molecular point group: c1

    Geometry (in Angstrom), charge = 0, multiplicity = 1:

       Center              X                  Y                   Z               Mass
    ------------   -----------------  -----------------  -----------------  -----------------
         O            3.143806606257    -0.099940681302     0.299123739845    15.994914619570
         C           -0.992470393743     0.023524318698    -0.355336260155    12.000000000000
         C           -2.490024393743     0.038412318698    -0.523761260155    12.000000000000
         C           -0.268588393743     1.214203318698    -0.228853260155    12.000000000000
         C           -0.291629393743    -1.186428681302    -0.245360260155    12.000000000000
         C           -3.219162393743    -0.012647681302     0.822325739845    12.000000000000
         C            1.111027606257     1.205743318698    -0.015056260155    12.000000000000
         C            1.084105606257    -1.213575681302    -0.032081260155    12.000000000000
         C            1.767336906257    -0.010719181302     0.086276639845    12.000000000000
         H           -2.786985393743     0.941938318698    -1.069369260155     1.007825032230
         H           -2.796484393743    -0.814654681302    -1.140737260155     1.007825032230
         H           -0.785808393743     2.169125318698    -0.312871260155     1.007825032230
         H           -0.831006393743    -2.127740681302    -0.343517260155     1.007825032230
         H           -2.950483393743    -0.920853681302     1.369388739845     1.007825032230
         H           -4.305272393743    -0.001513681302     0.686468739845     1.007825032230
         H           -2.940828393743     0.845593318698     1.440632739845     1.007825032230
         H            1.656507606257     2.145017318698     0.072617739845     1.007825032230
         H            1.629184606257    -2.150344681302     0.045352739845     1.007825032230
         H            3.502132606257     0.802871318698     0.361051739845     1.007825032230

  Basis Set: AUG-CC-PVTZ
    Blend: AUG-CC-PVTZ
  Basis Set: (AUG-CC-PVTZ AUX)
    Blend: AUG-CC-PVTZ-JKFIT
	 Reference Energy          =    -383.7656637985755310 [Eh]
	 Singles Energy            =      -0.0000000000000000 [Eh]
	 Same-Spin Energy          =      -0.4127868173291036 [Eh]
	 Opposite-Spin Energy      =      -1.3191477226657549 [Eh]
	 Correlation Energy        =      -1.7319345399948585 [Eh]
	 Total Energy              =    -385.4975983385704126 [Eh]

	 ================> DF-SCS-MP2 Energies <==================
	-----------------------------------------------------------
	 SCS Same-Spin Scale       =       0.3333333333333333 [-]
	 SCS Opposite-Spin Scale   =       1.2000000000000000 [-]
	 SCS Same-Spin Energy      =      -0.1375956057763679 [Eh]
	 SCS Opposite-Spin Energy  =      -1.5829772671989057 [Eh]
	 SCS Correlation Energy    =      -1.7205728729752736 [Eh]
	 SCS Total Energy          =    -385.4862366715507846 [Eh]
	-----------------------------------------------------------

  Dipole Moment: [D]
     X:    -0.6057      Y:     1.2733      Z:    -0.0242     Total:     1.4102

*** Psi4 exiting successfully. Buy a developer a beer!
