                               Psi4 1.4a3.dev225

  ==> Input File <==

--------------------------------------------------------------------------
#psi4
#
memory 32 gb

molecule  {
0 1
  O        3.2216350    -0.1065060     0.2904990
  C       -0.9146420     0.0169590    -0.3639610
  C       -2.4121960     0.0318470    -0.5323860
  C       -0.1907600     1.2076380    -0.2374780
  C       -0.2138010    -1.1929940    -0.2539850
  C       -3.1318136    -0.0185463     0.7961250
  C        1.1888560     1.1991780    -0.0236810
  C        1.1619340    -1.2201410    -0.0407060
  C        1.8648900    -0.0185630     0.0807020
  H       -2.7091570     0.9353730    -1.0779940
  H       -2.7186560    -0.8212200    -1.1493620
  H       -0.7079800     2.1625600    -0.3214960
  H       -0.7531780    -2.1343060    -0.3521420
  H       -2.8726550    -0.9274190     1.3607640
  H       -4.2274440    -0.0080790     0.6778440
  H       -2.8630000     0.8390280     1.4320080
  H        1.7343360     2.1384520     0.0639930
  H        1.7070130    -2.1569100     0.0367280
  H        3.5799610     0.7963060     0.3524270
units angstrom
no_reorient  #important for SAPT in psi4, default
symmetry c1  #important for SAPT in psi4, default
}

set PROPERTIES_ORIGIN ["COM"]
properties('MP2/aug-cc-pvtz', properties = ['dipole'])
--------------------------------------------------------------------------

    Molecular point group: c1
  Charge       = 0
  Multiplicity = 1
  Basis Set: AUG-CC-PVTZ
    Blend: AUG-CC-PVTZ
  Basis Set: (AUG-CC-PVTZ AUX)
    Blend: AUG-CC-PVTZ-JKFIT

    Orbital Energies [Eh]
    ---------------------

    Doubly Occupied:

       1A    -20.589468     2A    -11.299900     3A    -11.238843
       4A    -11.237095     5A    -11.235006     6A    -11.231820
       7A    -11.228814     8A    -11.226627     9A    -11.216367
      10A     -1.397846    11A     -1.150606    12A     -1.059885
      13A     -1.016880    14A     -0.975667    15A     -0.860211
      16A     -0.842146    17A     -0.791098    18A     -0.727515
      19A     -0.671942    20A     -0.647483    21A     -0.613069
      22A     -0.595975    23A     -0.587544    24A     -0.585839
      25A     -0.568862    26A     -0.555946    27A     -0.525409
      28A     -0.496829    29A     -0.478360    30A     -0.476536
      31A     -0.468951    32A     -0.340857    33A     -0.305509

  @DF-RHF Final Energy:  -383.76567404953232

   => Energetics <=

    Nuclear Repulsion Energy =            418.3771626989066590
    One-Electron Energy =               -1349.7958661230040889
    Two-Electron Energy =                 547.6530293745651079
    Total Energy =                       -383.7656740495323220
  Basis Set: (AUG-CC-PVTZ AUX)
    Blend: AUG-CC-PVTZ-RI
    Molecular point group: c1

    Geometry (in Angstrom), charge = 0, multiplicity = 1:

       Center              X                  Y                   Z               Mass
    ------------   -----------------  -----------------  -----------------  -----------------
         O            3.140931763123    -0.099880540320     0.300551660552    15.994914619570
         C           -0.995345236877     0.023584459680    -0.353908339448    12.000000000000
         C           -2.492899236877     0.038472459680    -0.522333339448    12.000000000000
         C           -0.271463236877     1.214263459680    -0.227425339448    12.000000000000
         C           -0.294504236877    -1.186368540320    -0.243932339448    12.000000000000
         C           -3.212516836877    -0.011920840320     0.806177660552    12.000000000000
         C            1.108152763123     1.205803459680    -0.013628339448    12.000000000000
         C            1.081230763123    -1.213515540320    -0.030653339448    12.000000000000
         C            1.784186763123    -0.011937540320     0.090754660552    12.000000000000
         H           -2.789860236877     0.941998459680    -1.067941339448     1.007825032230
         H           -2.799359236877    -0.814594540320    -1.139309339448     1.007825032230
         H           -0.788683236877     2.169185459680    -0.311443339448     1.007825032230
         H           -0.833881236877    -2.127680540320    -0.342089339448     1.007825032230
         H           -2.953358236877    -0.920793540320     1.370816660552     1.007825032230
         H           -4.308147236877    -0.001453540320     0.687896660552     1.007825032230
         H           -2.943703236877     0.845653459680     1.442060660552     1.007825032230
         H            1.653632763123     2.145077459680     0.074045660552     1.007825032230
         H            1.626309763123    -2.150284540320     0.046780660552     1.007825032230
         H            3.499257763123     0.802931459680     0.362479660552     1.007825032230

  Basis Set: AUG-CC-PVTZ
    Blend: AUG-CC-PVTZ
  Basis Set: (AUG-CC-PVTZ AUX)
    Blend: AUG-CC-PVTZ-JKFIT
	 Reference Energy          =    -383.7656740495323220 [Eh]
	 Singles Energy            =      -0.0000000000000000 [Eh]
	 Same-Spin Energy          =      -0.4129199672932260 [Eh]
	 Opposite-Spin Energy      =      -1.3191081924326966 [Eh]
	 Correlation Energy        =      -1.7320281597259226 [Eh]
	 Total Energy              =    -385.4977022092582502 [Eh]

	 ================> DF-SCS-MP2 Energies <==================
	-----------------------------------------------------------
	 SCS Same-Spin Scale       =       0.3333333333333333 [-]
	 SCS Opposite-Spin Scale   =       1.2000000000000000 [-]
	 SCS Same-Spin Energy      =      -0.1376399890977420 [Eh]
	 SCS Opposite-Spin Energy  =      -1.5829298309192359 [Eh]
	 SCS Correlation Energy    =      -1.7205698200169779 [Eh]
	 SCS Total Energy          =    -385.4862438695492983 [Eh]
	-----------------------------------------------------------

  Dipole Moment: [D]
     X:    -0.4578      Y:     1.2738      Z:    -0.0050     Total:     1.3536

*** Psi4 exiting successfully. Buy a developer a beer!
