                               Psi4 1.3.2 release

  ==> Input File <==

--------------------------------------------------------------------------
#psi4
#
memory 32 gb

molecule  {
0 1
  O       -3.1417080     0.0705380     0.3169670
  C        1.0005161    -0.0103087    -0.3629629
  C        2.4872910    -0.0052090    -0.5397260
  C        0.2806140    -1.2015640    -0.2442060
  C        0.2798770     1.1950560    -0.2368630
  C        3.2312830    -0.0061060     0.7967240
  C       -1.0960700    -1.2065460    -0.0157640
  C       -1.0950530     1.2066380    -0.0091780
  C       -1.7865290     0.0017960     0.1015840
  H        2.7838010    -0.8823900    -1.1265120
  H        2.7835740     0.8731460    -1.1246690
  H        0.8176348    -2.1436041    -0.3377414
  H        0.8092330     2.1418130    -0.3228610
  H        2.9650580     0.8755680     1.3857970
  H        4.3169070    -0.0053560     0.6533480
  H        2.9660240    -0.8892340     1.3840690
  H       -1.6288030    -2.1532140     0.0657430
  H       -1.6431320     2.1402150     0.0795740
  H       -3.4941530    -0.8345020     0.3676020
units angstrom
no_reorient  #important for SAPT in psi4, default
symmetry c1  #important for SAPT in psi4, default
}

set PROPERTIES_ORIGIN ["COM"]
properties('MP2/aug-cc-pvtz', properties = ['dipole'])
--------------------------------------------------------------------------

    Molecular point group: c1
  Charge       = 0
  Multiplicity = 1
  Basis Set: AUG-CC-PVTZ
    Blend: AUG-CC-PVTZ
  Basis Set: (AUG-CC-PVTZ AUX)
    Blend: AUG-CC-PVTZ-JKFIT

    Orbital Energies [Eh]
    ---------------------

    Doubly Occupied:

       1A    -20.589548     2A    -11.299593     3A    -11.238034
       4A    -11.237467     5A    -11.234615     6A    -11.231494
       7A    -11.228316     8A    -11.226801     9A    -11.215476
      10A     -1.398685    11A     -1.150331    12A     -1.059449
      13A     -1.016180    14A     -0.975142    15A     -0.862851
      16A     -0.842611    17A     -0.790747    18A     -0.728154
      19A     -0.672711    20A     -0.647575    21A     -0.612663
      22A     -0.596503    23A     -0.587456    24A     -0.585063
      25A     -0.569556    26A     -0.555498    27A     -0.524083
      28A     -0.498000    29A     -0.482906    30A     -0.476515
      31A     -0.467438    32A     -0.340276    33A     -0.305156

  @DF-RHF Final Energy:  -383.76631582207614

   => Energetics <=

    Nuclear Repulsion Energy =            418.2537847838037237
    One-Electron Energy =               -1349.5464165445832805
    Two-Electron Energy =                 547.5263159387035330
    Total Energy =                       -383.7663158220760806
  Basis Set: (AUG-CC-PVTZ AUX)
    Blend: AUG-CC-PVTZ-RI
    Molecular point group: c1

    Geometry (in Angstrom), charge = 0, multiplicity = 1:

       Center              X                  Y                   Z               Mass
    ------------   -----------------  -----------------  -----------------  -----------------
         O           -3.142785083156     0.071120438679     0.317151131616    15.994914619570
         C            0.999439016844    -0.009726261321    -0.362778768384    12.000000000000
         C            2.486213916844    -0.004626561321    -0.539541868384    12.000000000000
         C            0.279536916844    -1.200981561321    -0.244021868384    12.000000000000
         C            0.278799916844     1.195638438679    -0.236678868384    12.000000000000
         C            3.230205916844    -0.005523561321     0.796908131616    12.000000000000
         C           -1.097147083156    -1.205963561321    -0.015579868384    12.000000000000
         C           -1.096130083156     1.207220438679    -0.008993868384    12.000000000000
         C           -1.787606083156     0.002378438679     0.101768131616    12.000000000000
         H            2.782723916844    -0.881807561321    -1.126327868384     1.007825032230
         H            2.782496916844     0.873728438679    -1.124484868384     1.007825032230
         H            0.816557716844    -2.143021661321    -0.337557268384     1.007825032230
         H            0.808155916844     2.142395438679    -0.322676868384     1.007825032230
         H            2.963980916844     0.876150438679     1.385981131616     1.007825032230
         H            4.315829916844    -0.004773561321     0.653532131616     1.007825032230
         H            2.964946916844    -0.888651561321     1.384253131616     1.007825032230
         H           -1.629880083156    -2.152631561321     0.065927131616     1.007825032230
         H           -1.644209083156     2.140797438679     0.079758131616     1.007825032230
         H           -3.495230083156    -0.833919561321     0.367786131616     1.007825032230

  Basis Set: AUG-CC-PVTZ
    Blend: AUG-CC-PVTZ
  Basis Set: (AUG-CC-PVTZ AUX)
    Blend: AUG-CC-PVTZ-JKFIT
	 Reference Energy          =    -383.7663158220761375 [Eh]
	 Singles Energy            =      -0.0000000000000000 [Eh]
	 Same-Spin Energy          =      -0.4128454113861117 [Eh]
	 Opposite-Spin Energy      =      -1.3188986839981618 [Eh]
	 Correlation Energy        =      -1.7317440953842735 [Eh]
	 Total Energy              =    -385.4980599174604095 [Eh]

	 ================> DF-SCS-MP2 Energies <==================
	-----------------------------------------------------------
	 SCS Same-Spin Scale       =       0.3333333333333333 [-]
	 SCS Opposite-Spin Scale   =       1.2000000000000000 [-]
	 SCS Same-Spin Energy      =      -0.1376151371287039 [Eh]
	 SCS Opposite-Spin Energy  =      -1.5826784207977942 [Eh]
	 SCS Correlation Energy    =      -1.7202935579264982 [Eh]
	 SCS Total Energy          =    -385.4866093800026192 [Eh]
	-----------------------------------------------------------

  Dipole Moment: [D]
     X:     0.4753      Y:    -1.2650      Z:    -0.0176     Total:     1.3515

*** Psi4 exiting successfully. Buy a developer a beer!
