                               Psi4 1.3.2 release

  ==> Input File <==

--------------------------------------------------------------------------
#psi4
#
memory 32 gb

molecule  {
0 1
  O       -3.1417080     0.0705380     0.3169670
  C        0.9902420    -0.0039870    -0.3612050
  C        2.4872910    -0.0052090    -0.5397260
  C        0.2806140    -1.2015640    -0.2442060
  C        0.2798770     1.1950560    -0.2368630
  C        3.2312830    -0.0061060     0.7967240
  C       -1.0960700    -1.2065460    -0.0157640
  C       -1.0950530     1.2066380    -0.0091780
  C       -1.8480416    -0.0365124     0.1113367
  H        2.7838010    -0.8823900    -1.1265120
  H        2.7835740     0.8731460    -1.1246690
  H        0.8095070    -2.1483250    -0.3363770
  H        0.8092330     2.1418130    -0.3228610
  H        2.9650580     0.8755680     1.3857970
  H        4.3169070    -0.0053560     0.6533480
  H        2.9660240    -0.8892340     1.3840690
  H       -1.6769628    -2.1237124     0.0736647
  H       -1.6431320     2.1402150     0.0795740
  H       -3.4941530    -0.8345020     0.3676020
units angstrom
no_reorient  #important for SAPT in psi4, default
symmetry c1  #important for SAPT in psi4, default
}

set PROPERTIES_ORIGIN ["COM"]
properties('MP2/aug-cc-pvtz', properties = ['dipole'])
--------------------------------------------------------------------------

    Molecular point group: c1
  Charge       = 0
  Multiplicity = 1
  Basis Set: AUG-CC-PVTZ
    Blend: AUG-CC-PVTZ
  Basis Set: (AUG-CC-PVTZ AUX)
    Blend: AUG-CC-PVTZ-JKFIT

    Orbital Energies [Eh]
    ---------------------

    Doubly Occupied:

       1A    -20.603299     2A    -11.304891     3A    -11.237037
       4A    -11.234247     5A    -11.231419     6A    -11.230896
       7A    -11.228018     8A    -11.225226     9A    -11.213649
      10A     -1.434503    11A     -1.144083    12A     -1.053197
      13A     -1.010759    14A     -0.972557    15A     -0.861947
      16A     -0.843857    17A     -0.794292    18A     -0.735680
      19A     -0.679461    20A     -0.645907    21A     -0.611448
      22A     -0.606732    23A     -0.599111    24A     -0.577653
      25A     -0.568474    26A     -0.563446    27A     -0.522751
      28A     -0.490213    29A     -0.479233    30A     -0.471084
      31A     -0.464775    32A     -0.338547    33A     -0.296689

  @DF-RHF Final Energy:  -383.75902395103395

   => Energetics <=

    Nuclear Repulsion Energy =            417.9765689344871475
    One-Electron Energy =               -1348.9210155538032723
    Two-Electron Energy =                 547.1854226682820581
    Total Energy =                       -383.7590239510340098
  Basis Set: (AUG-CC-PVTZ AUX)
    Blend: AUG-CC-PVTZ-RI
    Molecular point group: c1

    Geometry (in Angstrom), charge = 0, multiplicity = 1:

       Center              X                  Y                   Z               Mass
    ------------   -----------------  -----------------  -----------------  -----------------
         O           -3.135263622950     0.074060198539     0.315942954830    15.994914619570
         C            0.996686377050    -0.000464801461    -0.362229045170    12.000000000000
         C            2.493735377050    -0.001686801461    -0.540750045170    12.000000000000
         C            0.287058377050    -1.198041801461    -0.245230045170    12.000000000000
         C            0.286321377050     1.198578198539    -0.237887045170    12.000000000000
         C            3.237727377050    -0.002583801461     0.795699954830    12.000000000000
         C           -1.089625622950    -1.203023801461    -0.016788045170    12.000000000000
         C           -1.088608622950     1.210160198539    -0.010202045170    12.000000000000
         C           -1.841597222950    -0.032990201461     0.110312654830    12.000000000000
         H            2.790245377050    -0.878867801461    -1.127536045170     1.007825032230
         H            2.790018377050     0.876668198539    -1.125693045170     1.007825032230
         H            0.815951377050    -2.144802801461    -0.337401045170     1.007825032230
         H            0.815677377050     2.145335198539    -0.323885045170     1.007825032230
         H            2.971502377050     0.879090198539     1.384772954830     1.007825032230
         H            4.323351377050    -0.001833801461     0.652323954830     1.007825032230
         H            2.972468377050    -0.885711801461     1.383044954830     1.007825032230
         H           -1.670518422950    -2.120190201461     0.072640654830     1.007825032230
         H           -1.636687622950     2.143737198539     0.078549954830     1.007825032230
         H           -3.487708622950    -0.830979801461     0.366577954830     1.007825032230

  Basis Set: AUG-CC-PVTZ
    Blend: AUG-CC-PVTZ
  Basis Set: (AUG-CC-PVTZ AUX)
    Blend: AUG-CC-PVTZ-JKFIT
	 Reference Energy          =    -383.7590239510339529 [Eh]
	 Singles Energy            =      -0.0000000000000000 [Eh]
	 Same-Spin Energy          =      -0.4130070183470009 [Eh]
	 Opposite-Spin Energy      =      -1.3189974464239782 [Eh]
	 Correlation Energy        =      -1.7320044647709791 [Eh]
	 Total Energy              =    -385.4910284158049194 [Eh]

	 ================> DF-SCS-MP2 Energies <==================
	-----------------------------------------------------------
	 SCS Same-Spin Scale       =       0.3333333333333333 [-]
	 SCS Opposite-Spin Scale   =       1.2000000000000000 [-]
	 SCS Same-Spin Energy      =      -0.1376690061156670 [Eh]
	 SCS Opposite-Spin Energy  =      -1.5827969357087739 [Eh]
	 SCS Correlation Energy    =      -1.7204659418244408 [Eh]
	 SCS Total Energy          =    -385.4794898928583962 [Eh]
	-----------------------------------------------------------

  Dipole Moment: [D]
     X:    -0.0035      Y:    -1.2620      Z:     0.0509     Total:     1.2630

*** Psi4 exiting successfully. Buy a developer a beer!
