                               Psi4 1.4a3.dev225

  ==> Input File <==

--------------------------------------------------------------------------
#psi4
#
memory 32 gb

molecule  {
0 1
  O        3.2216350    -0.1065060     0.2904990
  C       -0.9146420     0.0169590    -0.3639610
  C       -2.4121960     0.0318470    -0.5323860
  C       -0.1907600     1.2076380    -0.2374780
  C       -0.2138010    -1.1929940    -0.2539850
  C       -3.1413340    -0.0192130     0.8137010
  C        1.1888560     1.1991780    -0.0236810
  C        1.1619340    -1.2201410    -0.0407060
  C        1.8846147    -0.0198415     0.0837521
  H       -2.7091570     0.9353730    -1.0779940
  H       -2.7186560    -0.8212200    -1.1493620
  H       -0.7079800     2.1625600    -0.3214960
  H       -0.7531780    -2.1343060    -0.3521420
  H       -2.8726550    -0.9274190     1.3607640
  H       -4.2274440    -0.0080790     0.6778440
  H       -2.8630000     0.8390280     1.4320080
  H        1.7343360     2.1384520     0.0639930
  H        1.7070130    -2.1569100     0.0367280
  H        3.5799610     0.7963060     0.3524270
units angstrom
no_reorient  #important for SAPT in psi4, default
symmetry c1  #important for SAPT in psi4, default
}

set PROPERTIES_ORIGIN ["COM"]
properties('MP2/aug-cc-pvtz', properties = ['dipole'])
--------------------------------------------------------------------------

    Molecular point group: c1
  Charge       = 0
  Multiplicity = 1
  Basis Set: AUG-CC-PVTZ
    Blend: AUG-CC-PVTZ
  Basis Set: (AUG-CC-PVTZ AUX)
    Blend: AUG-CC-PVTZ-JKFIT

    Orbital Energies [Eh]
    ---------------------

    Doubly Occupied:

       1A    -20.593328     2A    -11.301815     3A    -11.238208
       4A    -11.236410     5A    -11.234954     6A    -11.230665
       7A    -11.228514     8A    -11.226722     9A    -11.214933
      10A     -1.408536    11A     -1.147900    12A     -1.055935
      13A     -1.014939    14A     -0.973664    15A     -0.861904
      16A     -0.841123    17A     -0.791924    18A     -0.731240
      19A     -0.672700    20A     -0.647320    21A     -0.612812
      22A     -0.596724    23A     -0.591809    24A     -0.584069
      25A     -0.568888    26A     -0.557659    27A     -0.522716
      28A     -0.495818    29A     -0.480071    30A     -0.476514
      31A     -0.466495    32A     -0.339929    33A     -0.302296

  @DF-RHF Final Energy:  -383.76580821777873

   => Energetics <=

    Nuclear Repulsion Energy =            417.9751793308992092
    One-Electron Energy =               -1348.9849063322365055
    Two-Electron Energy =                 547.2439187835585699
    Total Energy =                       -383.7658082177787264
  Basis Set: (AUG-CC-PVTZ AUX)
    Blend: AUG-CC-PVTZ-RI
    Molecular point group: c1

    Geometry (in Angstrom), charge = 0, multiplicity = 1:

       Center              X                  Y                   Z               Mass
    ------------   -----------------  -----------------  -----------------  -----------------
         O            3.139928663056    -0.099689323848     0.298524079797    15.994914619570
         C           -0.996348336944     0.023775676152    -0.355935920203    12.000000000000
         C           -2.493902336944     0.038663676152    -0.524360920203    12.000000000000
         C           -0.272466336944     1.214454676152    -0.229452920203    12.000000000000
         C           -0.295507336944    -1.186177323848    -0.245959920203    12.000000000000
         C           -3.223040336944    -0.012396323848     0.821726079797    12.000000000000
         C            1.107149663056     1.205994676152    -0.015655920203    12.000000000000
         C            1.080227663056    -1.213324323848    -0.032680920203    12.000000000000
         C            1.802908363056    -0.013024823848     0.091777179797    12.000000000000
         H           -2.790863336944     0.942189676152    -1.069968920203     1.007825032230
         H           -2.800362336944    -0.814403323848    -1.141336920203     1.007825032230
         H           -0.789686336944     2.169376676152    -0.313470920203     1.007825032230
         H           -0.834884336944    -2.127489323848    -0.344116920203     1.007825032230
         H           -2.954361336944    -0.920602323848     1.368789079797     1.007825032230
         H           -4.309150336944    -0.001262323848     0.685869079797     1.007825032230
         H           -2.944706336944     0.845844676152     1.440033079797     1.007825032230
         H            1.652629663056     2.145268676152     0.072018079797     1.007825032230
         H            1.625306663056    -2.150093323848     0.044753079797     1.007825032230
         H            3.498254663056     0.803122676152     0.360452079797     1.007825032230

  Basis Set: AUG-CC-PVTZ
    Blend: AUG-CC-PVTZ
  Basis Set: (AUG-CC-PVTZ AUX)
    Blend: AUG-CC-PVTZ-JKFIT
	 Reference Energy          =    -383.7658082177787264 [Eh]
	 Singles Energy            =      -0.0000000000000000 [Eh]
	 Same-Spin Energy          =      -0.4128309478514202 [Eh]
	 Opposite-Spin Energy      =      -1.3188939552089052 [Eh]
	 Correlation Energy        =      -1.7317249030603254 [Eh]
	 Total Energy              =    -385.4975331208390799 [Eh]

	 ================> DF-SCS-MP2 Energies <==================
	-----------------------------------------------------------
	 SCS Same-Spin Scale       =       0.3333333333333333 [-]
	 SCS Opposite-Spin Scale   =       1.2000000000000000 [-]
	 SCS Same-Spin Energy      =      -0.1376103159504734 [Eh]
	 SCS Opposite-Spin Energy  =      -1.5826727462506862 [Eh]
	 SCS Correlation Energy    =      -1.7202830622011596 [Eh]
	 SCS Total Energy          =    -385.4860912799798598 [Eh]
	-----------------------------------------------------------

  Dipole Moment: [D]
     X:    -0.3162      Y:     1.2744      Z:     0.0171     Total:     1.3131

*** Psi4 exiting successfully. Buy a developer a beer!
