                               Psi4 1.3.2 release

  ==> Input File <==

--------------------------------------------------------------------------
#psi4
#
memory 32 gb

molecule  {
0 1
  O       -3.1417080     0.0705380     0.3169670
  C        0.9902420    -0.0039870    -0.3612050
  C        2.4872910    -0.0052090    -0.5397260
  C        0.2806140    -1.2015640    -0.2442060
  C        0.2798770     1.1950560    -0.2368630
  C        3.3285634    -0.0062233     0.9714710
  C       -1.0960700    -1.2065460    -0.0157640
  C       -1.0950530     1.2066380    -0.0091780
  C       -1.7865290     0.0017960     0.1015840
  H        2.7838010    -0.8823900    -1.1265120
  H        2.7835740     0.8731460    -1.1246690
  H        0.8095070    -2.1483250    -0.3363770
  H        0.8092330     2.1418130    -0.3228610
  H        2.9650580     0.8755680     1.3857970
  H        4.3169070    -0.0053560     0.6533480
  H        2.9660240    -0.8892340     1.3840690
  H       -1.6288030    -2.1532140     0.0657430
  H       -1.6431320     2.1402150     0.0795740
  H       -3.4941530    -0.8345020     0.3676020
units angstrom
no_reorient  #important for SAPT in psi4, default
symmetry c1  #important for SAPT in psi4, default
}

set PROPERTIES_ORIGIN ["COM"]
properties('MP2/aug-cc-pvtz', properties = ['dipole'])
--------------------------------------------------------------------------

    Molecular point group: c1
  Charge       = 0
  Multiplicity = 1
  Basis Set: AUG-CC-PVTZ
    Blend: AUG-CC-PVTZ
  Basis Set: (AUG-CC-PVTZ AUX)
    Blend: AUG-CC-PVTZ-JKFIT

    Orbital Energies [Eh]
    ---------------------

    Doubly Occupied:

       1A    -20.589031     2A    -11.298761     3A    -11.237467
       4A    -11.235652     5A    -11.234515     6A    -11.233431
       7A    -11.231078     8A    -11.228016     9A    -11.213254
      10A     -1.398199    11A     -1.149355    12A     -1.043417
      13A     -1.016338    14A     -0.968291    15A     -0.872540
      16A     -0.842838    17A     -0.791175    18A     -0.728024
      19A     -0.670238    20A     -0.644226    21A     -0.613175
      22A     -0.601173    23A     -0.587917    24A     -0.585971
      25A     -0.579966    26A     -0.561407    27A     -0.512059
      28A     -0.505604    29A     -0.485820    30A     -0.483778
      31A     -0.438630    32A     -0.340365    33A     -0.301016

  @DF-RHF Final Energy:  -383.74094698988495

   => Energetics <=

    Nuclear Repulsion Energy =            415.6968417927578798
    One-Electron Energy =               -1344.4301265818826323
    Two-Electron Energy =                 544.9923377992398628
    Total Energy =                       -383.7409469898849466
  Basis Set: (AUG-CC-PVTZ AUX)
    Blend: AUG-CC-PVTZ-RI
    Molecular point group: c1

    Geometry (in Angstrom), charge = 0, multiplicity = 1:

       Center              X                  Y                   Z               Mass
    ------------   -----------------  -----------------  -----------------  -----------------
         O           -3.151270848231     0.070549510918     0.299789135001    15.994914619570
         C            0.980679151769    -0.003975489082    -0.378382864999    12.000000000000
         C            2.477728151769    -0.005197489082    -0.556903864999    12.000000000000
         C            0.271051151769    -1.201552489082    -0.261383864999    12.000000000000
         C            0.270314151769     1.195067510918    -0.254040864999    12.000000000000
         C            3.319000551769    -0.006211789082     0.954293135001    12.000000000000
         C           -1.105632848231    -1.206534489082    -0.032941864999    12.000000000000
         C           -1.104615848231     1.206649510918    -0.026355864999    12.000000000000
         C           -1.796091848231     0.001807510918     0.084406135001    12.000000000000
         H            2.774238151769    -0.882378489082    -1.143689864999     1.007825032230
         H            2.774011151769     0.873157510918    -1.141846864999     1.007825032230
         H            0.799944151769    -2.148313489082    -0.353554864999     1.007825032230
         H            0.799670151769     2.141824510918    -0.340038864999     1.007825032230
         H            2.955495151769     0.875579510918     1.368619135001     1.007825032230
         H            4.307344151769    -0.005344489082     0.636170135001     1.007825032230
         H            2.956461151769    -0.889222489082     1.366891135001     1.007825032230
         H           -1.638365848231    -2.153202489082     0.048565135001     1.007825032230
         H           -1.652694848231     2.140226510918     0.062396135001     1.007825032230
         H           -3.503715848231    -0.834490489082     0.350424135001     1.007825032230

  Basis Set: AUG-CC-PVTZ
    Blend: AUG-CC-PVTZ
  Basis Set: (AUG-CC-PVTZ AUX)
    Blend: AUG-CC-PVTZ-JKFIT
	 Reference Energy          =    -383.7409469898849466 [Eh]
	 Singles Energy            =      -0.0000000000000000 [Eh]
	 Same-Spin Energy          =      -0.4128567279467495 [Eh]
	 Opposite-Spin Energy      =      -1.3200278423665941 [Eh]
	 Correlation Energy        =      -1.7328845703133435 [Eh]
	 Total Energy              =    -385.4738315601982777 [Eh]

	 ================> DF-SCS-MP2 Energies <==================
	-----------------------------------------------------------
	 SCS Same-Spin Scale       =       0.3333333333333333 [-]
	 SCS Opposite-Spin Scale   =       1.2000000000000000 [-]
	 SCS Same-Spin Energy      =      -0.1376189093155832 [Eh]
	 SCS Opposite-Spin Energy  =      -1.5840334108399128 [Eh]
	 SCS Correlation Energy    =      -1.7216523201554961 [Eh]
	 SCS Total Energy          =    -385.4625993100404457 [Eh]
	-----------------------------------------------------------

  Dipole Moment: [D]
     X:     0.4569      Y:    -1.2727      Z:    -0.0602     Total:     1.3536

*** Psi4 exiting successfully. Buy a developer a beer!
