                               Psi4 1.3.2 release

  ==> Input File <==

--------------------------------------------------------------------------
#psi4
#
memory 32 gb

molecule  {
0 1
  O       -3.1417080     0.0705380     0.3169670
  C        0.9694769    -0.0163897    -0.3578371
  C        2.4872910    -0.0052090    -0.5397260
  C        0.2806140    -1.2015640    -0.2442060
  C        0.2798770     1.1950560    -0.2368630
  C        3.2312830    -0.0061060     0.7967240
  C       -1.0960700    -1.2065460    -0.0157640
  C       -1.0950650     1.1823140    -0.0093128
  C       -1.7865290     0.0017960     0.1015840
  H        2.7838010    -0.8823900    -1.1265120
  H        2.7835740     0.8731460    -1.1246690
  H        0.8095070    -2.1483250    -0.3363770
  H        0.8092330     2.1418130    -0.3228610
  H        2.9650580     0.8755680     1.3857970
  H        4.3169070    -0.0053560     0.6533480
  H        2.9660240    -0.8892340     1.3840690
  H       -1.6288030    -2.1532140     0.0657430
  H       -1.6431320     2.1402150     0.0795740
  H       -3.4941530    -0.8345020     0.3676020
units angstrom
no_reorient  #important for SAPT in psi4, default
symmetry c1  #important for SAPT in psi4, default
}

set PROPERTIES_ORIGIN ["COM"]
properties('MP2/aug-cc-pvtz', properties = ['dipole'])
--------------------------------------------------------------------------

    Molecular point group: c1
  Charge       = 0
  Multiplicity = 1
  Basis Set: AUG-CC-PVTZ
    Blend: AUG-CC-PVTZ
  Basis Set: (AUG-CC-PVTZ AUX)
    Blend: AUG-CC-PVTZ-JKFIT

    Orbital Energies [Eh]
    ---------------------

    Doubly Occupied:

       1A    -20.588802     2A    -11.296359     3A    -11.236378
       4A    -11.235688     5A    -11.234443     6A    -11.229761
       7A    -11.227655     8A    -11.227634     9A    -11.215029
      10A     -1.398223    11A     -1.154596    12A     -1.056712
      13A     -1.017426    14A     -0.978022    15A     -0.860722
      16A     -0.844054    17A     -0.789757    18A     -0.730096
      19A     -0.672530    20A     -0.642849    21A     -0.614765
      22A     -0.596139    23A     -0.588620    24A     -0.585700
      25A     -0.568219    26A     -0.555563    27A     -0.522527
      28A     -0.499036    29A     -0.481068    30A     -0.471922
      31A     -0.470598    32A     -0.340471    33A     -0.309281

  @DF-RHF Final Energy:  -383.76564598268669

   => Energetics <=

    Nuclear Repulsion Energy =            418.8920942968064196
    One-Electron Energy =               -1350.8341870696810929
    Two-Electron Energy =                 548.1764467901880380
    Total Energy =                       -383.7656459826866922
  Basis Set: (AUG-CC-PVTZ AUX)
    Blend: AUG-CC-PVTZ-RI
    Molecular point group: c1

    Geometry (in Angstrom), charge = 0, multiplicity = 1:

       Center              X                  Y                   Z               Mass
    ------------   -----------------  -----------------  -----------------  -----------------
         O           -3.139665594933     0.074148277282     0.316649243453    15.994914619570
         C            0.971519305067    -0.012779422718    -0.358154856547    12.000000000000
         C            2.489333405067    -0.001598722718    -0.540043756547    12.000000000000
         C            0.282656405067    -1.197953722718    -0.244523756547    12.000000000000
         C            0.281919405067     1.198666277282    -0.237180756547    12.000000000000
         C            3.233325405067    -0.002495722718     0.796406243453    12.000000000000
         C           -1.094027594933    -1.202935722718    -0.016081756547    12.000000000000
         C           -1.093022594933     1.185924277282    -0.009630556547    12.000000000000
         C           -1.784486594933     0.005406277282     0.101266243453    12.000000000000
         H            2.785843405067    -0.878779722718    -1.126829756547     1.007825032230
         H            2.785616405067     0.876756277282    -1.124986756547     1.007825032230
         H            0.811549405067    -2.144714722718    -0.336694756547     1.007825032230
         H            0.811275405067     2.145423277282    -0.323178756547     1.007825032230
         H            2.967100405067     0.879178277282     1.385479243453     1.007825032230
         H            4.318949405067    -0.001745722718     0.653030243453     1.007825032230
         H            2.968066405067    -0.885623722718     1.383751243453     1.007825032230
         H           -1.626760594933    -2.149603722718     0.065425243453     1.007825032230
         H           -1.641089594933     2.143825277282     0.079256243453     1.007825032230
         H           -3.492110594933    -0.830891722718     0.367284243453     1.007825032230

  Basis Set: AUG-CC-PVTZ
    Blend: AUG-CC-PVTZ
  Basis Set: (AUG-CC-PVTZ AUX)
    Blend: AUG-CC-PVTZ-JKFIT
	 Reference Energy          =    -383.7656459826866922 [Eh]
	 Singles Energy            =      -0.0000000000000000 [Eh]
	 Same-Spin Energy          =      -0.4126366556129025 [Eh]
	 Opposite-Spin Energy      =      -1.3184324766215667 [Eh]
	 Correlation Energy        =      -1.7310691322344693 [Eh]
	 Total Energy              =    -385.4967151149211873 [Eh]

	 ================> DF-SCS-MP2 Energies <==================
	-----------------------------------------------------------
	 SCS Same-Spin Scale       =       0.3333333333333333 [-]
	 SCS Opposite-Spin Scale   =       1.2000000000000000 [-]
	 SCS Same-Spin Energy      =      -0.1375455518709675 [Eh]
	 SCS Opposite-Spin Energy  =      -1.5821189719458799 [Eh]
	 SCS Correlation Energy    =      -1.7196645238168475 [Eh]
	 SCS Total Energy          =    -385.4853105065035379 [Eh]
	-----------------------------------------------------------

  Dipole Moment: [D]
     X:     0.4742      Y:    -1.2666      Z:    -0.0237     Total:     1.3527

*** Psi4 exiting successfully. Buy a developer a beer!
