                               Psi4 1.3.2 release

  ==> Input File <==

--------------------------------------------------------------------------
#psi4
#
memory 32 gb

molecule  {
0 1
  O       -3.1417080     0.0705380     0.3169670
  C        0.9888019    -0.0263057    -0.3750682
  C        2.4872910    -0.0052090    -0.5397260
  C        0.2806140    -1.2015640    -0.2442060
  C        0.2798770     1.1950560    -0.2368630
  C        3.2312830    -0.0061060     0.7967240
  C       -1.0960700    -1.2065460    -0.0157640
  C       -1.0950530     1.2066380    -0.0091780
  C       -1.7865290     0.0017960     0.1015840
  H        2.7654371    -0.8876393    -1.1276324
  H        2.7835740     0.8731460    -1.1246690
  H        0.8095070    -2.1483250    -0.3363770
  H        0.8092330     2.1418130    -0.3228610
  H        2.9650580     0.8755680     1.3857970
  H        4.3169070    -0.0053560     0.6533480
  H        2.9660240    -0.8892340     1.3840690
  H       -1.6288030    -2.1532140     0.0657430
  H       -1.6431320     2.1402150     0.0795740
  H       -3.4941530    -0.8345020     0.3676020
units angstrom
no_reorient  #important for SAPT in psi4, default
symmetry c1  #important for SAPT in psi4, default
}

set PROPERTIES_ORIGIN ["COM"]
properties('MP2/aug-cc-pvtz', properties = ['dipole'])
--------------------------------------------------------------------------

    Molecular point group: c1
  Charge       = 0
  Multiplicity = 1
  Basis Set: AUG-CC-PVTZ
    Blend: AUG-CC-PVTZ
  Basis Set: (AUG-CC-PVTZ AUX)
    Blend: AUG-CC-PVTZ-JKFIT

    Orbital Energies [Eh]
    ---------------------

    Doubly Occupied:

       1A    -20.589477     2A    -11.299555     3A    -11.238542
       4A    -11.235835     5A    -11.233873     6A    -11.230680
       7A    -11.228693     8A    -11.227080     9A    -11.215607
      10A     -1.398632    11A     -1.151078    12A     -1.058014
      13A     -1.016754    14A     -0.975416    15A     -0.862333
      16A     -0.843395    17A     -0.790244    18A     -0.728433
      19A     -0.673008    20A     -0.645802    21A     -0.612385
      22A     -0.597541    23A     -0.587629    24A     -0.585078
      25A     -0.568698    26A     -0.555894    27A     -0.524157
      28A     -0.498473    29A     -0.483111    30A     -0.474051
      31A     -0.468198    32A     -0.340420    33A     -0.306017

  @DF-RHF Final Energy:  -383.76595501438362

   => Energetics <=

    Nuclear Repulsion Energy =            418.3058717270134821
    One-Electron Energy =               -1349.6554432792702301
    Two-Electron Energy =                 547.5836165378731266
    Total Energy =                       -383.7659550143836213
  Basis Set: (AUG-CC-PVTZ AUX)
    Blend: AUG-CC-PVTZ-RI
    Molecular point group: c1

    Geometry (in Angstrom), charge = 0, multiplicity = 1:

       Center              X                  Y                   Z               Mass
    ------------   -----------------  -----------------  -----------------  -----------------
         O           -3.141414844262     0.072775284093     0.318339088779    15.994914619570
         C            0.989095055738    -0.024068415907    -0.373696111221    12.000000000000
         C            2.487584155738    -0.002971715907    -0.538353911221    12.000000000000
         C            0.280907155738    -1.199326715907    -0.242833911221    12.000000000000
         C            0.280170155738     1.197293284093    -0.235490911221    12.000000000000
         C            3.231576155738    -0.003868715907     0.798096088779    12.000000000000
         C           -1.095776844262    -1.204308715907    -0.014391911221    12.000000000000
         C           -1.094759844262     1.208875284093    -0.007805911221    12.000000000000
         C           -1.786235844262     0.004033284093     0.102956088779    12.000000000000
         H            2.765730255738    -0.885402015907    -1.126260311221     1.007825032230
         H            2.783867155738     0.875383284093    -1.123296911221     1.007825032230
         H            0.809800155738    -2.146087715907    -0.335004911221     1.007825032230
         H            0.809526155738     2.144050284093    -0.321488911221     1.007825032230
         H            2.965351155738     0.877805284093     1.387169088779     1.007825032230
         H            4.317200155738    -0.003118715907     0.654720088779     1.007825032230
         H            2.966317155738    -0.886996715907     1.385441088779     1.007825032230
         H           -1.628509844262    -2.150976715907     0.067115088779     1.007825032230
         H           -1.642838844262     2.142452284093     0.080946088779     1.007825032230
         H           -3.493859844262    -0.832264715907     0.368974088779     1.007825032230

  Basis Set: AUG-CC-PVTZ
    Blend: AUG-CC-PVTZ
  Basis Set: (AUG-CC-PVTZ AUX)
    Blend: AUG-CC-PVTZ-JKFIT
	 Reference Energy          =    -383.7659550143836213 [Eh]
	 Singles Energy            =      -0.0000000000000000 [Eh]
	 Same-Spin Energy          =      -0.4127131894588418 [Eh]
	 Opposite-Spin Energy      =      -1.3187564187551226 [Eh]
	 Correlation Energy        =      -1.7314696082139645 [Eh]
	 Total Energy              =    -385.4974246225975776 [Eh]

	 ================> DF-SCS-MP2 Energies <==================
	-----------------------------------------------------------
	 SCS Same-Spin Scale       =       0.3333333333333333 [-]
	 SCS Opposite-Spin Scale   =       1.2000000000000000 [-]
	 SCS Same-Spin Energy      =      -0.1375710631529473 [Eh]
	 SCS Opposite-Spin Energy  =      -1.5825077025061471 [Eh]
	 SCS Correlation Energy    =      -1.7200787656590943 [Eh]
	 SCS Total Energy          =    -385.4860337800427033 [Eh]
	-----------------------------------------------------------

  Dipole Moment: [D]
     X:     0.4602      Y:    -1.2523      Z:    -0.0066     Total:     1.3342

*** Psi4 exiting successfully. Buy a developer a beer!
