                               Psi4 1.3.2 release

  ==> Input File <==

--------------------------------------------------------------------------
#psi4
#
memory 32 gb

molecule  {
0 1
  O       -3.1417080     0.0705380     0.3169670
  C        0.9902420    -0.0039870    -0.3612050
  C        2.4872910    -0.0052090    -0.5397260
  C        0.3433583    -1.2375626    -0.2549782
  C        0.3427355     1.2311550    -0.2474375
  C        3.2312830    -0.0061060     0.7967240
  C       -1.0960700    -1.2065460    -0.0157640
  C       -1.0950530     1.2066380    -0.0091780
  C       -1.7865290     0.0017960     0.1015840
  H        2.7838010    -0.8823900    -1.1265120
  H        2.7835740     0.8731460    -1.1246690
  H        0.8095070    -2.1483250    -0.3363770
  H        0.8092330     2.1418130    -0.3228610
  H        2.9650580     0.8755680     1.3857970
  H        4.3169070    -0.0053560     0.6533480
  H        2.9660240    -0.8892340     1.3840690
  H       -1.6288030    -2.1532140     0.0657430
  H       -1.6431320     2.1402150     0.0795740
  H       -3.4941530    -0.8345020     0.3676020
units angstrom
no_reorient  #important for SAPT in psi4, default
symmetry c1  #important for SAPT in psi4, default
}

set PROPERTIES_ORIGIN ["COM"]
properties('MP2/aug-cc-pvtz', properties = ['dipole'])
--------------------------------------------------------------------------

    Molecular point group: c1
  Charge       = 0
  Multiplicity = 1
  Basis Set: AUG-CC-PVTZ
    Blend: AUG-CC-PVTZ
  Basis Set: (AUG-CC-PVTZ AUX)
    Blend: AUG-CC-PVTZ-JKFIT

    Orbital Energies [Eh]
    ---------------------

    Doubly Occupied:

       1A    -20.588704     2A    -11.298964     3A    -11.243260
       4A    -11.240316     5A    -11.238992     6A    -11.237047
       7A    -11.234740     8A    -11.223852     9A    -11.214500
      10A     -1.397963    11A     -1.142348    12A     -1.056140
      13A     -1.007454    14A     -0.976163    15A     -0.860803
      16A     -0.851905    17A     -0.785801    18A     -0.734509
      19A     -0.667768    20A     -0.650913    21A     -0.623214
      22A     -0.598022    23A     -0.595049    24A     -0.585637
      25A     -0.563203    26A     -0.550372    27A     -0.520662
      28A     -0.512649    29A     -0.480387    30A     -0.467314
      31A     -0.460515    32A     -0.328111    33A     -0.310410

  @DF-RHF Final Energy:  -383.74965129216412

   => Energetics <=

    Nuclear Repulsion Energy =            416.5707355398155869
    One-Electron Energy =               -1346.1453995954595939
    Two-Electron Energy =                 545.8250127634798901
    Total Energy =                       -383.7496512921641170
  Basis Set: (AUG-CC-PVTZ AUX)
    Blend: AUG-CC-PVTZ-RI
    Molecular point group: c1

    Geometry (in Angstrom), charge = 0, multiplicity = 1:

       Center              X                  Y                   Z               Mass
    ------------   -----------------  -----------------  -----------------  -----------------
         O           -3.154054988383     0.070528110637     0.319065479652    15.994914619570
         C            0.977895011617    -0.003996889363    -0.359106520348    12.000000000000
         C            2.474944011617    -0.005218889363    -0.537627520348    12.000000000000
         C            0.331011311617    -1.237572489363    -0.252879720348    12.000000000000
         C            0.330388511617     1.231145110637    -0.245339020348    12.000000000000
         C            3.218936011617    -0.006115889363     0.798822479652    12.000000000000
         C           -1.108416988383    -1.206555889363    -0.013665520348    12.000000000000
         C           -1.107399988383     1.206628110637    -0.007079520348    12.000000000000
         C           -1.798875988383     0.001786110637     0.103682479652    12.000000000000
         H            2.771454011617    -0.882399889363    -1.124413520348     1.007825032230
         H            2.771227011617     0.873136110637    -1.122570520348     1.007825032230
         H            0.797160011617    -2.148334889363    -0.334278520348     1.007825032230
         H            0.796886011617     2.141803110637    -0.320762520348     1.007825032230
         H            2.952711011617     0.875558110637     1.387895479652     1.007825032230
         H            4.304560011617    -0.005365889363     0.655446479652     1.007825032230
         H            2.953677011617    -0.889243889363     1.386167479652     1.007825032230
         H           -1.641149988383    -2.153223889363     0.067841479652     1.007825032230
         H           -1.655478988383     2.140205110637     0.081672479652     1.007825032230
         H           -3.506499988383    -0.834511889363     0.369700479652     1.007825032230

  Basis Set: AUG-CC-PVTZ
    Blend: AUG-CC-PVTZ
  Basis Set: (AUG-CC-PVTZ AUX)
    Blend: AUG-CC-PVTZ-JKFIT
	 Reference Energy          =    -383.7496512921641170 [Eh]
	 Singles Energy            =      -0.0000000000000000 [Eh]
	 Same-Spin Energy          =      -0.4131576465088430 [Eh]
	 Opposite-Spin Energy      =      -1.3206708467010035 [Eh]
	 Correlation Energy        =      -1.7338284932098467 [Eh]
	 Total Energy              =    -385.4834797853739587 [Eh]

	 ================> DF-SCS-MP2 Energies <==================
	-----------------------------------------------------------
	 SCS Same-Spin Scale       =       0.3333333333333333 [-]
	 SCS Opposite-Spin Scale   =       1.2000000000000000 [-]
	 SCS Same-Spin Energy      =      -0.1377192155029477 [Eh]
	 SCS Opposite-Spin Energy  =      -1.5848050160412042 [Eh]
	 SCS Correlation Energy    =      -1.7225242315441518 [Eh]
	 SCS Total Energy          =    -385.4721755237082448 [Eh]
	-----------------------------------------------------------

  Dipole Moment: [D]
     X:     0.4767      Y:    -1.2639      Z:    -0.0309     Total:     1.3511

*** Psi4 exiting successfully. Buy a developer a beer!
