                               Psi4 1.3.2 release

  ==> Input File <==

--------------------------------------------------------------------------
#psi4
#
memory 32 gb

molecule  {
0 1
  O       -3.1417080     0.0705380     0.3169670
  C        0.9902420    -0.0039870    -0.3612050
  C        2.2886981    -0.0050469    -0.5160441
  C        0.2806140    -1.2015640    -0.2442060
  C        0.2798770     1.1950560    -0.2368630
  C        3.2312830    -0.0061060     0.7967240
  C       -1.0960700    -1.2065460    -0.0157640
  C       -1.0950530     1.2066380    -0.0091780
  C       -1.7865290     0.0017960     0.1015840
  H        2.7838010    -0.8823900    -1.1265120
  H        2.7835740     0.8731460    -1.1246690
  H        0.8095070    -2.1483250    -0.3363770
  H        0.8092330     2.1418130    -0.3228610
  H        2.9650580     0.8755680     1.3857970
  H        4.3169070    -0.0053560     0.6533480
  H        2.9660240    -0.8892340     1.3840690
  H       -1.6288030    -2.1532140     0.0657430
  H       -1.6431320     2.1402150     0.0795740
  H       -3.4941530    -0.8345020     0.3676020
units angstrom
no_reorient  #important for SAPT in psi4, default
symmetry c1  #important for SAPT in psi4, default
}

set PROPERTIES_ORIGIN ["COM"]
properties('MP2/aug-cc-pvtz', properties = ['dipole'])
--------------------------------------------------------------------------

    Molecular point group: c1
  Charge       = 0
  Multiplicity = 1
  Basis Set: AUG-CC-PVTZ
    Blend: AUG-CC-PVTZ
  Basis Set: (AUG-CC-PVTZ AUX)
    Blend: AUG-CC-PVTZ-JKFIT

    Orbital Energies [Eh]
    ---------------------

    Doubly Occupied:

       1A    -20.591414     2A    -11.301910     3A    -11.240309
       4A    -11.238414     5A    -11.236368     6A    -11.232563
       7A    -11.229808     8A    -11.220540     9A    -11.219868
      10A     -1.400508    11A     -1.166153    12A     -1.074446
      13A     -1.019430    14A     -0.965013    15A     -0.877983
      16A     -0.848213    17A     -0.783686    18A     -0.731222
      19A     -0.678508    20A     -0.660922    21A     -0.612987
      22A     -0.593619    23A     -0.588739    24A     -0.587845
      25A     -0.568708    26A     -0.555558    27A     -0.527141
      28A     -0.508005    29A     -0.499221    30A     -0.450007
      31A     -0.447104    32A     -0.342556    33A     -0.300084

  @DF-RHF Final Energy:  -383.71494078318403

   => Energetics <=

    Nuclear Repulsion Energy =            421.2358696237776030
    One-Electron Energy =               -1355.3039164629835795
    Two-Electron Energy =                 550.3531060560219430
    Total Energy =                       -383.7149407831840335
  Basis Set: (AUG-CC-PVTZ AUX)
    Blend: AUG-CC-PVTZ-RI
    Molecular point group: c1

    Geometry (in Angstrom), charge = 0, multiplicity = 1:

       Center              X                  Y                   Z               Mass
    ------------   -----------------  -----------------  -----------------  -----------------
         O           -3.122185998979     0.070522045422     0.314639091590    15.994914619570
         C            1.009764001021    -0.004002954578    -0.363532908410    12.000000000000
         C            2.308220101021    -0.005062854578    -0.518372008410    12.000000000000
         C            0.300136001021    -1.201579954578    -0.246533908410    12.000000000000
         C            0.299399001021     1.195040045422    -0.239190908410    12.000000000000
         C            3.250805001021    -0.006121954578     0.794396091590    12.000000000000
         C           -1.076547998979    -1.206561954578    -0.018091908410    12.000000000000
         C           -1.075530998979     1.206622045422    -0.011505908410    12.000000000000
         C           -1.767006998979     0.001780045422     0.099256091590    12.000000000000
         H            2.803323001021    -0.882405954578    -1.128839908410     1.007825032230
         H            2.803096001021     0.873130045422    -1.126996908410     1.007825032230
         H            0.829029001021    -2.148340954578    -0.338704908410     1.007825032230
         H            0.828755001021     2.141797045422    -0.325188908410     1.007825032230
         H            2.984580001021     0.875552045422     1.383469091590     1.007825032230
         H            4.336429001021    -0.005371954578     0.651020091590     1.007825032230
         H            2.985546001021    -0.889249954578     1.381741091590     1.007825032230
         H           -1.609280998979    -2.153229954578     0.063415091590     1.007825032230
         H           -1.623609998979     2.140199045422     0.077246091590     1.007825032230
         H           -3.474630998979    -0.834517954578     0.365274091590     1.007825032230

  Basis Set: AUG-CC-PVTZ
    Blend: AUG-CC-PVTZ
  Basis Set: (AUG-CC-PVTZ AUX)
    Blend: AUG-CC-PVTZ-JKFIT
	 Reference Energy          =    -383.7149407831840335 [Eh]
	 Singles Energy            =      -0.0000000000000000 [Eh]
	 Same-Spin Energy          =      -0.4161167026504655 [Eh]
	 Opposite-Spin Energy      =      -1.3235965147853577 [Eh]
	 Correlation Energy        =      -1.7397132174358232 [Eh]
	 Total Energy              =    -385.4546540006198825 [Eh]

	 ================> DF-SCS-MP2 Energies <==================
	-----------------------------------------------------------
	 SCS Same-Spin Scale       =       0.3333333333333333 [-]
	 SCS Opposite-Spin Scale   =       1.2000000000000000 [-]
	 SCS Same-Spin Energy      =      -0.1387055675501552 [Eh]
	 SCS Opposite-Spin Energy  =      -1.5883158177424292 [Eh]
	 SCS Correlation Energy    =      -1.7270213852925844 [Eh]
	 SCS Total Energy          =    -385.4419621684766071 [Eh]
	-----------------------------------------------------------

  Dipole Moment: [D]
     X:     0.2985      Y:    -1.2731      Z:     0.0215     Total:     1.3078

*** Psi4 exiting successfully. Buy a developer a beer!
