                               Psi4 1.3.2 release

  ==> Input File <==

--------------------------------------------------------------------------
#psi4
#
memory 32 gb

molecule  {
0 1
  O       -3.1417080     0.0705380     0.3169670
  C        0.9829506    -0.0039649    -0.4397992
  C        2.4872910    -0.0052090    -0.5397260
  C        0.2806140    -1.2015640    -0.2442060
  C        0.2798770     1.1950560    -0.2368630
  C        3.3002078    -0.0061556     0.7559549
  C       -1.0960700    -1.2065460    -0.0157640
  C       -1.0950530     1.2066380    -0.0091780
  C       -1.7865290     0.0017960     0.1015840
  H        2.7838010    -0.8823900    -1.1265120
  H        2.7835740     0.8731460    -1.1246690
  H        0.8095070    -2.1483250    -0.3363770
  H        0.8092330     2.1418130    -0.3228610
  H        2.9650580     0.8755680     1.3857970
  H        4.3169070    -0.0053560     0.6533480
  H        2.9660240    -0.8892340     1.3840690
  H       -1.6288030    -2.1532140     0.0657430
  H       -1.6431320     2.1402150     0.0795740
  H       -3.4941530    -0.8345020     0.3676020
units angstrom
no_reorient  #important for SAPT in psi4, default
symmetry c1  #important for SAPT in psi4, default
}

set PROPERTIES_ORIGIN ["COM"]
properties('MP2/aug-cc-pvtz', properties = ['dipole'])
--------------------------------------------------------------------------

    Molecular point group: c1
  Charge       = 0
  Multiplicity = 1
  Basis Set: AUG-CC-PVTZ
    Blend: AUG-CC-PVTZ
  Basis Set: (AUG-CC-PVTZ AUX)
    Blend: AUG-CC-PVTZ-JKFIT

    Orbital Energies [Eh]
    ---------------------

    Doubly Occupied:

       1A    -20.590699     2A    -11.301201     3A    -11.240078
       4A    -11.238236     5A    -11.235091     6A    -11.232834
       7A    -11.228497     8A    -11.226902     9A    -11.217256
      10A     -1.399776    11A     -1.150589    12A     -1.056999
      13A     -1.017091    14A     -0.977258    15A     -0.864261
      16A     -0.842850    17A     -0.790900    18A     -0.729220
      19A     -0.671772    20A     -0.645844    21A     -0.612306
      22A     -0.599146    23A     -0.588266    24A     -0.586473
      25A     -0.577732    26A     -0.555040    27A     -0.518864
      28A     -0.494330    29A     -0.489561    30A     -0.467158
      31A     -0.464043    32A     -0.340686    33A     -0.307134

  @DF-RHF Final Energy:  -383.75588854382619

   => Energetics <=

    Nuclear Repulsion Energy =            417.5141360509617812
    One-Electron Energy =               -1348.0238630849582933
    Two-Electron Energy =                 546.7538384901704376
    Total Energy =                       -383.7558885438261314
  Basis Set: (AUG-CC-PVTZ AUX)
    Blend: AUG-CC-PVTZ-RI
    Molecular point group: c1

    Geometry (in Angstrom), charge = 0, multiplicity = 1:

       Center              X                  Y                   Z               Mass
    ------------   -----------------  -----------------  -----------------  -----------------
         O           -3.147766687425     0.070540683425     0.328700678351    15.994914619570
         C            0.976891912575    -0.003962216575    -0.428065521649    12.000000000000
         C            2.481232312575    -0.005206316575    -0.527992321649    12.000000000000
         C            0.274555312575    -1.201561316575    -0.232472321649    12.000000000000
         C            0.273818312575     1.195058683425    -0.225129321649    12.000000000000
         C            3.294149112575    -0.006152916575     0.767688578351    12.000000000000
         C           -1.102128687425    -1.206543316575    -0.004030321649    12.000000000000
         C           -1.101111687425     1.206640683425     0.002555678351    12.000000000000
         C           -1.792587687425     0.001798683425     0.113317678351    12.000000000000
         H            2.777742312575    -0.882387316575    -1.114778321649     1.007825032230
         H            2.777515312575     0.873148683425    -1.112935321649     1.007825032230
         H            0.803448312575    -2.148322316575    -0.324643321649     1.007825032230
         H            0.803174312575     2.141815683425    -0.311127321649     1.007825032230
         H            2.958999312575     0.875570683425     1.397530678351     1.007825032230
         H            4.310848312575    -0.005353316575     0.665081678351     1.007825032230
         H            2.959965312575    -0.889231316575     1.395802678351     1.007825032230
         H           -1.634861687425    -2.153211316575     0.077476678351     1.007825032230
         H           -1.649190687425     2.140217683425     0.091307678351     1.007825032230
         H           -3.500211687425    -0.834499316575     0.379335678351     1.007825032230

  Basis Set: AUG-CC-PVTZ
    Blend: AUG-CC-PVTZ
  Basis Set: (AUG-CC-PVTZ AUX)
    Blend: AUG-CC-PVTZ-JKFIT
	 Reference Energy          =    -383.7558885438261882 [Eh]
	 Singles Energy            =      -0.0000000000000000 [Eh]
	 Same-Spin Energy          =      -0.4129034898890540 [Eh]
	 Opposite-Spin Energy      =      -1.3192870385384550 [Eh]
	 Correlation Energy        =      -1.7321905284275090 [Eh]
	 Total Energy              =    -385.4880790722536972 [Eh]

	 ================> DF-SCS-MP2 Energies <==================
	-----------------------------------------------------------
	 SCS Same-Spin Scale       =       0.3333333333333333 [-]
	 SCS Opposite-Spin Scale   =       1.2000000000000000 [-]
	 SCS Same-Spin Energy      =      -0.1376344966296847 [Eh]
	 SCS Opposite-Spin Energy  =      -1.5831444462461459 [Eh]
	 SCS Correlation Energy    =      -1.7207789428758307 [Eh]
	 SCS Total Energy          =    -385.4766674867020129 [Eh]
	-----------------------------------------------------------

  Dipole Moment: [D]
     X:     0.4018      Y:    -1.2730      Z:     0.0152     Total:     1.3349

*** Psi4 exiting successfully. Buy a developer a beer!
