                               Psi4 1.3.2 release

  ==> Input File <==

--------------------------------------------------------------------------
#psi4
#
memory 32 gb

molecule  {
0 1
  O       -3.1417080     0.0705380     0.3169670
  C        0.9902420    -0.0039870    -0.3612050
  C        2.4872910    -0.0052090    -0.5397260
  C        0.1790168    -1.3730207    -0.2274553
  C        0.2798770     1.1950560    -0.2368630
  C        3.2312830    -0.0061060     0.7967240
  C       -1.0960700    -1.2065460    -0.0157640
  C       -1.0950530     1.2066380    -0.0091780
  C       -1.7865290     0.0017960     0.1015840
  H        2.7838010    -0.8823900    -1.1265120
  H        2.7835740     0.8731460    -1.1246690
  H        0.8095070    -2.1483250    -0.3363770
  H        0.8092330     2.1418130    -0.3228610
  H        2.9650580     0.8755680     1.3857970
  H        4.3169070    -0.0053560     0.6533480
  H        2.9660240    -0.8892340     1.3840690
  H       -1.6288030    -2.1532140     0.0657430
  H       -1.6431320     2.1402150     0.0795740
  H       -3.4941530    -0.8345020     0.3676020
units angstrom
no_reorient  #important for SAPT in psi4, default
symmetry c1  #important for SAPT in psi4, default
}

set PROPERTIES_ORIGIN ["COM"]
properties('MP2/aug-cc-pvtz', properties = ['dipole'])
--------------------------------------------------------------------------

    Molecular point group: c1
  Charge       = 0
  Multiplicity = 1
  Basis Set: AUG-CC-PVTZ
    Blend: AUG-CC-PVTZ
  Basis Set: (AUG-CC-PVTZ AUX)
    Blend: AUG-CC-PVTZ-JKFIT

    Orbital Energies [Eh]
    ---------------------

    Doubly Occupied:

       1A    -20.589932     2A    -11.299025     3A    -11.245942
       4A    -11.241837     5A    -11.232469     6A    -11.231241
       7A    -11.227881     8A    -11.226280     9A    -11.215161
      10A     -1.398629    11A     -1.143065    12A     -1.057552
      13A     -1.030904    14A     -0.964287    15A     -0.864624
      16A     -0.840256    17A     -0.787413    18A     -0.728417
      19A     -0.689975    20A     -0.647878    21A     -0.616633
      22A     -0.597137    23A     -0.589008    24A     -0.585773
      25A     -0.567605    26A     -0.556304    27A     -0.522914
      28A     -0.500699    29A     -0.482421    30A     -0.466504
      31A     -0.445573    32A     -0.358271    33A     -0.288193

  @DF-RHF Final Energy:  -383.72458957644312

   => Energetics <=

    Nuclear Repulsion Energy =            416.2452379420084299
    One-Electron Energy =               -1345.4600489329905031
    Two-Electron Energy =                 545.4902214145389507
    Total Energy =                       -383.7245895764431225
  Basis Set: (AUG-CC-PVTZ AUX)
    Blend: AUG-CC-PVTZ-RI
    Molecular point group: c1

    Geometry (in Angstrom), charge = 0, multiplicity = 1:

       Center              X                  Y                   Z               Mass
    ------------   -----------------  -----------------  -----------------  -----------------
         O           -3.131720841470     0.087392465723     0.315320440353    15.994914619570
         C            1.000229158530     0.012867465723    -0.362851559647    12.000000000000
         C            2.497278158530     0.011645465723    -0.541372559647    12.000000000000
         C            0.189003958530    -1.356166234277    -0.229101859647    12.000000000000
         C            0.289864158530     1.211910465723    -0.238509559647    12.000000000000
         C            3.241270158530     0.010748465723     0.795077440353    12.000000000000
         C           -1.086082841470    -1.189691534277    -0.017410559647    12.000000000000
         C           -1.085065841470     1.223492465723    -0.010824559647    12.000000000000
         C           -1.776541841470     0.018650465723     0.099937440353    12.000000000000
         H            2.793788158530    -0.865535534277    -1.128158559647     1.007825032230
         H            2.793561158530     0.890000465723    -1.126315559647     1.007825032230
         H            0.819494158530    -2.131470534277    -0.338023559647     1.007825032230
         H            0.819220158530     2.158667465723    -0.324507559647     1.007825032230
         H            2.975045158530     0.892422465723     1.384150440353     1.007825032230
         H            4.326894158530     0.011498465723     0.651701440353     1.007825032230
         H            2.976011158530    -0.872379534277     1.382422440353     1.007825032230
         H           -1.618815841470    -2.136359534277     0.064096440353     1.007825032230
         H           -1.633144841470     2.157069465723     0.077927440353     1.007825032230
         H           -3.484165841470    -0.817647534277     0.365955440353     1.007825032230

  Basis Set: AUG-CC-PVTZ
    Blend: AUG-CC-PVTZ
  Basis Set: (AUG-CC-PVTZ AUX)
    Blend: AUG-CC-PVTZ-JKFIT
	 Reference Energy          =    -383.7245895764431225 [Eh]
	 Singles Energy            =      -0.0000000000000000 [Eh]
	 Same-Spin Energy          =      -0.4127672179601247 [Eh]
	 Opposite-Spin Energy      =      -1.3214300299516348 [Eh]
	 Correlation Energy        =      -1.7341972479117596 [Eh]
	 Total Energy              =    -385.4587868243548883 [Eh]

	 ================> DF-SCS-MP2 Energies <==================
	-----------------------------------------------------------
	 SCS Same-Spin Scale       =       0.3333333333333333 [-]
	 SCS Opposite-Spin Scale   =       1.2000000000000000 [-]
	 SCS Same-Spin Energy      =      -0.1375890726533749 [Eh]
	 SCS Opposite-Spin Energy  =      -1.5857160359419618 [Eh]
	 SCS Correlation Energy    =      -1.7233051085953366 [Eh]
	 SCS Total Energy          =    -385.4478946850384773 [Eh]
	-----------------------------------------------------------

  Dipole Moment: [D]
     X:     0.4923      Y:    -1.3623      Z:    -0.0243     Total:     1.4487

*** Psi4 exiting successfully. Buy a developer a beer!
