                               Psi4 1.3.2 release

  ==> Input File <==

--------------------------------------------------------------------------
#psi4
#
memory 32 gb

molecule  {
0 1
  O       -3.1417080     0.0705380     0.3169670
  C        0.9902420    -0.0039870    -0.3612050
  C        2.4872910    -0.0052090    -0.5397260
  C        0.2806140    -1.2015640    -0.2442060
  C        0.2798770     1.1950560    -0.2368630
  C        3.2312830    -0.0061060     0.7967240
  C       -1.0960700    -1.2065460    -0.0157640
  C       -1.0950530     1.2066380    -0.0091780
  C       -1.7655958     0.0138344     0.0982603
  H        2.7838010    -0.8823900    -1.1265120
  H        2.7835740     0.8731460    -1.1246690
  H        0.8095070    -2.1483250    -0.3363770
  H        0.8092330     2.1418130    -0.3228610
  H        2.9650580     0.8755680     1.3857970
  H        4.3169070    -0.0053560     0.6533480
  H        2.9660240    -0.8892340     1.3840690
  H       -1.6124186    -2.1624750     0.0630517
  H       -1.6431320     2.1402150     0.0795740
  H       -3.4941530    -0.8345020     0.3676020
units angstrom
no_reorient  #important for SAPT in psi4, default
symmetry c1  #important for SAPT in psi4, default
}

set PROPERTIES_ORIGIN ["COM"]
properties('MP2/aug-cc-pvtz', properties = ['dipole'])
--------------------------------------------------------------------------

    Molecular point group: c1
  Charge       = 0
  Multiplicity = 1
  Basis Set: AUG-CC-PVTZ
    Blend: AUG-CC-PVTZ
  Basis Set: (AUG-CC-PVTZ AUX)
    Blend: AUG-CC-PVTZ-JKFIT

    Orbital Energies [Eh]
    ---------------------

    Doubly Occupied:

       1A    -20.584852     2A    -11.297727     3A    -11.238581
       4A    -11.237043     5A    -11.235816     6A    -11.231875
       7A    -11.227666     8A    -11.227060     9A    -11.215767
      10A     -1.387387    11A     -1.153721    12A     -1.059791
      13A     -1.018957    14A     -0.976603    15A     -0.861985
      16A     -0.842878    17A     -0.791041    18A     -0.725283
      19A     -0.670352    20A     -0.647339    21A     -0.613465
      22A     -0.596325    23A     -0.588996    24A     -0.581508
      25A     -0.569608    26A     -0.551388    27A     -0.523291
      28A     -0.500681    29A     -0.480319    30A     -0.479060
      31A     -0.469221    32A     -0.341452    33A     -0.308792

  @DF-RHF Final Energy:  -383.76584787189847

   => Energetics <=

    Nuclear Repulsion Energy =            418.4652132830185565
    One-Electron Energy =               -1349.9904623435888880
    Two-Electron Energy =                 547.7594011886718590
    Total Energy =                       -383.7658478718984725
  Basis Set: (AUG-CC-PVTZ AUX)
    Blend: AUG-CC-PVTZ-RI
    Molecular point group: c1

    Geometry (in Angstrom), charge = 0, multiplicity = 1:

       Center              X                  Y                   Z               Mass
    ------------   -----------------  -----------------  -----------------  -----------------
         O           -3.143901056582     0.069431042887     0.317316007189    15.994914619570
         C            0.988048943418    -0.005093957113    -0.360855992811    12.000000000000
         C            2.485097943418    -0.006315957113    -0.539376992811    12.000000000000
         C            0.278420943418    -1.202670957113    -0.243856992811    12.000000000000
         C            0.277683943418     1.193949042887    -0.236513992811    12.000000000000
         C            3.229089943418    -0.007212957113     0.797073007189    12.000000000000
         C           -1.098263056582    -1.207652957113    -0.015414992811    12.000000000000
         C           -1.097246056582     1.205531042887    -0.008828992811    12.000000000000
         C           -1.767788856582     0.012727442887     0.098609307189    12.000000000000
         H            2.781607943418    -0.883496957113    -1.126162992811     1.007825032230
         H            2.781380943418     0.872039042887    -1.124319992811     1.007825032230
         H            0.807313943418    -2.149431957113    -0.336027992811     1.007825032230
         H            0.807039943418     2.140706042887    -0.322511992811     1.007825032230
         H            2.962864943418     0.874461042887     1.386146007189     1.007825032230
         H            4.314713943418    -0.006462957113     0.653697007189     1.007825032230
         H            2.963830943418    -0.890340957113     1.384418007189     1.007825032230
         H           -1.614611656582    -2.163581957113     0.063400707189     1.007825032230
         H           -1.645325056582     2.139108042887     0.079923007189     1.007825032230
         H           -3.496346056582    -0.835608957113     0.367951007189     1.007825032230

  Basis Set: AUG-CC-PVTZ
    Blend: AUG-CC-PVTZ
  Basis Set: (AUG-CC-PVTZ AUX)
    Blend: AUG-CC-PVTZ-JKFIT
	 Reference Energy          =    -383.7658478718984725 [Eh]
	 Singles Energy            =      -0.0000000000000000 [Eh]
	 Same-Spin Energy          =      -0.4127185010427511 [Eh]
	 Opposite-Spin Energy      =      -1.3188316577113739 [Eh]
	 Correlation Energy        =      -1.7315501587541249 [Eh]
	 Total Energy              =    -385.4973980306526187 [Eh]

	 ================> DF-SCS-MP2 Energies <==================
	-----------------------------------------------------------
	 SCS Same-Spin Scale       =       0.3333333333333333 [-]
	 SCS Opposite-Spin Scale   =       1.2000000000000000 [-]
	 SCS Same-Spin Energy      =      -0.1375728336809170 [Eh]
	 SCS Opposite-Spin Energy  =      -1.5825979892536486 [Eh]
	 SCS Correlation Energy    =      -1.7201708229345656 [Eh]
	 SCS Total Energy          =    -385.4860186948330352 [Eh]
	-----------------------------------------------------------

  Dipole Moment: [D]
     X:     0.6209      Y:    -1.2720      Z:    -0.0416     Total:     1.4160

*** Psi4 exiting successfully. Buy a developer a beer!
