                               Psi4 1.3.2 release

  ==> Input File <==

--------------------------------------------------------------------------
#psi4
#
memory 32 gb

molecule  {
0 1
  O       -3.1417080     0.0705380     0.3169670
  C        0.9902420    -0.0039870    -0.3612050
  C        2.4872910    -0.0052090    -0.5397260
  C        0.2806140    -1.2015640    -0.2442060
  C        0.2798770     1.1950560    -0.2368630
  C        3.2312830    -0.0061060     0.7967240
  C       -1.0960700    -1.2065460    -0.0157640
  C       -1.0950530     1.2066380    -0.0091780
  C       -1.7761228    -0.0042692     0.0999048
  H        2.7838010    -0.8823900    -1.1265120
  H        2.7835740     0.8731460    -1.1246690
  H        0.8095070    -2.1483250    -0.3363770
  H        0.8092330     2.1418130    -0.3228610
  H        2.9650580     0.8755680     1.3857970
  H        4.3169070    -0.0053560     0.6533480
  H        2.9660240    -0.8892340     1.3840690
  H       -1.6288030    -2.1532140     0.0657430
  H       -1.6350675     2.1450246     0.0782775
  H       -3.4941530    -0.8345020     0.3676020
units angstrom
no_reorient  #important for SAPT in psi4, default
symmetry c1  #important for SAPT in psi4, default
}

set PROPERTIES_ORIGIN ["COM"]
properties('MP2/aug-cc-pvtz', properties = ['dipole'])
--------------------------------------------------------------------------

    Molecular point group: c1
  Charge       = 0
  Multiplicity = 1
  Basis Set: AUG-CC-PVTZ
    Blend: AUG-CC-PVTZ
  Basis Set: (AUG-CC-PVTZ AUX)
    Blend: AUG-CC-PVTZ-JKFIT

    Orbital Energies [Eh]
    ---------------------

    Doubly Occupied:

       1A    -20.587491     2A    -11.298457     3A    -11.238375
       4A    -11.236455     5A    -11.234196     6A    -11.231464
       7A    -11.228871     8A    -11.227374     9A    -11.215515
      10A     -1.393137    11A     -1.152400    12A     -1.058872
      13A     -1.017736    14A     -0.976147    15A     -0.861314
      16A     -0.843525    17A     -0.791277    18A     -0.726141
      19A     -0.672193    20A     -0.646112    21A     -0.612820
      22A     -0.595823    23A     -0.588388    24A     -0.584064
      25A     -0.568939    26A     -0.554468    27A     -0.523358
      28A     -0.499628    29A     -0.480053    30A     -0.478842
      31A     -0.468797    32A     -0.341005    33A     -0.307334

  @DF-RHF Final Energy:  -383.76649348129558

   => Energetics <=

    Nuclear Repulsion Energy =            418.3882530798685480
    One-Electron Energy =               -1349.8283579859880774
    Two-Electron Energy =                 547.6736114248240028
    Total Energy =                       -383.7664934812955835
  Basis Set: (AUG-CC-PVTZ AUX)
    Blend: AUG-CC-PVTZ-RI
    Molecular point group: c1

    Geometry (in Angstrom), charge = 0, multiplicity = 1:

       Center              X                  Y                   Z               Mass
    ------------   -----------------  -----------------  -----------------  -----------------
         O           -3.142797546211     0.071094491993     0.317142834696    15.994914619570
         C            0.989152453789    -0.003430508007    -0.361029165304    12.000000000000
         C            2.486201453789    -0.004652508007    -0.539550165304    12.000000000000
         C            0.279524453789    -1.201007508007    -0.244030165304    12.000000000000
         C            0.278787453789     1.195612491993    -0.236687165304    12.000000000000
         C            3.230193453789    -0.005549508007     0.796899834696    12.000000000000
         C           -1.097159546211    -1.205989508007    -0.015588165304    12.000000000000
         C           -1.096142546211     1.207194491993    -0.009002165304    12.000000000000
         C           -1.777212346211    -0.003712708007     0.100080634696    12.000000000000
         H            2.782711453789    -0.881833508007    -1.126336165304     1.007825032230
         H            2.782484453789     0.873702491993    -1.124493165304     1.007825032230
         H            0.808417453789    -2.147768508007    -0.336201165304     1.007825032230
         H            0.808143453789     2.142369491993    -0.322685165304     1.007825032230
         H            2.963968453789     0.876124491993     1.385972834696     1.007825032230
         H            4.315817453789    -0.004799508007     0.653523834696     1.007825032230
         H            2.964934453789    -0.888677508007     1.384244834696     1.007825032230
         H           -1.629892546211    -2.152657508007     0.065918834696     1.007825032230
         H           -1.636157046211     2.145581091993     0.078453334696     1.007825032230
         H           -3.495242546211    -0.833945508007     0.367777834696     1.007825032230

  Basis Set: AUG-CC-PVTZ
    Blend: AUG-CC-PVTZ
  Basis Set: (AUG-CC-PVTZ AUX)
    Blend: AUG-CC-PVTZ-JKFIT
	 Reference Energy          =    -383.7664934812955835 [Eh]
	 Singles Energy            =      -0.0000000000000000 [Eh]
	 Same-Spin Energy          =      -0.4127411900772633 [Eh]
	 Opposite-Spin Energy      =      -1.3188338587876118 [Eh]
	 Correlation Energy        =      -1.7315750488648751 [Eh]
	 Total Energy              =    -385.4980685301604808 [Eh]

	 ================> DF-SCS-MP2 Energies <==================
	-----------------------------------------------------------
	 SCS Same-Spin Scale       =       0.3333333333333333 [-]
	 SCS Opposite-Spin Scale   =       1.2000000000000000 [-]
	 SCS Same-Spin Energy      =      -0.1375803966924211 [Eh]
	 SCS Opposite-Spin Energy  =      -1.5826006305451341 [Eh]
	 SCS Correlation Energy    =      -1.7201810272375553 [Eh]
	 SCS Total Energy          =    -385.4866745085331559 [Eh]
	-----------------------------------------------------------

  Dipole Moment: [D]
     X:     0.5419      Y:    -1.2702      Z:    -0.0299     Total:     1.3813

*** Psi4 exiting successfully. Buy a developer a beer!
