                               Psi4 1.3.2 release

  ==> Input File <==

--------------------------------------------------------------------------
#psi4
#
memory 32 gb

molecule  {
0 1
  O       -3.1417080     0.0705380     0.3169670
  C        0.9902420    -0.0039870    -0.3612050
  C        2.4872910    -0.0052090    -0.5397260
  C        0.2806140    -1.2015640    -0.2442060
  C        0.3814151     1.0236672    -0.2546362
  C        3.2312830    -0.0061060     0.7967240
  C       -1.0960700    -1.2065460    -0.0157640
  C       -1.0950530     1.2066380    -0.0091780
  C       -1.7865290     0.0017960     0.1015840
  H        2.7838010    -0.8823900    -1.1265120
  H        2.7835740     0.8731460    -1.1246690
  H        0.8095070    -2.1483250    -0.3363770
  H        0.8092330     2.1418130    -0.3228610
  H        2.9650580     0.8755680     1.3857970
  H        4.3169070    -0.0053560     0.6533480
  H        2.9660240    -0.8892340     1.3840690
  H       -1.6288030    -2.1532140     0.0657430
  H       -1.6431320     2.1402150     0.0795740
  H       -3.4941530    -0.8345020     0.3676020
units angstrom
no_reorient  #important for SAPT in psi4, default
symmetry c1  #important for SAPT in psi4, default
}

set PROPERTIES_ORIGIN ["COM"]
properties('MP2/aug-cc-pvtz', properties = ['dipole'])
--------------------------------------------------------------------------

    Molecular point group: c1
  Charge       = 0
  Multiplicity = 1
  Basis Set: AUG-CC-PVTZ
    Blend: AUG-CC-PVTZ
  Basis Set: (AUG-CC-PVTZ AUX)
    Blend: AUG-CC-PVTZ-JKFIT

    Orbital Energies [Eh]
    ---------------------

    Doubly Occupied:

       1A    -20.588610     2A    -11.297688     3A    -11.244586
       4A    -11.239262     5A    -11.231954     6A    -11.228494
       7A    -11.226838     8A    -11.215817     9A    -11.205702
      10A     -1.397978    11A     -1.173492    12A     -1.064542
      13A     -1.006095    14A     -0.989636    15A     -0.856754
      16A     -0.853579    17A     -0.791204    18A     -0.723518
      19A     -0.673855    20A     -0.647256    21A     -0.614270
      22A     -0.599221    23A     -0.588746    24A     -0.584758
      25A     -0.562795    26A     -0.554655    27A     -0.525425
      28A     -0.499683    29A     -0.485672    30A     -0.476402
      31A     -0.448279    32A     -0.346542    33A     -0.313436

  @DF-RHF Final Energy:  -383.70440787954237

   => Energetics <=

    Nuclear Repulsion Energy =            420.9453825258526081
    One-Electron Energy =               -1354.7860938453238759
    Two-Electron Energy =                 550.1363034399288381
    Total Energy =                       -383.7044078795423729
  Basis Set: (AUG-CC-PVTZ AUX)
    Blend: AUG-CC-PVTZ-RI
    Molecular point group: c1

    Geometry (in Angstrom), charge = 0, multiplicity = 1:

       Center              X                  Y                   Z               Mass
    ------------   -----------------  -----------------  -----------------  -----------------
         O           -3.151689387392     0.087385791037     0.318714198516    15.994914619570
         C            0.980260612608     0.012860791037    -0.359457801484    12.000000000000
         C            2.477309612608     0.011638791037    -0.537978801484    12.000000000000
         C            0.270632612608    -1.184716208963    -0.242458801484    12.000000000000
         C            0.371433712608     1.040514991037    -0.252889001484    12.000000000000
         C            3.221301612608     0.010741791037     0.798471198516    12.000000000000
         C           -1.106051387392    -1.189698208963    -0.014016801484    12.000000000000
         C           -1.105034387392     1.223485791037    -0.007430801484    12.000000000000
         C           -1.796510387392     0.018643791037     0.103331198516    12.000000000000
         H            2.773819612608    -0.865542208963    -1.124764801484     1.007825032230
         H            2.773592612608     0.889993791037    -1.122921801484     1.007825032230
         H            0.799525612608    -2.131477208963    -0.334629801484     1.007825032230
         H            0.799251612608     2.158660791037    -0.321113801484     1.007825032230
         H            2.955076612608     0.892415791037     1.387544198516     1.007825032230
         H            4.306925612608     0.011491791037     0.655095198516     1.007825032230
         H            2.956042612608    -0.872386208963     1.385816198516     1.007825032230
         H           -1.638784387392    -2.136366208963     0.067490198516     1.007825032230
         H           -1.653113387392     2.157062791037     0.081321198516     1.007825032230
         H           -3.504134387392    -0.817654208963     0.369349198516     1.007825032230

  Basis Set: AUG-CC-PVTZ
    Blend: AUG-CC-PVTZ
  Basis Set: (AUG-CC-PVTZ AUX)
    Blend: AUG-CC-PVTZ-JKFIT
	 Reference Energy          =    -383.7044078795423729 [Eh]
	 Singles Energy            =      -0.0000000000000000 [Eh]
	 Same-Spin Energy          =      -0.4124164336393338 [Eh]
	 Opposite-Spin Energy      =      -1.3204959588737699 [Eh]
	 Correlation Energy        =      -1.7329123925131038 [Eh]
	 Total Energy              =    -385.4373202720555014 [Eh]

	 ================> DF-SCS-MP2 Energies <==================
	-----------------------------------------------------------
	 SCS Same-Spin Scale       =       0.3333333333333333 [-]
	 SCS Opposite-Spin Scale   =       1.2000000000000000 [-]
	 SCS Same-Spin Energy      =      -0.1374721445464446 [Eh]
	 SCS Opposite-Spin Energy  =      -1.5845951506485239 [Eh]
	 SCS Correlation Energy    =      -1.7220672951949685 [Eh]
	 SCS Total Energy          =    -385.4264751747373339 [Eh]
	-----------------------------------------------------------

  Dipole Moment: [D]
     X:     0.4288      Y:    -1.4281      Z:    -0.0112     Total:     1.4911

*** Psi4 exiting successfully. Buy a developer a beer!
