                               Psi4 1.3.2 release

  ==> Input File <==

--------------------------------------------------------------------------
#psi4
#
memory 32 gb

molecule  {
0 1
  O       -3.1417080     0.0705380     0.3169670
  C        0.9485812     0.0203835    -0.3542765
  C        2.4872910    -0.0052090    -0.5397260
  C        0.2806140    -1.2015640    -0.2442060
  C        0.2798770     1.1950560    -0.2368630
  C        3.2312830    -0.0061060     0.7967240
  C       -1.0953979    -1.1578404    -0.0158448
  C       -1.0950530     1.2066380    -0.0091780
  C       -1.7865290     0.0017960     0.1015840
  H        2.7838010    -0.8823900    -1.1265120
  H        2.7835740     0.8731460    -1.1246690
  H        0.8095070    -2.1483250    -0.3363770
  H        0.8092330     2.1418130    -0.3228610
  H        2.9650580     0.8755680     1.3857970
  H        4.3169070    -0.0053560     0.6533480
  H        2.9660240    -0.8892340     1.3840690
  H       -1.6288030    -2.1532140     0.0657430
  H       -1.6431320     2.1402150     0.0795740
  H       -3.4941530    -0.8345020     0.3676020
units angstrom
no_reorient  #important for SAPT in psi4, default
symmetry c1  #important for SAPT in psi4, default
}

set PROPERTIES_ORIGIN ["COM"]
properties('MP2/aug-cc-pvtz', properties = ['dipole'])
--------------------------------------------------------------------------

    Molecular point group: c1
  Charge       = 0
  Multiplicity = 1
  Basis Set: AUG-CC-PVTZ
    Blend: AUG-CC-PVTZ
  Basis Set: (AUG-CC-PVTZ AUX)
    Blend: AUG-CC-PVTZ-JKFIT

    Orbital Energies [Eh]
    ---------------------

    Doubly Occupied:

       1A    -20.588259     2A    -11.293199     3A    -11.238177
       4A    -11.234421     5A    -11.230901     6A    -11.228949
       7A    -11.228498     8A    -11.228102     9A    -11.214827
      10A     -1.397904    11A     -1.158462    12A     -1.055668
      13A     -1.018035    14A     -0.980611    15A     -0.857157
      16A     -0.846760    17A     -0.792027    18A     -0.729826
      19A     -0.673804    20A     -0.640047    21A     -0.612122
      22A     -0.595194    23A     -0.589520    24A     -0.587455
      25A     -0.569304    26A     -0.554720    27A     -0.521381
      28A     -0.500196    29A     -0.482320    30A     -0.473343
      31A     -0.464807    32A     -0.341911    33A     -0.311457

  @DF-RHF Final Energy:  -383.76121136041951

   => Energetics <=

    Nuclear Repulsion Energy =            419.4733513076260465
    One-Electron Energy =               -1351.9904053039374503
    Two-Electron Energy =                 548.7558426358918950
    Total Energy =                       -383.7612113604195656
  Basis Set: (AUG-CC-PVTZ AUX)
    Blend: AUG-CC-PVTZ-RI
    Molecular point group: c1

    Geometry (in Angstrom), charge = 0, multiplicity = 1:

       Center              X                  Y                   Z               Mass
    ------------   -----------------  -----------------  -----------------  -----------------
         O           -3.137678760234     0.063354475052     0.316293922118    15.994914619570
         C            0.952610439766     0.013199975052    -0.354949577882    12.000000000000
         C            2.491320239766    -0.012392524948    -0.540399077882    12.000000000000
         C            0.284643239766    -1.208747524948    -0.244879077882    12.000000000000
         C            0.283906239766     1.187872475052    -0.237536077882    12.000000000000
         C            3.235312239766    -0.013289524948     0.796050922118    12.000000000000
         C           -1.091368660234    -1.165023924948    -0.016517877882    12.000000000000
         C           -1.091023760234     1.199454475052    -0.009851077882    12.000000000000
         C           -1.782499760234    -0.005387524948     0.100910922118    12.000000000000
         H            2.787830239766    -0.889573524948    -1.127185077882     1.007825032230
         H            2.787603239766     0.865962475052    -1.125342077882     1.007825032230
         H            0.813536239766    -2.155508524948    -0.337050077882     1.007825032230
         H            0.813262239766     2.134629475052    -0.323534077882     1.007825032230
         H            2.969087239766     0.868384475052     1.385123922118     1.007825032230
         H            4.320936239766    -0.012539524948     0.652674922118     1.007825032230
         H            2.970053239766    -0.896417524948     1.383395922118     1.007825032230
         H           -1.624773760234    -2.160397524948     0.065069922118     1.007825032230
         H           -1.639102760234     2.133031475052     0.078900922118     1.007825032230
         H           -3.490123760234    -0.841685524948     0.366928922118     1.007825032230

  Basis Set: AUG-CC-PVTZ
    Blend: AUG-CC-PVTZ
  Basis Set: (AUG-CC-PVTZ AUX)
    Blend: AUG-CC-PVTZ-JKFIT
	 Reference Energy          =    -383.7612113604195088 [Eh]
	 Singles Energy            =      -0.0000000000000000 [Eh]
	 Same-Spin Energy          =      -0.4126593698380980 [Eh]
	 Opposite-Spin Energy      =      -1.3183657705104643 [Eh]
	 Correlation Energy        =      -1.7310251403485624 [Eh]
	 Total Energy              =    -385.4922365007680582 [Eh]

	 ================> DF-SCS-MP2 Energies <==================
	-----------------------------------------------------------
	 SCS Same-Spin Scale       =       0.3333333333333333 [-]
	 SCS Opposite-Spin Scale   =       1.2000000000000000 [-]
	 SCS Same-Spin Energy      =      -0.1375531232793660 [Eh]
	 SCS Opposite-Spin Energy  =      -1.5820389246125572 [Eh]
	 SCS Correlation Energy    =      -1.7195920478919233 [Eh]
	 SCS Total Energy          =    -385.4808034083114308 [Eh]
	-----------------------------------------------------------

  Dipole Moment: [D]
     X:     0.4927      Y:    -1.2793      Z:    -0.0304     Total:     1.3712

*** Psi4 exiting successfully. Buy a developer a beer!
