                               Psi4 1.3.2 release

  ==> Input File <==

--------------------------------------------------------------------------
#psi4
#
memory 32 gb

molecule  {
0 1
  O       -3.1417080     0.0705380     0.3169670
  C        0.9902420    -0.0039870    -0.3612050
  C        2.3879945    -0.0051279    -0.5278850
  C        0.2806140    -1.2015640    -0.2442060
  C        0.2798770     1.1950560    -0.2368630
  C        3.2312830    -0.0061060     0.7967240
  C       -1.0960700    -1.2065460    -0.0157640
  C       -1.0950530     1.2066380    -0.0091780
  C       -1.7865290     0.0017960     0.1015840
  H        2.7838010    -0.8823900    -1.1265120
  H        2.7835740     0.8731460    -1.1246690
  H        0.8095070    -2.1483250    -0.3363770
  H        0.8092330     2.1418130    -0.3228610
  H        2.9650580     0.8755680     1.3857970
  H        4.3169070    -0.0053560     0.6533480
  H        2.9660240    -0.8892340     1.3840690
  H       -1.6288030    -2.1532140     0.0657430
  H       -1.6431320     2.1402150     0.0795740
  H       -3.4941530    -0.8345020     0.3676020
units angstrom
no_reorient  #important for SAPT in psi4, default
symmetry c1  #important for SAPT in psi4, default
}

set PROPERTIES_ORIGIN ["COM"]
properties('MP2/aug-cc-pvtz', properties = ['dipole'])
--------------------------------------------------------------------------

    Molecular point group: c1
  Charge       = 0
  Multiplicity = 1
  Basis Set: AUG-CC-PVTZ
    Blend: AUG-CC-PVTZ
  Basis Set: (AUG-CC-PVTZ AUX)
    Blend: AUG-CC-PVTZ-JKFIT

    Orbital Energies [Eh]
    ---------------------

    Doubly Occupied:

       1A    -20.590297     2A    -11.300506     3A    -11.239064
       4A    -11.237206     5A    -11.235459     6A    -11.229155
       7A    -11.228924     8A    -11.226311     9A    -11.217400
      10A     -1.399434    11A     -1.156969    12A     -1.064447
      13A     -1.017951    14A     -0.970864    15A     -0.868719
      16A     -0.845151    17A     -0.787906    18A     -0.729715
      19A     -0.675123    20A     -0.653819    21A     -0.612186
      22A     -0.593681    23A     -0.588487    24A     -0.586698
      25A     -0.568633    26A     -0.555920    27A     -0.518473
      28A     -0.501172    29A     -0.497287    30A     -0.465222
      31A     -0.460646    32A     -0.341433    33A     -0.304073

  @DF-RHF Final Energy:  -383.75457863584120

   => Energetics <=

    Nuclear Repulsion Energy =            419.7069195098266619
    One-Electron Energy =               -1352.3863329303098908
    Two-Electron Energy =                 548.9248347846420302
    Total Energy =                       -383.7545786358411988
  Basis Set: (AUG-CC-PVTZ AUX)
    Blend: AUG-CC-PVTZ-RI
    Molecular point group: c1

    Geometry (in Angstrom), charge = 0, multiplicity = 1:

       Center              X                  Y                   Z               Mass
    ------------   -----------------  -----------------  -----------------  -----------------
         O           -3.131947004198     0.070530007860     0.315803072224    15.994914619570
         C            1.000002995802    -0.003994992140    -0.362368927776    12.000000000000
         C            2.397755495802    -0.005135892140    -0.529048927776    12.000000000000
         C            0.290374995802    -1.201571992140    -0.245369927776    12.000000000000
         C            0.289637995802     1.195048007860    -0.238026927776    12.000000000000
         C            3.241043995802    -0.006113992140     0.795560072224    12.000000000000
         C           -1.086309004198    -1.206553992140    -0.016927927776    12.000000000000
         C           -1.085292004198     1.206630007860    -0.010341927776    12.000000000000
         C           -1.776768004198     0.001788007860     0.100420072224    12.000000000000
         H            2.793561995802    -0.882397992140    -1.127675927776     1.007825032230
         H            2.793334995802     0.873138007860    -1.125832927776     1.007825032230
         H            0.819267995802    -2.148332992140    -0.337540927776     1.007825032230
         H            0.818993995802     2.141805007860    -0.324024927776     1.007825032230
         H            2.974818995802     0.875560007860     1.384633072224     1.007825032230
         H            4.326667995802    -0.005363992140     0.652184072224     1.007825032230
         H            2.975784995802    -0.889241992140     1.382905072224     1.007825032230
         H           -1.619042004198    -2.153221992140     0.064579072224     1.007825032230
         H           -1.633371004198     2.140207007860     0.078410072224     1.007825032230
         H           -3.484392004198    -0.834509992140     0.366438072224     1.007825032230

  Basis Set: AUG-CC-PVTZ
    Blend: AUG-CC-PVTZ
  Basis Set: (AUG-CC-PVTZ AUX)
    Blend: AUG-CC-PVTZ-JKFIT
	 Reference Energy          =    -383.7545786358411988 [Eh]
	 Singles Energy            =      -0.0000000000000000 [Eh]
	 Same-Spin Energy          =      -0.4138833571410414 [Eh]
	 Opposite-Spin Energy      =      -1.3202536632918411 [Eh]
	 Correlation Energy        =      -1.7341370204328825 [Eh]
	 Total Energy              =    -385.4887156562740529 [Eh]

	 ================> DF-SCS-MP2 Energies <==================
	-----------------------------------------------------------
	 SCS Same-Spin Scale       =       0.3333333333333333 [-]
	 SCS Opposite-Spin Scale   =       1.2000000000000000 [-]
	 SCS Same-Spin Energy      =      -0.1379611190470138 [Eh]
	 SCS Opposite-Spin Energy  =      -1.5843043959502092 [Eh]
	 SCS Correlation Energy    =      -1.7222655149972230 [Eh]
	 SCS Total Energy          =    -385.4768441508384171 [Eh]
	-----------------------------------------------------------

  Dipole Moment: [D]
     X:     0.3925      Y:    -1.2728      Z:    -0.0078     Total:     1.3320

*** Psi4 exiting successfully. Buy a developer a beer!
