                               Psi4 1.3.2 release

  ==> Input File <==

--------------------------------------------------------------------------
#psi4
#
memory 32 gb

molecule  {
0 1
  O       -3.1417080     0.0705380     0.3169670
  C        0.9902420    -0.0039870    -0.3612050
  C        2.4872910    -0.0052090    -0.5397260
  C        0.2909409    -1.2077945    -0.2459799
  C        0.2902228     1.2013035    -0.2386025
  C        3.2312830    -0.0061060     0.7967240
  C       -1.0960700    -1.2065460    -0.0157640
  C       -1.0950530     1.2066380    -0.0091780
  C       -1.7865290     0.0017960     0.1015840
  H        2.7838010    -0.8823900    -1.1265120
  H        2.7835740     0.8731460    -1.1246690
  H        0.8095070    -2.1483250    -0.3363770
  H        0.8092330     2.1418130    -0.3228610
  H        2.9650580     0.8755680     1.3857970
  H        4.3169070    -0.0053560     0.6533480
  H        2.9660240    -0.8892340     1.3840690
  H       -1.6288030    -2.1532140     0.0657430
  H       -1.6431320     2.1402150     0.0795740
  H       -3.4941530    -0.8345020     0.3676020
units angstrom
no_reorient  #important for SAPT in psi4, default
symmetry c1  #important for SAPT in psi4, default
}

set PROPERTIES_ORIGIN ["COM"]
properties('MP2/aug-cc-pvtz', properties = ['dipole'])
--------------------------------------------------------------------------

    Molecular point group: c1
  Charge       = 0
  Multiplicity = 1
  Basis Set: AUG-CC-PVTZ
    Blend: AUG-CC-PVTZ
  Basis Set: (AUG-CC-PVTZ AUX)
    Blend: AUG-CC-PVTZ-JKFIT

    Orbital Energies [Eh]
    ---------------------

    Doubly Occupied:

       1A    -20.589222     2A    -11.299202     3A    -11.238518
       4A    -11.236710     5A    -11.236005     6A    -11.231472
       7A    -11.229598     8A    -11.226528     9A    -11.215131
      10A     -1.398396    11A     -1.149426    12A     -1.057672
      13A     -1.014934    14A     -0.975713    15A     -0.861358
      16A     -0.844426    17A     -0.790301    18A     -0.729264
      19A     -0.671275    20A     -0.647155    21A     -0.614899
      22A     -0.596436    23A     -0.588225    24A     -0.586131
      25A     -0.568454    26A     -0.554872    27A     -0.522873
      28A     -0.500469    29A     -0.479341    30A     -0.477842
      31A     -0.466840    32A     -0.338299    33A     -0.306569

  @DF-RHF Final Energy:  -383.76604250744469

   => Energetics <=

    Nuclear Repulsion Energy =            418.0175780428714916
    One-Electron Energy =               -1349.0801253944205200
    Two-Electron Energy =                 547.2965048441043336
    Total Energy =                       -383.7660425074446948
  Basis Set: (AUG-CC-PVTZ AUX)
    Blend: AUG-CC-PVTZ-RI
    Molecular point group: c1

    Geometry (in Angstrom), charge = 0, multiplicity = 1:

       Center              X                  Y                   Z               Mass
    ------------   -----------------  -----------------  -----------------  -----------------
         O           -3.143740180861     0.070536308999     0.317312435892    15.994914619570
         C            0.988209819139    -0.003988691001    -0.360859564108    12.000000000000
         C            2.485258819139    -0.005210691001    -0.539380564108    12.000000000000
         C            0.288908719139    -1.207796191001    -0.245634464108    12.000000000000
         C            0.288190619139     1.201301808999    -0.238257064108    12.000000000000
         C            3.229250819139    -0.006107691001     0.797069435892    12.000000000000
         C           -1.098102180861    -1.206547691001    -0.015418564108    12.000000000000
         C           -1.097085180861     1.206636308999    -0.008832564108    12.000000000000
         C           -1.788561180861     0.001794308999     0.101929435892    12.000000000000
         H            2.781768819139    -0.882391691001    -1.126166564108     1.007825032230
         H            2.781541819139     0.873144308999    -1.124323564108     1.007825032230
         H            0.807474819139    -2.148326691001    -0.336031564108     1.007825032230
         H            0.807200819139     2.141811308999    -0.322515564108     1.007825032230
         H            2.963025819139     0.875566308999     1.386142435892     1.007825032230
         H            4.314874819139    -0.005357691001     0.653693435892     1.007825032230
         H            2.963991819139    -0.889235691001     1.384414435892     1.007825032230
         H           -1.630835180861    -2.153215691001     0.066088435892     1.007825032230
         H           -1.645164180861     2.140213308999     0.079919435892     1.007825032230
         H           -3.496185180861    -0.834503691001     0.367947435892     1.007825032230

  Basis Set: AUG-CC-PVTZ
    Blend: AUG-CC-PVTZ
  Basis Set: (AUG-CC-PVTZ AUX)
    Blend: AUG-CC-PVTZ-JKFIT
	 Reference Energy          =    -383.7660425074446948 [Eh]
	 Singles Energy            =      -0.0000000000000000 [Eh]
	 Same-Spin Energy          =      -0.4127627096904247 [Eh]
	 Opposite-Spin Energy      =      -1.3189143434489974 [Eh]
	 Correlation Energy        =      -1.7316770531394221 [Eh]
	 Total Energy              =    -385.4977195605841302 [Eh]

	 ================> DF-SCS-MP2 Energies <==================
	-----------------------------------------------------------
	 SCS Same-Spin Scale       =       0.3333333333333333 [-]
	 SCS Opposite-Spin Scale   =       1.2000000000000000 [-]
	 SCS Same-Spin Energy      =      -0.1375875698968082 [Eh]
	 SCS Opposite-Spin Energy  =      -1.5826972121387968 [Eh]
	 SCS Correlation Energy    =      -1.7202847820356051 [Eh]
	 SCS Total Energy          =    -385.4863272894803004 [Eh]
	-----------------------------------------------------------

  Dipole Moment: [D]
     X:     0.4685      Y:    -1.2709      Z:    -0.0209     Total:     1.3547

*** Psi4 exiting successfully. Buy a developer a beer!
