                               Psi4 1.3.2 release

  ==> Input File <==

--------------------------------------------------------------------------
#psi4
#
memory 32 gb

molecule  {
0 1
  O       -3.1417080     0.0705380     0.3169670
  C        0.9902420    -0.0039870    -0.3612050
  C        2.4872910    -0.0052090    -0.5397260
  C        0.3314126    -1.1158356    -0.2525814
  C        0.2798770     1.1950560    -0.2368630
  C        3.2312830    -0.0061060     0.7967240
  C       -1.0960700    -1.2065460    -0.0157640
  C       -1.0950530     1.2066380    -0.0091780
  C       -1.7865290     0.0017960     0.1015840
  H        2.7838010    -0.8823900    -1.1265120
  H        2.7835740     0.8731460    -1.1246690
  H        0.8095070    -2.1483250    -0.3363770
  H        0.8092330     2.1418130    -0.3228610
  H        2.9650580     0.8755680     1.3857970
  H        4.3169070    -0.0053560     0.6533480
  H        2.9660240    -0.8892340     1.3840690
  H       -1.6288030    -2.1532140     0.0657430
  H       -1.6431320     2.1402150     0.0795740
  H       -3.4941530    -0.8345020     0.3676020
units angstrom
no_reorient  #important for SAPT in psi4, default
symmetry c1  #important for SAPT in psi4, default
}

set PROPERTIES_ORIGIN ["COM"]
properties('MP2/aug-cc-pvtz', properties = ['dipole'])
--------------------------------------------------------------------------

    Molecular point group: c1
  Charge       = 0
  Multiplicity = 1
  Basis Set: AUG-CC-PVTZ
    Blend: AUG-CC-PVTZ
  Basis Set: (AUG-CC-PVTZ AUX)
    Blend: AUG-CC-PVTZ-JKFIT

    Orbital Energies [Eh]
    ---------------------

    Doubly Occupied:

       1A    -20.589121     2A    -11.299636     3A    -11.239125
       4A    -11.236227     5A    -11.234534     6A    -11.229930
       7A    -11.226745     8A    -11.219291     9A    -11.215409
      10A     -1.398489    11A     -1.159927    12A     -1.060534
      13A     -1.009612    14A     -0.983038    15A     -0.861838
      16A     -0.847260    17A     -0.789822    18A     -0.726507
      19A     -0.672881    20A     -0.646182    21A     -0.613545
      22A     -0.599844    23A     -0.587250    24A     -0.577635
      25A     -0.570776    26A     -0.554177    27A     -0.525020
      28A     -0.498676    29A     -0.483980    30A     -0.471359
      31A     -0.468388    32A     -0.336048    33A     -0.315755

  @DF-RHF Final Energy:  -383.75360544137158

   => Energetics <=

    Nuclear Repulsion Energy =            419.5480137166896384
    One-Electron Energy =               -1352.1061159399296230
    Two-Electron Energy =                 548.8044967818684654
    Total Energy =                       -383.7536054413715192
  Basis Set: (AUG-CC-PVTZ AUX)
    Blend: AUG-CC-PVTZ-RI
    Molecular point group: c1

    Geometry (in Angstrom), charge = 0, multiplicity = 1:

       Center              X                  Y                   Z               Mass
    ------------   -----------------  -----------------  -----------------  -----------------
         O           -3.146701608134     0.062110732416     0.317790378772    15.994914619570
         C            0.985248391866    -0.012414267584    -0.360381621228    12.000000000000
         C            2.482297391866    -0.013636267584    -0.538902621228    12.000000000000
         C            0.326418991866    -1.124262867584    -0.251758021228    12.000000000000
         C            0.274883391866     1.186628732416    -0.236039621228    12.000000000000
         C            3.226289391866    -0.014533267584     0.797547378772    12.000000000000
         C           -1.101063608134    -1.214973267584    -0.014940621228    12.000000000000
         C           -1.100046608134     1.198210732416    -0.008354621228    12.000000000000
         C           -1.791522608134    -0.006631267584     0.102407378772    12.000000000000
         H            2.778807391866    -0.890817267584    -1.125688621228     1.007825032230
         H            2.778580391866     0.864718732416    -1.123845621228     1.007825032230
         H            0.804513391866    -2.156752267584    -0.335553621228     1.007825032230
         H            0.804239391866     2.133385732416    -0.322037621228     1.007825032230
         H            2.960064391866     0.867140732416     1.386620378772     1.007825032230
         H            4.311913391866    -0.013783267584     0.654171378772     1.007825032230
         H            2.961030391866    -0.897661267584     1.384892378772     1.007825032230
         H           -1.633796608134    -2.161641267584     0.066566378772     1.007825032230
         H           -1.648125608134     2.131787732416     0.080397378772     1.007825032230
         H           -3.499146608134    -0.842929267584     0.368425378772     1.007825032230

  Basis Set: AUG-CC-PVTZ
    Blend: AUG-CC-PVTZ
  Basis Set: (AUG-CC-PVTZ AUX)
    Blend: AUG-CC-PVTZ-JKFIT
	 Reference Energy          =    -383.7536054413715760 [Eh]
	 Singles Energy            =      -0.0000000000000000 [Eh]
	 Same-Spin Energy          =      -0.4124312789074018 [Eh]
	 Opposite-Spin Energy      =      -1.3189188565980237 [Eh]
	 Correlation Energy        =      -1.7313501355054255 [Eh]
	 Total Energy              =    -385.4849555768769847 [Eh]

	 ================> DF-SCS-MP2 Energies <==================
	-----------------------------------------------------------
	 SCS Same-Spin Scale       =       0.3333333333333333 [-]
	 SCS Opposite-Spin Scale   =       1.2000000000000000 [-]
	 SCS Same-Spin Energy      =      -0.1374770929691339 [Eh]
	 SCS Opposite-Spin Energy  =      -1.5827026279176284 [Eh]
	 SCS Correlation Energy    =      -1.7201797208867624 [Eh]
	 SCS Total Energy          =    -385.4737851622583662 [Eh]
	-----------------------------------------------------------

  Dipole Moment: [D]
     X:     0.4404      Y:    -1.2085      Z:    -0.0137     Total:     1.2863

*** Psi4 exiting successfully. Buy a developer a beer!
