                               Psi4 1.4a3.dev225

  ==> Input File <==

--------------------------------------------------------------------------
#psi4
#
memory 32 gb

molecule  {
0 1
  O        3.2216350    -0.1065060     0.2904990
  C       -0.9146420     0.0169590    -0.3639610
  C       -2.4121960     0.0318470    -0.5323860
  C       -0.2011072     1.1906184    -0.2392860
  C       -0.2138010    -1.1929940    -0.2539850
  C       -3.1413340    -0.0192130     0.8137010
  C        1.1888560     1.1991780    -0.0236810
  C        1.1619340    -1.2201410    -0.0407060
  C        1.8648900    -0.0185630     0.0807020
  H       -2.7091570     0.9353730    -1.0779940
  H       -2.7186560    -0.8212200    -1.1493620
  H       -0.7079800     2.1625600    -0.3214960
  H       -0.7531780    -2.1343060    -0.3521420
  H       -2.8726550    -0.9274190     1.3607640
  H       -4.2274440    -0.0080790     0.6778440
  H       -2.8630000     0.8390280     1.4320080
  H        1.7343360     2.1384520     0.0639930
  H        1.7070130    -2.1569100     0.0367280
  H        3.5799610     0.7963060     0.3524270
units angstrom
no_reorient  #important for SAPT in psi4, default
symmetry c1  #important for SAPT in psi4, default
}

set PROPERTIES_ORIGIN ["COM"]
properties('MP2/aug-cc-pvtz', properties = ['dipole'])
--------------------------------------------------------------------------

    Molecular point group: c1
  Charge       = 0
  Multiplicity = 1
  Basis Set: AUG-CC-PVTZ
    Blend: AUG-CC-PVTZ
  Basis Set: (AUG-CC-PVTZ AUX)
    Blend: AUG-CC-PVTZ-JKFIT

    Orbital Energies [Eh]
    ---------------------

    Doubly Occupied:

       1A    -20.589353     2A    -11.299870     3A    -11.238216
       4A    -11.237517     5A    -11.235229     6A    -11.229710
       7A    -11.229093     8A    -11.227264     9A    -11.215497
      10A     -1.397777    11A     -1.151721    12A     -1.057971
      13A     -1.015310    14A     -0.976164    15A     -0.861357
      16A     -0.842943    17A     -0.791048    18A     -0.727182
      19A     -0.671442    20A     -0.646863    21A     -0.612765
      22A     -0.596819    23A     -0.586731    24A     -0.584687
      25A     -0.569013    26A     -0.555231    27A     -0.523100
      28A     -0.498047    29A     -0.481130    30A     -0.477813
      31A     -0.468101    32A     -0.339444    33A     -0.307340

  @DF-RHF Final Energy:  -383.76594475202080

   => Energetics <=

    Nuclear Repulsion Energy =            418.3309076260532038
    One-Electron Energy =               -1349.7102059456174175
    Two-Electron Energy =                 547.6133535675434132
    Total Energy =                       -383.7659447520208005
  Basis Set: (AUG-CC-PVTZ AUX)
    Blend: AUG-CC-PVTZ-RI
    Molecular point group: c1

    Geometry (in Angstrom), charge = 0, multiplicity = 1:

       Center              X                  Y                   Z               Mass
    ------------   -----------------  -----------------  -----------------  -----------------
         O            3.142884782037    -0.098141946911     0.299001639300    15.994914619570
         C           -0.993392217963     0.025323053089    -0.355458360700    12.000000000000
         C           -2.490946217963     0.040211053089    -0.523883360700    12.000000000000
         C           -0.279857417963     1.198982453089    -0.230783360700    12.000000000000
         C           -0.292551217963    -1.184629946911    -0.245482360700    12.000000000000
         C           -3.220084217963    -0.010848946911     0.822203639300    12.000000000000
         C            1.110105782037     1.207542053089    -0.015178360700    12.000000000000
         C            1.083183782037    -1.211776946911    -0.032203360700    12.000000000000
         C            1.786139782037    -0.010198946911     0.089204639300    12.000000000000
         H           -2.787907217963     0.943737053089    -1.069491360700     1.007825032230
         H           -2.797406217963    -0.812855946911    -1.140859360700     1.007825032230
         H           -0.786730217963     2.170924053089    -0.312993360700     1.007825032230
         H           -0.831928217963    -2.125941946911    -0.343639360700     1.007825032230
         H           -2.951405217963    -0.919054946911     1.369266639300     1.007825032230
         H           -4.306194217963     0.000285053089     0.686346639300     1.007825032230
         H           -2.941750217963     0.847392053089     1.440510639300     1.007825032230
         H            1.655585782037     2.146816053089     0.072495639300     1.007825032230
         H            1.628262782037    -2.148545946911     0.045230639300     1.007825032230
         H            3.501210782037     0.804670053089     0.360929639300     1.007825032230

  Basis Set: AUG-CC-PVTZ
    Blend: AUG-CC-PVTZ
  Basis Set: (AUG-CC-PVTZ AUX)
    Blend: AUG-CC-PVTZ-JKFIT
	 Reference Energy          =    -383.7659447520208005 [Eh]
	 Singles Energy            =      -0.0000000000000000 [Eh]
	 Same-Spin Energy          =      -0.4127432103905690 [Eh]
	 Opposite-Spin Energy      =      -1.3189440538475896 [Eh]
	 Correlation Energy        =      -1.7316872642381587 [Eh]
	 Total Energy              =    -385.4976320162589332 [Eh]

	 ================> DF-SCS-MP2 Energies <==================
	-----------------------------------------------------------
	 SCS Same-Spin Scale       =       0.3333333333333333 [-]
	 SCS Opposite-Spin Scale   =       1.2000000000000000 [-]
	 SCS Same-Spin Energy      =      -0.1375810701301897 [Eh]
	 SCS Opposite-Spin Energy  =      -1.5827328646171075 [Eh]
	 SCS Correlation Energy    =      -1.7203139347472971 [Eh]
	 SCS Total Energy          =    -385.4862586867681102 [Eh]
	-----------------------------------------------------------

  Dipole Moment: [D]
     X:    -0.4586      Y:     1.2626      Z:    -0.0031     Total:     1.3433

*** Psi4 exiting successfully. Buy a developer a beer!
