                               Psi4 1.3.2 release

  ==> Input File <==

--------------------------------------------------------------------------
#psi4
#
memory 32 gb

molecule  {
0 1
  O       -3.1417080     0.0705380     0.3169670
  C        0.9902420    -0.0039870    -0.3612050
  C        2.4872910    -0.0052090    -0.5397260
  C        0.2806140    -1.2015640    -0.2442060
  C        0.2798770     1.1950560    -0.2368630
  C        3.2312830    -0.0061060     0.7967240
  C       -1.0960700    -1.2065460    -0.0157640
  C       -1.0950530     1.2066380    -0.0091780
  C       -1.7847681     0.0737038     0.1017239
  H        2.7838010    -0.8823900    -1.1265120
  H        2.7835740     0.8731460    -1.1246690
  H        0.8095070    -2.1483250    -0.3363770
  H        0.8092330     2.1418130    -0.3228610
  H        2.9650580     0.8755680     1.3857970
  H        4.3169070    -0.0053560     0.6533480
  H        2.9660240    -0.8892340     1.3840690
  H       -1.6288030    -2.1532140     0.0657430
  H       -1.6431320     2.1402150     0.0795740
  H       -3.5404351    -0.8146290     0.3750599
units angstrom
no_reorient  #important for SAPT in psi4, default
symmetry c1  #important for SAPT in psi4, default
}

set PROPERTIES_ORIGIN ["COM"]
properties('MP2/aug-cc-pvtz', properties = ['dipole'])
--------------------------------------------------------------------------

    Molecular point group: c1
  Charge       = 0
  Multiplicity = 1
  Basis Set: AUG-CC-PVTZ
    Blend: AUG-CC-PVTZ
  Basis Set: (AUG-CC-PVTZ AUX)
    Blend: AUG-CC-PVTZ-JKFIT

    Orbital Energies [Eh]
    ---------------------

    Doubly Occupied:

       1A    -20.585137     2A    -11.299047     3A    -11.240621
       4A    -11.237752     5A    -11.236497     6A    -11.230853
       7A    -11.226997     8A    -11.220113     9A    -11.215190
      10A     -1.393264    11A     -1.151728    12A     -1.060094
      13A     -1.017042    14A     -0.975431    15A     -0.865341
      16A     -0.837163    17A     -0.791745    18A     -0.733830
      19A     -0.666745    20A     -0.650759    21A     -0.615427
      22A     -0.597094    23A     -0.587041    24A     -0.582480
      25A     -0.571534    26A     -0.547548    27A     -0.523366
      28A     -0.495335    29A     -0.480747    30A     -0.474175
      31A     -0.467745    32A     -0.342302    33A     -0.304966

  @DF-RHF Final Energy:  -383.75968175392825

   => Energetics <=

    Nuclear Repulsion Energy =            418.2789885852143357
    One-Electron Energy =               -1349.6271311096181762
    Two-Electron Energy =                 547.5884607704755354
    Total Energy =                       -383.7596817539282483
  Basis Set: (AUG-CC-PVTZ AUX)
    Blend: AUG-CC-PVTZ-RI
    Molecular point group: c1

    Geometry (in Angstrom), charge = 0, multiplicity = 1:

       Center              X                  Y                   Z               Mass
    ------------   -----------------  -----------------  -----------------  -----------------
         O           -3.141499017874     0.063305251237     0.316891738532    15.994914619570
         C            0.990450982126    -0.011219748763    -0.361280261468    12.000000000000
         C            2.487499982126    -0.012441748763    -0.539801261468    12.000000000000
         C            0.280822982126    -1.208796748763    -0.244281261468    12.000000000000
         C            0.280085982126     1.187823251237    -0.236938261468    12.000000000000
         C            3.231491982126    -0.013338748763     0.796648738532    12.000000000000
         C           -1.095861017874    -1.213778748763    -0.015839261468    12.000000000000
         C           -1.094844017874     1.199405251237    -0.009253261468    12.000000000000
         C           -1.784559117874     0.066471051237     0.101648638532    12.000000000000
         H            2.784009982126    -0.889622748763    -1.126587261468     1.007825032230
         H            2.783782982126     0.865913251237    -1.124744261468     1.007825032230
         H            0.809715982126    -2.155557748763    -0.336452261468     1.007825032230
         H            0.809441982126     2.134580251237    -0.322936261468     1.007825032230
         H            2.965266982126     0.868335251237     1.385721738532     1.007825032230
         H            4.317115982126    -0.012588748763     0.653272738532     1.007825032230
         H            2.966232982126    -0.896466748763     1.383993738532     1.007825032230
         H           -1.628594017874    -2.160446748763     0.065667738532     1.007825032230
         H           -1.642923017874     2.132982251237     0.079498738532     1.007825032230
         H           -3.540226117874    -0.821861748763     0.374984638532     1.007825032230

  Basis Set: AUG-CC-PVTZ
    Blend: AUG-CC-PVTZ
  Basis Set: (AUG-CC-PVTZ AUX)
    Blend: AUG-CC-PVTZ-JKFIT
	 Reference Energy          =    -383.7596817539282483 [Eh]
	 Singles Energy            =      -0.0000000000000000 [Eh]
	 Same-Spin Energy          =      -0.4123856262880251 [Eh]
	 Opposite-Spin Energy      =      -1.3184460623765506 [Eh]
	 Correlation Energy        =      -1.7308316886645758 [Eh]
	 Total Energy              =    -385.4905134425928281 [Eh]

	 ================> DF-SCS-MP2 Energies <==================
	-----------------------------------------------------------
	 SCS Same-Spin Scale       =       0.3333333333333333 [-]
	 SCS Opposite-Spin Scale   =       1.2000000000000000 [-]
	 SCS Same-Spin Energy      =      -0.1374618754293417 [Eh]
	 SCS Opposite-Spin Energy  =      -1.5821352748518607 [Eh]
	 SCS Correlation Energy    =      -1.7195971502812024 [Eh]
	 SCS Total Energy          =    -385.4792789042094228 [Eh]
	-----------------------------------------------------------

  Dipole Moment: [D]
     X:     0.4205      Y:    -1.2574      Z:    -0.0115     Total:     1.3259

*** Psi4 exiting successfully. Buy a developer a beer!
