                               Psi4 1.3.2 release

  ==> Input File <==

--------------------------------------------------------------------------
#psi4
#
memory 32 gb

molecule  {
0 1
  O       -3.1417080     0.0705380     0.3169670
  C        0.9902420    -0.0039870    -0.3612050
  C        2.4872910    -0.0052090    -0.5397260
  C        0.2806140    -1.2015640    -0.2442060
  C        0.2798770     1.1950560    -0.2368630
  C        3.2312830    -0.0061060     0.7967240
  C       -1.1594285    -1.2415435    -0.0054041
  C       -1.1581992     1.2416366     0.0013428
  C       -1.7865290     0.0017960     0.1015840
  H        2.7838010    -0.8823900    -1.1265120
  H        2.7835740     0.8731460    -1.1246690
  H        0.8095070    -2.1483250    -0.3363770
  H        0.8092330     2.1418130    -0.3228610
  H        2.9650580     0.8755680     1.3857970
  H        4.3169070    -0.0053560     0.6533480
  H        2.9660240    -0.8892340     1.3840690
  H       -1.6288030    -2.1532140     0.0657430
  H       -1.6431320     2.1402150     0.0795740
  H       -3.4941530    -0.8345020     0.3676020
units angstrom
no_reorient  #important for SAPT in psi4, default
symmetry c1  #important for SAPT in psi4, default
}

set PROPERTIES_ORIGIN ["COM"]
properties('MP2/aug-cc-pvtz', properties = ['dipole'])
--------------------------------------------------------------------------

    Molecular point group: c1
  Charge       = 0
  Multiplicity = 1
  Basis Set: AUG-CC-PVTZ
    Blend: AUG-CC-PVTZ
  Basis Set: (AUG-CC-PVTZ AUX)
    Blend: AUG-CC-PVTZ-JKFIT

    Orbital Energies [Eh]
    ---------------------

    Doubly Occupied:

       1A    -20.583016     2A    -11.301464     3A    -11.247730
       4A    -11.246147     5A    -11.235595     6A    -11.232532
       7A    -11.229848     8A    -11.228333     9A    -11.215664
      10A     -1.396025    11A     -1.140983    12A     -1.056993
      13A     -1.008296    14A     -0.976421    15A     -0.859265
      16A     -0.850267    17A     -0.793202    18A     -0.724398
      19A     -0.671005    20A     -0.658532    21A     -0.614672
      22A     -0.604327    23A     -0.590551    24A     -0.583213
      25A     -0.562254    26A     -0.549211    27A     -0.521246
      28A     -0.506205    29A     -0.483283    30A     -0.476778
      31A     -0.459728    32A     -0.328424    33A     -0.310126

  @DF-RHF Final Energy:  -383.75060376740828

   => Energetics <=

    Nuclear Repulsion Energy =            416.3515657344616443
    One-Electron Energy =               -1345.7128735891587894
    Two-Electron Energy =                 545.6107040872888092
    Total Energy =                       -383.7506037674082791
  Basis Set: (AUG-CC-PVTZ AUX)
    Blend: AUG-CC-PVTZ-RI
    Molecular point group: c1

    Geometry (in Angstrom), charge = 0, multiplicity = 1:

       Center              X                  Y                   Z               Mass
    ------------   -----------------  -----------------  -----------------  -----------------
         O           -3.129272391803     0.070537871996     0.314914454320    15.994914619570
         C            1.002677608197    -0.003987128004    -0.363257545680    12.000000000000
         C            2.499726608197    -0.005209128004    -0.541778545680    12.000000000000
         C            0.293049608197    -1.201564128004    -0.246258545680    12.000000000000
         C            0.292312608197     1.195055871996    -0.238915545680    12.000000000000
         C            3.243718608197    -0.006106128004     0.794671454320    12.000000000000
         C           -1.146992891803    -1.241543628004    -0.007456645680    12.000000000000
         C           -1.145763591803     1.241636471996    -0.000709745680    12.000000000000
         C           -1.774093391803     0.001795871996     0.099531454320    12.000000000000
         H            2.796236608197    -0.882390128004    -1.128564545680     1.007825032230
         H            2.796009608197     0.873145871996    -1.126721545680     1.007825032230
         H            0.821942608197    -2.148325128004    -0.338429545680     1.007825032230
         H            0.821668608197     2.141812871996    -0.324913545680     1.007825032230
         H            2.977493608197     0.875567871996     1.383744454320     1.007825032230
         H            4.329342608197    -0.005356128004     0.651295454320     1.007825032230
         H            2.978459608197    -0.889234128004     1.382016454320     1.007825032230
         H           -1.616367391803    -2.153214128004     0.063690454320     1.007825032230
         H           -1.630696391803     2.140214871996     0.077521454320     1.007825032230
         H           -3.481717391803    -0.834502128004     0.365549454320     1.007825032230

  Basis Set: AUG-CC-PVTZ
    Blend: AUG-CC-PVTZ
  Basis Set: (AUG-CC-PVTZ AUX)
    Blend: AUG-CC-PVTZ-JKFIT
	 Reference Energy          =    -383.7506037674082791 [Eh]
	 Singles Energy            =      -0.0000000000000000 [Eh]
	 Same-Spin Energy          =      -0.4127727520154443 [Eh]
	 Opposite-Spin Energy      =      -1.3201437467721617 [Eh]
	 Correlation Energy        =      -1.7329164987876060 [Eh]
	 Total Energy              =    -385.4835202661959102 [Eh]

	 ================> DF-SCS-MP2 Energies <==================
	-----------------------------------------------------------
	 SCS Same-Spin Scale       =       0.3333333333333333 [-]
	 SCS Opposite-Spin Scale   =       1.2000000000000000 [-]
	 SCS Same-Spin Energy      =      -0.1375909173384814 [Eh]
	 SCS Opposite-Spin Energy  =      -1.5841724961265939 [Eh]
	 SCS Correlation Energy    =      -1.7217634134650754 [Eh]
	 SCS Total Energy          =    -385.4723671808733343 [Eh]
	-----------------------------------------------------------

  Dipole Moment: [D]
     X:     0.5451      Y:    -1.2621      Z:    -0.0260     Total:     1.3750

*** Psi4 exiting successfully. Buy a developer a beer!
