                               Psi4 1.4a3.dev225

  ==> Input File <==

--------------------------------------------------------------------------
#psi4
#
memory 32 gb

molecule  {
0 1
  O        3.2216350    -0.1065060     0.2904990
  C       -0.9146420     0.0169590    -0.3639610
  C       -2.4121960     0.0318470    -0.5323860
  C       -0.1907600     1.2076380    -0.2374780
  C       -0.2138010    -1.1929940    -0.2539850
  C       -3.1413340    -0.0192130     0.8137010
  C        1.1888560     1.1991780    -0.0236810
  C        1.1619340    -1.2201410    -0.0407060
  C        1.8648900    -0.0185630     0.0807020
  H       -2.7091570     0.9353730    -1.0779940
  H       -2.7186560    -0.8212200    -1.1493620
  H       -0.7079800     2.1625600    -0.3214960
  H       -0.7531780    -2.1343060    -0.3521420
  H       -2.8726550    -0.9274190     1.3607640
  H       -4.2274440    -0.0080790     0.6778440
  H       -2.8630000     0.8390280     1.4320080
  H        1.7343360     2.1384520     0.0639930
  H        1.7070130    -2.1569100     0.0367280
  H        3.5983689     0.8426852     0.3556084
units angstrom
no_reorient  #important for SAPT in psi4, default
symmetry c1  #important for SAPT in psi4, default
}

set PROPERTIES_ORIGIN ["COM"]
properties('MP2/aug-cc-pvtz', properties = ['dipole'])
--------------------------------------------------------------------------

    Molecular point group: c1
  Charge       = 0
  Multiplicity = 1
  Basis Set: AUG-CC-PVTZ
    Blend: AUG-CC-PVTZ
  Basis Set: (AUG-CC-PVTZ AUX)
    Blend: AUG-CC-PVTZ-JKFIT

    Orbital Energies [Eh]
    ---------------------

    Doubly Occupied:

       1A    -20.593303     2A    -11.299446     3A    -11.238498
       4A    -11.236833     5A    -11.234574     6A    -11.231435
       7A    -11.228539     8A    -11.227186     9A    -11.215310
      10A     -1.388024    11A     -1.149537    12A     -1.056750
      13A     -1.016505    14A     -0.973330    15A     -0.859653
      16A     -0.841441    17A     -0.789202    18A     -0.720194
      19A     -0.670626    20A     -0.646567    21A     -0.610788
      22A     -0.595410    23A     -0.586787    24A     -0.584671
      25A     -0.567747    26A     -0.553553    27A     -0.522642
      28A     -0.497577    29A     -0.480225    30A     -0.477955
      31A     -0.467087    32A     -0.340621    33A     -0.304610

  @DF-RHF Final Energy:  -383.76101932931891

   => Energetics <=

    Nuclear Repulsion Energy =            417.8164733705468734
    One-Electron Energy =               -1348.7417332032998729
    Two-Electron Energy =                 547.1642405034341436
    Total Energy =                       -383.7610193293188559
  Basis Set: (AUG-CC-PVTZ AUX)
    Blend: AUG-CC-PVTZ-RI
    Molecular point group: c1

    Geometry (in Angstrom), charge = 0, multiplicity = 1:

       Center              X                  Y                   Z               Mass
    ------------   -----------------  -----------------  -----------------  -----------------
         O            3.141715660695    -0.100197905064     0.298797644470    15.994914619570
         C           -0.994561339305     0.023267094936    -0.355662355530    12.000000000000
         C           -2.492115339305     0.038155094936    -0.524087355530    12.000000000000
         C           -0.270679339305     1.213946094936    -0.229179355530    12.000000000000
         C           -0.293720339305    -1.186685905064    -0.245686355530    12.000000000000
         C           -3.221253339305    -0.012904905064     0.821999644470    12.000000000000
         C            1.108936660695     1.205486094936    -0.015382355530    12.000000000000
         C            1.082014660695    -1.213832905064    -0.032407355530    12.000000000000
         C            1.784970660695    -0.012254905064     0.089000644470    12.000000000000
         H           -2.789076339305     0.941681094936    -1.069695355530     1.007825032230
         H           -2.798575339305    -0.814911905064    -1.141063355530     1.007825032230
         H           -0.787899339305     2.168868094936    -0.313197355530     1.007825032230
         H           -0.833097339305    -2.127997905064    -0.343843355530     1.007825032230
         H           -2.952574339305    -0.921110905064     1.369062644470     1.007825032230
         H           -4.307363339305    -0.001770905064     0.686142644470     1.007825032230
         H           -2.942919339305     0.845336094936     1.440306644470     1.007825032230
         H            1.654416660695     2.144760094936     0.072291644470     1.007825032230
         H            1.627093660695    -2.150601905064     0.045026644470     1.007825032230
         H            3.518449560695     0.848993294936     0.363907044470     1.007825032230

  Basis Set: AUG-CC-PVTZ
    Blend: AUG-CC-PVTZ
  Basis Set: (AUG-CC-PVTZ AUX)
    Blend: AUG-CC-PVTZ-JKFIT
	 Reference Energy          =    -383.7610193293189127 [Eh]
	 Singles Energy            =      -0.0000000000000000 [Eh]
	 Same-Spin Energy          =      -0.4134227888661721 [Eh]
	 Opposite-Spin Energy      =      -1.3206113756647835 [Eh]
	 Correlation Energy        =      -1.7340341645309556 [Eh]
	 Total Energy              =    -385.4950534938498663 [Eh]

	 ================> DF-SCS-MP2 Energies <==================
	-----------------------------------------------------------
	 SCS Same-Spin Scale       =       0.3333333333333333 [-]
	 SCS Opposite-Spin Scale   =       1.2000000000000000 [-]
	 SCS Same-Spin Energy      =      -0.1378075962887240 [Eh]
	 SCS Opposite-Spin Energy  =      -1.5847336507977401 [Eh]
	 SCS Correlation Energy    =      -1.7225412470864641 [Eh]
	 SCS Total Energy          =    -385.4835605764053525 [Eh]
	-----------------------------------------------------------

  Dipole Moment: [D]
     X:    -0.4236      Y:     1.3105      Z:     0.0019     Total:     1.3773

*** Psi4 exiting successfully. Buy a developer a beer!
