                               Psi4 1.4a3.dev225

  ==> Input File <==

--------------------------------------------------------------------------
#psi4
#
memory 32 gb

molecule  {
0 1
  O        3.2216350    -0.1065060     0.2904990
  C       -0.9146420     0.0169590    -0.3639610
  C       -2.4121960     0.0318470    -0.5323860
  C       -0.1907600     1.2076380    -0.2374780
  C       -0.2138010    -1.1929940    -0.2539850
  C       -3.1413340    -0.0192130     0.8137010
  C        1.1888560     1.1991780    -0.0236810
  C        1.1619340    -1.2201410    -0.0407060
  C        1.8648900    -0.0185630     0.0807020
  H       -2.7091570     0.9353730    -1.0779940
  H       -2.7186560    -0.8212200    -1.1493620
  H       -0.7079800     2.1625600    -0.3214960
  H       -0.7531780    -2.1343060    -0.3521420
  H       -2.8726550    -0.9274190     1.3607640
  H       -4.2274440    -0.0080790     0.6778440
  H       -2.8630000     0.8390280     1.4320080
  H        1.7343360     2.1384520     0.0639930
  H        1.7070130    -2.1569100     0.0367280
  H        3.5615531     0.7499268     0.3492456
units angstrom
no_reorient  #important for SAPT in psi4, default
symmetry c1  #important for SAPT in psi4, default
}

set PROPERTIES_ORIGIN ["COM"]
properties('MP2/aug-cc-pvtz', properties = ['dipole'])
--------------------------------------------------------------------------

    Molecular point group: c1
  Charge       = 0
  Multiplicity = 1
  Basis Set: AUG-CC-PVTZ
    Blend: AUG-CC-PVTZ
  Basis Set: (AUG-CC-PVTZ AUX)
    Blend: AUG-CC-PVTZ-JKFIT

    Orbital Energies [Eh]
    ---------------------

    Doubly Occupied:

       1A    -20.585027     2A    -11.300221     3A    -11.238993
       4A    -11.237171     5A    -11.235394     6A    -11.232136
       7A    -11.229059     8A    -11.227581     9A    -11.215649
      10A     -1.409315    11A     -1.151144    12A     -1.058622
      13A     -1.017151    14A     -0.976248    15A     -0.863755
      16A     -0.842969    17A     -0.793416    18A     -0.734623
      19A     -0.672575    20A     -0.647551    21A     -0.614763
      22A     -0.596477    23A     -0.588412    24A     -0.586690
      25A     -0.569779    26A     -0.557213    27A     -0.523194
      28A     -0.498799    29A     -0.480700    30A     -0.478487
      31A     -0.468269    32A     -0.341050    33A     -0.305754

  @DF-RHF Final Energy:  -383.76699695630919

   => Energetics <=

    Nuclear Repulsion Energy =            418.4069968985863284
    One-Electron Energy =               -1349.7916126627999347
    Two-Electron Energy =                 547.6176188079043641
    Total Energy =                       -383.7669969563091854
  Basis Set: (AUG-CC-PVTZ AUX)
    Blend: AUG-CC-PVTZ-RI
    Molecular point group: c1

    Geometry (in Angstrom), charge = 0, multiplicity = 1:

       Center              X                  Y                   Z               Mass
    ------------   -----------------  -----------------  -----------------  -----------------
         O            3.142019608617    -0.099432100086     0.298850175172    15.994914619570
         C           -0.994257391383     0.024032899914    -0.355609824828    12.000000000000
         C           -2.491811391383     0.038920899914    -0.524034824828    12.000000000000
         C           -0.270375391383     1.214711899914    -0.229126824828    12.000000000000
         C           -0.293416391383    -1.185920100086    -0.245633824828    12.000000000000
         C           -3.220949391383    -0.012139100086     0.822052175172    12.000000000000
         C            1.109240608617     1.206251899914    -0.015329824828    12.000000000000
         C            1.082318608617    -1.213067100086    -0.032354824828    12.000000000000
         C            1.785274608617    -0.011489100086     0.089053175172    12.000000000000
         H           -2.788772391383     0.942446899914    -1.069642824828     1.007825032230
         H           -2.798271391383    -0.814146100086    -1.141010824828     1.007825032230
         H           -0.787595391383     2.169633899914    -0.313144824828     1.007825032230
         H           -0.832793391383    -2.127232100086    -0.343790824828     1.007825032230
         H           -2.952270391383    -0.920345100086     1.369115175172     1.007825032230
         H           -4.307059391383    -0.001005100086     0.686195175172     1.007825032230
         H           -2.942615391383     0.846101899914     1.440359175172     1.007825032230
         H            1.654720608617     2.145525899914     0.072344175172     1.007825032230
         H            1.627397608617    -2.149836100086     0.045079175172     1.007825032230
         H            3.481937708617     0.757000699914     0.357596775172     1.007825032230

  Basis Set: AUG-CC-PVTZ
    Blend: AUG-CC-PVTZ
  Basis Set: (AUG-CC-PVTZ AUX)
    Blend: AUG-CC-PVTZ-JKFIT
	 Reference Energy          =    -383.7669969563091854 [Eh]
	 Singles Energy            =      -0.0000000000000000 [Eh]
	 Same-Spin Energy          =      -0.4121604349447336 [Eh]
	 Opposite-Spin Energy      =      -1.3174521903727232 [Eh]
	 Correlation Energy        =      -1.7296126253174569 [Eh]
	 Total Energy              =    -385.4966095816266147 [Eh]

	 ================> DF-SCS-MP2 Energies <==================
	-----------------------------------------------------------
	 SCS Same-Spin Scale       =       0.3333333333333333 [-]
	 SCS Opposite-Spin Scale   =       1.2000000000000000 [-]
	 SCS Same-Spin Energy      =      -0.1373868116482445 [Eh]
	 SCS Opposite-Spin Energy  =      -1.5809426284472679 [Eh]
	 SCS Correlation Energy    =      -1.7183294400955125 [Eh]
	 SCS Total Energy          =    -385.4853263964046732 [Eh]
	-----------------------------------------------------------

  Dipole Moment: [D]
     X:    -0.5059      Y:     1.2366      Z:    -0.0100     Total:     1.3361

*** Psi4 exiting successfully. Buy a developer a beer!
