                               Psi4 1.3.2 release

  ==> Input File <==

--------------------------------------------------------------------------
#psi4
#
memory 32 gb

molecule  {
0 1
  O       -3.1417080     0.0705380     0.3169670
  C        0.9485017    -0.0284234    -0.3544323
  C        2.4872910    -0.0052090    -0.5397260
  C        0.2806140    -1.2015640    -0.2442060
  C        0.2798770     1.1950560    -0.2368630
  C        3.2312830    -0.0061060     0.7967240
  C       -1.0960700    -1.2065460    -0.0157640
  C       -1.0946583     1.1579939    -0.0095168
  C       -1.7865290     0.0017960     0.1015840
  H        2.7838010    -0.8823900    -1.1265120
  H        2.7835740     0.8731460    -1.1246690
  H        0.8095070    -2.1483250    -0.3363770
  H        0.8092330     2.1418130    -0.3228610
  H        2.9650580     0.8755680     1.3857970
  H        4.3169070    -0.0053560     0.6533480
  H        2.9660240    -0.8892340     1.3840690
  H       -1.6288030    -2.1532140     0.0657430
  H       -1.6431320     2.1402150     0.0795740
  H       -3.4941530    -0.8345020     0.3676020
units angstrom
no_reorient  #important for SAPT in psi4, default
symmetry c1  #important for SAPT in psi4, default
}

set PROPERTIES_ORIGIN ["COM"]
properties('MP2/aug-cc-pvtz', properties = ['dipole'])
--------------------------------------------------------------------------

    Molecular point group: c1
  Charge       = 0
  Multiplicity = 1
  Basis Set: AUG-CC-PVTZ
    Blend: AUG-CC-PVTZ
  Basis Set: (AUG-CC-PVTZ AUX)
    Blend: AUG-CC-PVTZ-JKFIT

    Orbital Energies [Eh]
    ---------------------

    Doubly Occupied:

       1A    -20.588287     2A    -11.293412     3A    -11.236560
       4A    -11.235264     5A    -11.232381     6A    -11.228709
       7A    -11.228052     8A    -11.227218     9A    -11.214812
      10A     -1.397950    11A     -1.158475    12A     -1.055767
      13A     -1.018366    14A     -0.980286    15A     -0.860466
      16A     -0.844920    17A     -0.787967    18A     -0.731725
      19A     -0.672995    20A     -0.639455    21A     -0.617102
      22A     -0.596144    23A     -0.589570    24A     -0.585761
      25A     -0.566870    26A     -0.555572    27A     -0.521944
      28A     -0.499638    29A     -0.482523    30A     -0.473284
      31A     -0.463807    32A     -0.341005    33A     -0.312359

  @DF-RHF Final Energy:  -383.76112209809764

   => Energetics <=

    Nuclear Repulsion Energy =            419.4794824096664456
    One-Electron Energy =               -1352.0039204040806453
    Two-Electron Energy =                 548.7633158963166125
    Total Energy =                       -383.7611220980976441
  Basis Set: (AUG-CC-PVTZ AUX)
    Blend: AUG-CC-PVTZ-RI
    Molecular point group: c1

    Geometry (in Angstrom), charge = 0, multiplicity = 1:

       Center              X                  Y                   Z               Mass
    ------------   -----------------  -----------------  -----------------  -----------------
         O           -3.137643676356     0.077721917732     0.316334599363    15.994914619570
         C            0.952566023644    -0.021239482268    -0.355064700637    12.000000000000
         C            2.491355323644     0.001974917732    -0.540358400637    12.000000000000
         C            0.284678323644    -1.194380082268    -0.244838400637    12.000000000000
         C            0.283941323644     1.202239917732    -0.237495400637    12.000000000000
         C            3.235347323644     0.001077917732     0.796091599363    12.000000000000
         C           -1.092005676356    -1.199362082268    -0.016396400637    12.000000000000
         C           -1.090593976356     1.165177817732    -0.010149200637    12.000000000000
         C           -1.782464676356     0.008979917732     0.100951599363    12.000000000000
         H            2.787865323644    -0.875206082268    -1.127144400637     1.007825032230
         H            2.787638323644     0.880329917732    -1.125301400637     1.007825032230
         H            0.813571323644    -2.141141082268    -0.337009400637     1.007825032230
         H            0.813297323644     2.148996917732    -0.323493400637     1.007825032230
         H            2.969122323644     0.882751917732     1.385164599363     1.007825032230
         H            4.320971323644     0.001827917732     0.652715599363     1.007825032230
         H            2.970088323644    -0.882050082268     1.383436599363     1.007825032230
         H           -1.624738676356    -2.146030082268     0.065110599363     1.007825032230
         H           -1.639067676356     2.147398917732     0.078941599363     1.007825032230
         H           -3.490088676356    -0.827318082268     0.366969599363     1.007825032230

  Basis Set: AUG-CC-PVTZ
    Blend: AUG-CC-PVTZ
  Basis Set: (AUG-CC-PVTZ AUX)
    Blend: AUG-CC-PVTZ-JKFIT
	 Reference Energy          =    -383.7611220980976441 [Eh]
	 Singles Energy            =      -0.0000000000000000 [Eh]
	 Same-Spin Energy          =      -0.4126306774555026 [Eh]
	 Opposite-Spin Energy      =      -1.3183579698714383 [Eh]
	 Correlation Energy        =      -1.7309886473269409 [Eh]
	 Total Energy              =    -385.4921107454246112 [Eh]

	 ================> DF-SCS-MP2 Energies <==================
	-----------------------------------------------------------
	 SCS Same-Spin Scale       =       0.3333333333333333 [-]
	 SCS Opposite-Spin Scale   =       1.2000000000000000 [-]
	 SCS Same-Spin Energy      =      -0.1375435591518342 [Eh]
	 SCS Opposite-Spin Energy  =      -1.5820295638457258 [Eh]
	 SCS Correlation Energy    =      -1.7195731229975599 [Eh]
	 SCS Total Energy          =    -385.4806952210952318 [Eh]
	-----------------------------------------------------------

  Dipole Moment: [D]
     X:     0.4858      Y:    -1.2636      Z:    -0.0292     Total:     1.3541

*** Psi4 exiting successfully. Buy a developer a beer!
