                               Psi4 1.3.2 release

  ==> Input File <==

--------------------------------------------------------------------------
#psi4
#
memory 32 gb

molecule  {
0 1
  O       -3.1417080     0.0705380     0.3169670
  C        0.9902420    -0.0039870    -0.3612050
  C        2.4872910    -0.0052090    -0.5397260
  C        0.2806140    -1.2015640    -0.2442060
  C        0.1783389     1.3664448    -0.2190898
  C        3.2312830    -0.0061060     0.7967240
  C       -1.0960700    -1.2065460    -0.0157640
  C       -1.0950530     1.2066380    -0.0091780
  C       -1.7865290     0.0017960     0.1015840
  H        2.7838010    -0.8823900    -1.1265120
  H        2.7835740     0.8731460    -1.1246690
  H        0.8095070    -2.1483250    -0.3363770
  H        0.8092330     2.1418130    -0.3228610
  H        2.9650580     0.8755680     1.3857970
  H        4.3169070    -0.0053560     0.6533480
  H        2.9660240    -0.8892340     1.3840690
  H       -1.6288030    -2.1532140     0.0657430
  H       -1.6431320     2.1402150     0.0795740
  H       -3.4941530    -0.8345020     0.3676020
units angstrom
no_reorient  #important for SAPT in psi4, default
symmetry c1  #important for SAPT in psi4, default
}

set PROPERTIES_ORIGIN ["COM"]
properties('MP2/aug-cc-pvtz', properties = ['dipole'])
--------------------------------------------------------------------------

    Molecular point group: c1
  Charge       = 0
  Multiplicity = 1
  Basis Set: AUG-CC-PVTZ
    Blend: AUG-CC-PVTZ
  Basis Set: (AUG-CC-PVTZ AUX)
    Blend: AUG-CC-PVTZ-JKFIT

    Orbital Energies [Eh]
    ---------------------

    Doubly Occupied:

       1A    -20.590437     2A    -11.301307     3A    -11.245282
       4A    -11.239191     5A    -11.233102     6A    -11.231920
       7A    -11.227664     8A    -11.224342     9A    -11.215054
      10A     -1.399259    11A     -1.142697    12A     -1.057505
      13A     -1.030034    14A     -0.964098    15A     -0.869064
      16A     -0.839202    17A     -0.782439    18A     -0.738766
      19A     -0.670623    20A     -0.642244    21A     -0.629644
      22A     -0.601269    23A     -0.593529    24A     -0.588045
      25A     -0.569784    26A     -0.548721    27A     -0.523471
      28A     -0.501047    29A     -0.482196    30A     -0.465787
      31A     -0.443672    32A     -0.358219    33A     -0.289753

  @DF-RHF Final Energy:  -383.72567407670670

   => Energetics <=

    Nuclear Repulsion Energy =            416.2640549186143062
    One-Electron Energy =               -1345.5007249918044181
    Two-Electron Energy =                 545.5109959964834161
    Total Energy =                       -383.7256740767066958
  Basis Set: (AUG-CC-PVTZ AUX)
    Blend: AUG-CC-PVTZ-RI
    Molecular point group: c1

    Geometry (in Angstrom), charge = 0, multiplicity = 1:

       Center              X                  Y                   Z               Mass
    ------------   -----------------  -----------------  -----------------  -----------------
         O           -3.131726651100     0.053690169219     0.315219926862    15.994914619570
         C            1.000223348900    -0.020834830781    -0.362952073138    12.000000000000
         C            2.497272348900    -0.022056830781    -0.541473073138    12.000000000000
         C            0.290595348900    -1.218411830781    -0.245953073138    12.000000000000
         C            0.188320248900     1.349596969219    -0.220836873138    12.000000000000
         C            3.241264348900    -0.022953830781     0.794976926862    12.000000000000
         C           -1.086088651100    -1.223393830781    -0.017511073138    12.000000000000
         C           -1.085071651100     1.189790169219    -0.010925073138    12.000000000000
         C           -1.776547651100    -0.015051830781     0.099836926862    12.000000000000
         H            2.793782348900    -0.899237830781    -1.128259073138     1.007825032230
         H            2.793555348900     0.856298169219    -1.126416073138     1.007825032230
         H            0.819488348900    -2.165172830781    -0.338124073138     1.007825032230
         H            0.819214348900     2.124965169219    -0.324608073138     1.007825032230
         H            2.975039348900     0.858720169219     1.384049926862     1.007825032230
         H            4.326888348900    -0.022203830781     0.651600926862     1.007825032230
         H            2.976005348900    -0.906081830781     1.382321926862     1.007825032230
         H           -1.618821651100    -2.170061830781     0.063995926862     1.007825032230
         H           -1.633150651100     2.123367169219     0.077826926862     1.007825032230
         H           -3.484171651100    -0.851349830781     0.365854926862     1.007825032230

  Basis Set: AUG-CC-PVTZ
    Blend: AUG-CC-PVTZ
  Basis Set: (AUG-CC-PVTZ AUX)
    Blend: AUG-CC-PVTZ-JKFIT
	 Reference Energy          =    -383.7256740767066958 [Eh]
	 Singles Energy            =      -0.0000000000000000 [Eh]
	 Same-Spin Energy          =      -0.4123069916233280 [Eh]
	 Opposite-Spin Energy      =      -1.3210662676601086 [Eh]
	 Correlation Energy        =      -1.7333732592834366 [Eh]
	 Total Energy              =    -385.4590473359901353 [Eh]

	 ================> DF-SCS-MP2 Energies <==================
	-----------------------------------------------------------
	 SCS Same-Spin Scale       =       0.3333333333333333 [-]
	 SCS Opposite-Spin Scale   =       1.2000000000000000 [-]
	 SCS Same-Spin Energy      =      -0.1374356638744427 [Eh]
	 SCS Opposite-Spin Energy  =      -1.5852795211921302 [Eh]
	 SCS Correlation Energy    =      -1.7227151850665730 [Eh]
	 SCS Total Energy          =    -385.4483892617732863 [Eh]
	-----------------------------------------------------------

  Dipole Moment: [D]
     X:     0.4721      Y:    -1.1830      Z:    -0.0206     Total:     1.2739

*** Psi4 exiting successfully. Buy a developer a beer!
