                               Psi4 1.3.2 release

  ==> Input File <==

--------------------------------------------------------------------------
#psi4
#
memory 32 gb

molecule  {
0 1
  O       -3.1417080     0.0705380     0.3169670
  C        0.9902420    -0.0039870    -0.3612050
  C        2.4856094     0.0736548    -0.5369176
  C        0.2806140    -1.2015640    -0.2442060
  C        0.3433423     1.2310790    -0.2432382
  C        3.2312830    -0.0061060     0.7967240
  C       -1.0960700    -1.2065460    -0.0157640
  C       -1.0950530     1.2066380    -0.0091780
  C       -1.7865290     0.0017960     0.1015840
  H        2.7838010    -0.8823900    -1.1265120
  H        2.7835740     0.8731460    -1.1246690
  H        0.8095070    -2.1483250    -0.3363770
  H        0.8092330     2.1418130    -0.3228610
  H        2.9650580     0.8755680     1.3857970
  H        4.3169070    -0.0053560     0.6533480
  H        2.9660240    -0.8892340     1.3840690
  H       -1.6288030    -2.1532140     0.0657430
  H       -1.6431320     2.1402150     0.0795740
  H       -3.4941530    -0.8345020     0.3676020
units angstrom
no_reorient  #important for SAPT in psi4, default
symmetry c1  #important for SAPT in psi4, default
}

set PROPERTIES_ORIGIN ["COM"]
properties('MP2/aug-cc-pvtz', properties = ['dipole'])
--------------------------------------------------------------------------

    Molecular point group: c1
  Charge       = 0
  Multiplicity = 1
  Basis Set: AUG-CC-PVTZ
    Blend: AUG-CC-PVTZ
  Basis Set: (AUG-CC-PVTZ AUX)
    Blend: AUG-CC-PVTZ-JKFIT

    Orbital Energies [Eh]
    ---------------------

    Doubly Occupied:

       1A    -20.588954     2A    -11.298860     3A    -11.240576
       4A    -11.238160     5A    -11.236907     6A    -11.233386
       7A    -11.233214     8A    -11.226632     9A    -11.215415
      10A     -1.398173    11A     -1.147072    12A     -1.058268
      13A     -1.011490    14A     -0.976165    15A     -0.860374
      16A     -0.849638    17A     -0.787250    18A     -0.732893
      19A     -0.674192    20A     -0.649575    21A     -0.612684
      22A     -0.602076    23A     -0.588731    24A     -0.586263
      25A     -0.564125    26A     -0.555287    27A     -0.526350
      28A     -0.503059    29A     -0.489686    30A     -0.466479
      31A     -0.456414    32A     -0.334325    33A     -0.307827

  @DF-RHF Final Energy:  -383.75087350525422

   => Energetics <=

    Nuclear Repulsion Energy =            417.4736579392879889
    One-Electron Energy =               -1347.9480582211263027
    Two-Electron Energy =                 546.7235267765840945
    Total Energy =                       -383.7508735052542761
  Basis Set: (AUG-CC-PVTZ AUX)
    Blend: AUG-CC-PVTZ-RI
    Molecular point group: c1

    Geometry (in Angstrom), charge = 0, multiplicity = 1:

       Center              X                  Y                   Z               Mass
    ------------   -----------------  -----------------  -----------------  -----------------
         O           -3.147781462171     0.059244412040     0.317317685203    15.994914619570
         C            0.984168537829    -0.015280587960    -0.360854314797    12.000000000000
         C            2.479535937829     0.062361212040    -0.536566914797    12.000000000000
         C            0.274540537829    -1.212857587960    -0.243855314797    12.000000000000
         C            0.337268837829     1.219785412040    -0.242887514797    12.000000000000
         C            3.225209537829    -0.017399587960     0.797074685203    12.000000000000
         C           -1.102143462171    -1.217839587960    -0.015413314797    12.000000000000
         C           -1.101126462171     1.195344412040    -0.008827314797    12.000000000000
         C           -1.792602462171    -0.009497587960     0.101934685203    12.000000000000
         H            2.777727537829    -0.893683587960    -1.126161314797     1.007825032230
         H            2.777500537829     0.861852412040    -1.124318314797     1.007825032230
         H            0.803433537829    -2.159618587960    -0.336026314797     1.007825032230
         H            0.803159537829     2.130519412040    -0.322510314797     1.007825032230
         H            2.958984537829     0.864274412040     1.386147685203     1.007825032230
         H            4.310833537829    -0.016649587960     0.653698685203     1.007825032230
         H            2.959950537829    -0.900527587960     1.384419685203     1.007825032230
         H           -1.634876462171    -2.164507587960     0.066093685203     1.007825032230
         H           -1.649205462171     2.128921412040     0.079924685203     1.007825032230
         H           -3.500226462171    -0.845795587960     0.367952685203     1.007825032230

  Basis Set: AUG-CC-PVTZ
    Blend: AUG-CC-PVTZ
  Basis Set: (AUG-CC-PVTZ AUX)
    Blend: AUG-CC-PVTZ-JKFIT
	 Reference Energy          =    -383.7508735052542193 [Eh]
	 Singles Energy            =      -0.0000000000000000 [Eh]
	 Same-Spin Energy          =      -0.4130515564855151 [Eh]
	 Opposite-Spin Energy      =      -1.3200934308043921 [Eh]
	 Correlation Energy        =      -1.7331449872899072 [Eh]
	 Total Energy              =    -385.4840184925441235 [Eh]

	 ================> DF-SCS-MP2 Energies <==================
	-----------------------------------------------------------
	 SCS Same-Spin Scale       =       0.3333333333333333 [-]
	 SCS Opposite-Spin Scale   =       1.2000000000000000 [-]
	 SCS Same-Spin Energy      =      -0.1376838521618383 [Eh]
	 SCS Opposite-Spin Energy  =      -1.5841121169652705 [Eh]
	 SCS Correlation Energy    =      -1.7217959691271090 [Eh]
	 SCS Total Energy          =    -385.4726694743813482 [Eh]
	-----------------------------------------------------------

  Dipole Moment: [D]
     X:     0.4630      Y:    -1.2361      Z:    -0.0138     Total:     1.3200

*** Psi4 exiting successfully. Buy a developer a beer!
