                               Psi4 1.3.2 release

  ==> Input File <==

--------------------------------------------------------------------------
#psi4
#
memory 32 gb

molecule  {
0 1
  O       -3.1417080     0.0705380     0.3169670
  C        0.9902420    -0.0039870    -0.3612050
  C        2.4872910    -0.0052090    -0.5397260
  C        0.2806140    -1.2015640    -0.2442060
  C        0.2798770     1.1950560    -0.2368630
  C        3.2312830    -0.0061060     0.7967240
  C       -1.0753626    -1.1941392    -0.0191472
  C       -1.0744171     1.1942329    -0.0126189
  C       -1.7865290     0.0017960     0.1015840
  H        2.7838010    -0.8823900    -1.1265120
  H        2.7835740     0.8731460    -1.1246690
  H        0.8095070    -2.1483250    -0.3363770
  H        0.8092330     2.1418130    -0.3228610
  H        2.9650580     0.8755680     1.3857970
  H        4.3169070    -0.0053560     0.6533480
  H        2.9660240    -0.8892340     1.3840690
  H       -1.6288030    -2.1532140     0.0657430
  H       -1.6431320     2.1402150     0.0795740
  H       -3.4941530    -0.8345020     0.3676020
units angstrom
no_reorient  #important for SAPT in psi4, default
symmetry c1  #important for SAPT in psi4, default
}

set PROPERTIES_ORIGIN ["COM"]
properties('MP2/aug-cc-pvtz', properties = ['dipole'])
--------------------------------------------------------------------------

    Molecular point group: c1
  Charge       = 0
  Multiplicity = 1
  Basis Set: AUG-CC-PVTZ
    Blend: AUG-CC-PVTZ
  Basis Set: (AUG-CC-PVTZ AUX)
    Blend: AUG-CC-PVTZ-JKFIT

    Orbital Energies [Eh]
    ---------------------

    Doubly Occupied:

       1A    -20.591472     2A    -11.298953     3A    -11.235471
       4A    -11.234126     5A    -11.233220     6A    -11.230563
       7A    -11.227696     8A    -11.226769     9A    -11.215223
      10A     -1.399431    11A     -1.155138    12A     -1.058359
      13A     -1.020262    14A     -0.975666    15A     -0.863161
      16A     -0.839863    17A     -0.791402    18A     -0.730285
      19A     -0.674063    20A     -0.643406    21A     -0.611662
      22A     -0.594575    23A     -0.588399    24A     -0.584639
      25A     -0.571427    26A     -0.557758    27A     -0.524029
      28A     -0.495146    29A     -0.480352    30A     -0.474420
      31A     -0.471275    32A     -0.344883    33A     -0.304536

  @DF-RHF Final Energy:  -383.76521598155188

   => Energetics <=

    Nuclear Repulsion Energy =            419.0255619258623483
    One-Electron Energy =               -1351.0863008205401457
    Two-Electron Energy =                 548.2955229131259784
    Total Energy =                       -383.7652159815518189
  Basis Set: (AUG-CC-PVTZ AUX)
    Blend: AUG-CC-PVTZ-RI
    Molecular point group: c1

    Geometry (in Angstrom), charge = 0, multiplicity = 1:

       Center              X                  Y                   Z               Mass
    ------------   -----------------  -----------------  -----------------  -----------------
         O           -3.145772136042     0.070537813015     0.317637883340    15.994914619570
         C            0.986177863958    -0.003987186985    -0.360534116660    12.000000000000
         C            2.483226863958    -0.005209186985    -0.539055116660    12.000000000000
         C            0.276549863958    -1.201564186985    -0.243535116660    12.000000000000
         C            0.275812863958     1.195055813015    -0.236192116660    12.000000000000
         C            3.227218863958    -0.006106186985     0.797394883340    12.000000000000
         C           -1.079426736042    -1.194139386985    -0.018476316660    12.000000000000
         C           -1.078481236042     1.194232713015    -0.011948016660    12.000000000000
         C           -1.790593136042     0.001795813015     0.102254883340    12.000000000000
         H            2.779736863958    -0.882390186985    -1.125841116660     1.007825032230
         H            2.779509863958     0.873145813015    -1.123998116660     1.007825032230
         H            0.805442863958    -2.148325186985    -0.335706116660     1.007825032230
         H            0.805168863958     2.141812813015    -0.322190116660     1.007825032230
         H            2.960993863958     0.875567813015     1.386467883340     1.007825032230
         H            4.312842863958    -0.005356186985     0.654018883340     1.007825032230
         H            2.961959863958    -0.889234186985     1.384739883340     1.007825032230
         H           -1.632867136042    -2.153214186985     0.066413883340     1.007825032230
         H           -1.647196136042     2.140214813015     0.080244883340     1.007825032230
         H           -3.498217136042    -0.834502186985     0.368272883340     1.007825032230

  Basis Set: AUG-CC-PVTZ
    Blend: AUG-CC-PVTZ
  Basis Set: (AUG-CC-PVTZ AUX)
    Blend: AUG-CC-PVTZ-JKFIT
	 Reference Energy          =    -383.7652159815518758 [Eh]
	 Singles Energy            =      -0.0000000000000000 [Eh]
	 Same-Spin Energy          =      -0.4129010935371576 [Eh]
	 Opposite-Spin Energy      =      -1.3187012452915772 [Eh]
	 Correlation Energy        =      -1.7316023388287347 [Eh]
	 Total Energy              =    -385.4968183203806120 [Eh]

	 ================> DF-SCS-MP2 Energies <==================
	-----------------------------------------------------------
	 SCS Same-Spin Scale       =       0.3333333333333333 [-]
	 SCS Opposite-Spin Scale   =       1.2000000000000000 [-]
	 SCS Same-Spin Energy      =      -0.1376336978457192 [Eh]
	 SCS Opposite-Spin Energy  =      -1.5824414943498926 [Eh]
	 SCS Correlation Energy    =      -1.7200751921956117 [Eh]
	 SCS Total Energy          =    -385.4852911737474983 [Eh]
	-----------------------------------------------------------

  Dipole Moment: [D]
     X:     0.4475      Y:    -1.2744      Z:    -0.0170     Total:     1.3508

*** Psi4 exiting successfully. Buy a developer a beer!
