                               Psi4 1.4a3.dev225

  ==> Input File <==

--------------------------------------------------------------------------
#psi4
#
memory 32 gb

molecule  {
0 1
  O        3.2216350    -0.1065060     0.2904990
  C       -0.9146420     0.0169590    -0.3639610
  C       -2.4121960     0.0318470    -0.5323860
  C       -0.1907600     1.2076380    -0.2374780
  C       -0.2387848    -1.1498612    -0.2579055
  C       -3.1413340    -0.0192130     0.8137010
  C        1.1888560     1.1991780    -0.0236810
  C        1.1619340    -1.2201410    -0.0407060
  C        1.8648900    -0.0185630     0.0807020
  H       -2.7091570     0.9353730    -1.0779940
  H       -2.7186560    -0.8212200    -1.1493620
  H       -0.7079800     2.1625600    -0.3214960
  H       -0.7531780    -2.1343060    -0.3521420
  H       -2.8726550    -0.9274190     1.3607640
  H       -4.2274440    -0.0080790     0.6778440
  H       -2.8630000     0.8390280     1.4320080
  H        1.7343360     2.1384520     0.0639930
  H        1.7070130    -2.1569100     0.0367280
  H        3.5799610     0.7963060     0.3524270
units angstrom
no_reorient  #important for SAPT in psi4, default
symmetry c1  #important for SAPT in psi4, default
}

set PROPERTIES_ORIGIN ["COM"]
properties('MP2/aug-cc-pvtz', properties = ['dipole'])
--------------------------------------------------------------------------

    Molecular point group: c1
  Charge       = 0
  Multiplicity = 1
  Basis Set: AUG-CC-PVTZ
    Blend: AUG-CC-PVTZ
  Basis Set: (AUG-CC-PVTZ AUX)
    Blend: AUG-CC-PVTZ-JKFIT

    Orbital Energies [Eh]
    ---------------------

    Doubly Occupied:

       1A    -20.589155     2A    -11.299346     3A    -11.240260
       4A    -11.235967     5A    -11.235770     6A    -11.229856
       7A    -11.227333     8A    -11.226325     9A    -11.215531
      10A     -1.397609    11A     -1.154206    12A     -1.058638
      13A     -1.013252    14A     -0.978560    15A     -0.859780
      16A     -0.844252    17A     -0.792585    18A     -0.725557
      19A     -0.672334    20A     -0.647833    21A     -0.612282
      22A     -0.596337    23A     -0.587235    24A     -0.584428
      25A     -0.565576    26A     -0.556400    27A     -0.523057
      28A     -0.497206    29A     -0.482382    30A     -0.476992
      31A     -0.469000    32A     -0.338268    33A     -0.309465

  @DF-RHF Final Energy:  -383.76324000206444

   => Energetics <=

    Nuclear Repulsion Energy =            418.6834898065748121
    One-Electron Energy =               -1350.4079053801171995
    Two-Electron Energy =                 547.9611755714779520
    Total Energy =                       -383.7632400020644354
  Basis Set: (AUG-CC-PVTZ AUX)
    Blend: AUG-CC-PVTZ-RI
    Molecular point group: c1

    Geometry (in Angstrom), charge = 0, multiplicity = 1:

       Center              X                  Y                   Z               Mass
    ------------   -----------------  -----------------  -----------------  -----------------
         O            3.144323584743    -0.104055030269     0.299209301648    15.994914619570
         C           -0.991953415257     0.019409969731    -0.355250698352    12.000000000000
         C           -2.489507415257     0.034297969731    -0.523675698352    12.000000000000
         C           -0.268071415257     1.210088969731    -0.228767698352    12.000000000000
         C           -0.316096215257    -1.147410230269    -0.249195198352    12.000000000000
         C           -3.218645415257    -0.016762030269     0.822411301648    12.000000000000
         C            1.111544584743     1.201628969731    -0.014970698352    12.000000000000
         C            1.084622584743    -1.217690030269    -0.031995698352    12.000000000000
         C            1.787578584743    -0.016112030269     0.089412301648    12.000000000000
         H           -2.786468415257     0.937823969731    -1.069283698352     1.007825032230
         H           -2.795967415257    -0.818769030269    -1.140651698352     1.007825032230
         H           -0.785291415257     2.165010969731    -0.312785698352     1.007825032230
         H           -0.830489415257    -2.131855030269    -0.343431698352     1.007825032230
         H           -2.949966415257    -0.924968030269     1.369474301648     1.007825032230
         H           -4.304755415257    -0.005628030269     0.686554301648     1.007825032230
         H           -2.940311415257     0.841478969731     1.440718301648     1.007825032230
         H            1.657024584743     2.140902969731     0.072703301648     1.007825032230
         H            1.629701584743    -2.154459030269     0.045438301648     1.007825032230
         H            3.502649584743     0.798756969731     0.361137301648     1.007825032230

  Basis Set: AUG-CC-PVTZ
    Blend: AUG-CC-PVTZ
  Basis Set: (AUG-CC-PVTZ AUX)
    Blend: AUG-CC-PVTZ-JKFIT
	 Reference Energy          =    -383.7632400020644354 [Eh]
	 Singles Energy            =      -0.0000000000000000 [Eh]
	 Same-Spin Energy          =      -0.4128353988798505 [Eh]
	 Opposite-Spin Energy      =      -1.3190887717855224 [Eh]
	 Correlation Energy        =      -1.7319241706653730 [Eh]
	 Total Energy              =    -385.4951641727298011 [Eh]

	 ================> DF-SCS-MP2 Energies <==================
	-----------------------------------------------------------
	 SCS Same-Spin Scale       =       0.3333333333333333 [-]
	 SCS Opposite-Spin Scale   =       1.2000000000000000 [-]
	 SCS Same-Spin Energy      =      -0.1376117996266168 [Eh]
	 SCS Opposite-Spin Energy  =      -1.5829065261426269 [Eh]
	 SCS Correlation Energy    =      -1.7205183257692438 [Eh]
	 SCS Total Energy          =    -385.4837583278336979 [Eh]
	-----------------------------------------------------------

  Dipole Moment: [D]
     X:    -0.4538      Y:     1.3024      Z:    -0.0019     Total:     1.3792

*** Psi4 exiting successfully. Buy a developer a beer!
