                               Psi4 1.3.2 release

  ==> Input File <==

--------------------------------------------------------------------------
#psi4
#
memory 32 gb

molecule  {
0 1
  O       -3.1417080     0.0705380     0.3169670
  C        1.0511677     0.0353982    -0.3713547
  C        2.4872910    -0.0052090    -0.5397260
  C        0.2806140    -1.2015640    -0.2442060
  C        0.2798770     1.1950560    -0.2368630
  C        3.2312830    -0.0061060     0.7967240
  C       -1.0960700    -1.2065460    -0.0157640
  C       -1.0950530     1.2066380    -0.0091780
  C       -1.7865290     0.0017960     0.1015840
  H        2.7838010    -0.8823900    -1.1265120
  H        2.7835740     0.8731460    -1.1246690
  H        0.8095070    -2.1483250    -0.3363770
  H        0.8573484     2.1124487    -0.3310954
  H        2.9650580     0.8755680     1.3857970
  H        4.3169070    -0.0053560     0.6533480
  H        2.9660240    -0.8892340     1.3840690
  H       -1.6288030    -2.1532140     0.0657430
  H       -1.6431320     2.1402150     0.0795740
  H       -3.4941530    -0.8345020     0.3676020
units angstrom
no_reorient  #important for SAPT in psi4, default
symmetry c1  #important for SAPT in psi4, default
}

set PROPERTIES_ORIGIN ["COM"]
properties('MP2/aug-cc-pvtz', properties = ['dipole'])
--------------------------------------------------------------------------

    Molecular point group: c1
  Charge       = 0
  Multiplicity = 1
  Basis Set: AUG-CC-PVTZ
    Blend: AUG-CC-PVTZ
  Basis Set: (AUG-CC-PVTZ AUX)
    Blend: AUG-CC-PVTZ-JKFIT

    Orbital Energies [Eh]
    ---------------------

    Doubly Occupied:

       1A    -20.590172     2A    -11.300335     3A    -11.244826
       4A    -11.236082     5A    -11.235937     6A    -11.234366
       7A    -11.227918     8A    -11.225449     9A    -11.216750
      10A     -1.399192    11A     -1.147248    12A     -1.067111
      13A     -1.013949    14A     -0.972980    15A     -0.868710
      16A     -0.839543    17A     -0.790534    18A     -0.727724
      19A     -0.670962    20A     -0.651571    21A     -0.614501
      22A     -0.595322    23A     -0.587032    24A     -0.582184
      25A     -0.574260    26A     -0.553994    27A     -0.527650
      28A     -0.498359    29A     -0.495034    30A     -0.466896
      31A     -0.463782    32A     -0.340564    33A     -0.300415

  @DF-RHF Final Energy:  -383.75778899390326

   => Energetics <=

    Nuclear Repulsion Energy =            417.9418306438066111
    One-Electron Energy =               -1348.8765374864444766
    Two-Electron Energy =                 547.1769178487345471
    Total Energy =                       -383.7577889939033184
  Basis Set: (AUG-CC-PVTZ AUX)
    Blend: AUG-CC-PVTZ-RI
    Molecular point group: c1

    Geometry (in Angstrom), charge = 0, multiplicity = 1:

       Center              X                  Y                   Z               Mass
    ------------   -----------------  -----------------  -----------------  -----------------
         O           -3.148094355710     0.066908776907     0.318032777947    15.994914619570
         C            1.044781344290     0.031768976907    -0.370288922053    12.000000000000
         C            2.480904644290    -0.008838223093    -0.538660222053    12.000000000000
         C            0.274227644290    -1.205193223093    -0.243140222053    12.000000000000
         C            0.273490644290     1.191426776907    -0.235797222053    12.000000000000
         C            3.224896644290    -0.009735223093     0.797789777947    12.000000000000
         C           -1.102456355710    -1.210175223093    -0.014698222053    12.000000000000
         C           -1.101439355710     1.203008776907    -0.008112222053    12.000000000000
         C           -1.792915355710    -0.001833223093     0.102649777947    12.000000000000
         H            2.777414644290    -0.886019223093    -1.125446222053     1.007825032230
         H            2.777187644290     0.869516776907    -1.123603222053     1.007825032230
         H            0.803120644290    -2.151954223093    -0.335311222053     1.007825032230
         H            0.850962044290     2.108819476907    -0.330029622053     1.007825032230
         H            2.958671644290     0.871938776907     1.386862777947     1.007825032230
         H            4.310520644290    -0.008985223093     0.654413777947     1.007825032230
         H            2.959637644290    -0.892863223093     1.385134777947     1.007825032230
         H           -1.635189355710    -2.156843223093     0.066808777947     1.007825032230
         H           -1.649518355710     2.136585776907     0.080639777947     1.007825032230
         H           -3.500539355710    -0.838131223093     0.368667777947     1.007825032230

  Basis Set: AUG-CC-PVTZ
    Blend: AUG-CC-PVTZ
  Basis Set: (AUG-CC-PVTZ AUX)
    Blend: AUG-CC-PVTZ-JKFIT
	 Reference Energy          =    -383.7577889939032616 [Eh]
	 Singles Energy            =      -0.0000000000000000 [Eh]
	 Same-Spin Energy          =      -0.4136145259394478 [Eh]
	 Opposite-Spin Energy      =      -1.3202278308828919 [Eh]
	 Correlation Energy        =      -1.7338423568223398 [Eh]
	 Total Energy              =    -385.4916313507255836 [Eh]

	 ================> DF-SCS-MP2 Energies <==================
	-----------------------------------------------------------
	 SCS Same-Spin Scale       =       0.3333333333333333 [-]
	 SCS Opposite-Spin Scale   =       1.2000000000000000 [-]
	 SCS Same-Spin Energy      =      -0.1378715086464826 [Eh]
	 SCS Opposite-Spin Energy  =      -1.5842733970594702 [Eh]
	 SCS Correlation Energy    =      -1.7221449057059528 [Eh]
	 SCS Total Energy          =    -385.4799338996091933 [Eh]
	-----------------------------------------------------------

  Dipole Moment: [D]
     X:     0.5388      Y:    -1.3209      Z:    -0.0143     Total:     1.4266

*** Psi4 exiting successfully. Buy a developer a beer!
