                               Psi4 1.4a3.dev225

  ==> Input File <==

--------------------------------------------------------------------------
#psi4
#
memory 32 gb

molecule  {
0 1
  O        3.2216350    -0.1065060     0.2904990
  C       -0.9146420     0.0169590    -0.3639610
  C       -2.4121960     0.0318470    -0.5323860
  C       -0.1907600     1.2076380    -0.2374780
  C       -0.2138010    -1.1929940    -0.2539850
  C       -3.1413340    -0.0192130     0.8137010
  C        1.1888560     1.1991780    -0.0236810
  C        1.1619340    -1.2201410    -0.0407060
  C        1.9142017    -0.0217593     0.0883272
  H       -2.7091570     0.9353730    -1.0779940
  H       -2.7186560    -0.8212200    -1.1493620
  H       -0.7079800     2.1625600    -0.3214960
  H       -0.7531780    -2.1343060    -0.3521420
  H       -2.8726550    -0.9274190     1.3607640
  H       -4.2274440    -0.0080790     0.6778440
  H       -2.8630000     0.8390280     1.4320080
  H        1.7343360     2.1384520     0.0639930
  H        1.7070130    -2.1569100     0.0367280
  H        3.5799610     0.7963060     0.3524270
units angstrom
no_reorient  #important for SAPT in psi4, default
symmetry c1  #important for SAPT in psi4, default
}

set PROPERTIES_ORIGIN ["COM"]
properties('MP2/aug-cc-pvtz', properties = ['dipole'])
--------------------------------------------------------------------------

    Molecular point group: c1
  Charge       = 0
  Multiplicity = 1
  Basis Set: AUG-CC-PVTZ
    Blend: AUG-CC-PVTZ
  Basis Set: (AUG-CC-PVTZ AUX)
    Blend: AUG-CC-PVTZ-JKFIT

    Orbital Energies [Eh]
    ---------------------

    Doubly Occupied:

       1A    -20.599416     2A    -11.305093     3A    -11.237444
       4A    -11.235559     5A    -11.234875     6A    -11.228860
       7A    -11.228085     8A    -11.225679     9A    -11.214067
      10A     -1.425716    11A     -1.144400    12A     -1.053327
      13A     -1.012230    14A     -0.972063    15A     -0.862934
      16A     -0.839731    17A     -0.793758    18A     -0.736495
      19A     -0.675156    20A     -0.647615    21A     -0.612661
      22A     -0.601896    23A     -0.597145    24A     -0.580223
      25A     -0.568909    26A     -0.559736    27A     -0.522211
      28A     -0.492372    29A     -0.479348    30A     -0.473309
      31A     -0.464619    32A     -0.338612    33A     -0.297840

  @DF-RHF Final Energy:  -383.76311569528082

   => Energetics <=

    Nuclear Repulsion Energy =            417.8057366938075461
    One-Electron Energy =               -1348.6149371547146529
    Two-Electron Energy =                 547.0460847656262331
    Total Energy =                       -383.7631156952808169
  Basis Set: (AUG-CC-PVTZ AUX)
    Blend: AUG-CC-PVTZ-RI
    Molecular point group: c1

    Geometry (in Angstrom), charge = 0, multiplicity = 1:

       Center              X                  Y                   Z               Mass
    ------------   -----------------  -----------------  -----------------  -----------------
         O            3.137020210570    -0.099500800842     0.298074339676    15.994914619570
         C           -0.999256789430     0.023964199158    -0.356385660324    12.000000000000
         C           -2.496810789430     0.038852199158    -0.524810660324    12.000000000000
         C           -0.275374789430     1.214643199158    -0.229902660324    12.000000000000
         C           -0.298415789430    -1.185988800842    -0.246409660324    12.000000000000
         C           -3.225948789430    -0.012207800842     0.821276339676    12.000000000000
         C            1.104241210570     1.206183199158    -0.016105660324    12.000000000000
         C            1.077319210570    -1.213135800842    -0.033130660324    12.000000000000
         C            1.829586910570    -0.014754100842     0.095902539676    12.000000000000
         H           -2.793771789430     0.942378199158    -1.070418660324     1.007825032230
         H           -2.803270789430    -0.814214800842    -1.141786660324     1.007825032230
         H           -0.792594789430     2.169565199158    -0.313920660324     1.007825032230
         H           -0.837792789430    -2.127300800842    -0.344566660324     1.007825032230
         H           -2.957269789430    -0.920413800842     1.368339339676     1.007825032230
         H           -4.312058789430    -0.001073800842     0.685419339676     1.007825032230
         H           -2.947614789430     0.846033199158     1.439583339676     1.007825032230
         H            1.649721210570     2.145457199158     0.071568339676     1.007825032230
         H            1.622398210570    -2.149904800842     0.044303339676     1.007825032230
         H            3.495346210570     0.803311199158     0.360002339676     1.007825032230

  Basis Set: AUG-CC-PVTZ
    Blend: AUG-CC-PVTZ
  Basis Set: (AUG-CC-PVTZ AUX)
    Blend: AUG-CC-PVTZ-JKFIT
	 Reference Energy          =    -383.7631156952808169 [Eh]
	 Singles Energy            =      -0.0000000000000000 [Eh]
	 Same-Spin Energy          =      -0.4129354033067490 [Eh]
	 Opposite-Spin Energy      =      -1.3188341090600246 [Eh]
	 Correlation Energy        =      -1.7317695123667736 [Eh]
	 Total Energy              =    -385.4948852076475987 [Eh]

	 ================> DF-SCS-MP2 Energies <==================
	-----------------------------------------------------------
	 SCS Same-Spin Scale       =       0.3333333333333333 [-]
	 SCS Opposite-Spin Scale   =       1.2000000000000000 [-]
	 SCS Same-Spin Energy      =      -0.1376451344355830 [Eh]
	 SCS Opposite-Spin Energy  =      -1.5826009308720295 [Eh]
	 SCS Correlation Energy    =      -1.7202460653076124 [Eh]
	 SCS Total Energy          =    -385.4833617605884228 [Eh]
	-----------------------------------------------------------

  Dipole Moment: [D]
     X:    -0.0882      Y:     1.2749      Z:     0.0495     Total:     1.2789

*** Psi4 exiting successfully. Buy a developer a beer!
