                               Psi4 1.3.2 release

  ==> Input File <==

--------------------------------------------------------------------------
#psi4
#
memory 32 gb

molecule  {
0 1
  O       -3.1417080     0.0705380     0.3169670
  C        0.9902420    -0.0039870    -0.3612050
  C        2.4871864     0.0210892    -0.5388439
  C        0.2806140    -1.2015640    -0.2442060
  C        0.3008243     1.2074339    -0.2389510
  C        3.2312830    -0.0061060     0.7967240
  C       -1.0960700    -1.2065460    -0.0157640
  C       -1.0950530     1.2066380    -0.0091780
  C       -1.7865290     0.0017960     0.1015840
  H        2.7838010    -0.8823900    -1.1265120
  H        2.7835740     0.8731460    -1.1246690
  H        0.8095070    -2.1483250    -0.3363770
  H        0.8092330     2.1418130    -0.3228610
  H        2.9650580     0.8755680     1.3857970
  H        4.3169070    -0.0053560     0.6533480
  H        2.9660240    -0.8892340     1.3840690
  H       -1.6288030    -2.1532140     0.0657430
  H       -1.6431320     2.1402150     0.0795740
  H       -3.4941530    -0.8345020     0.3676020
units angstrom
no_reorient  #important for SAPT in psi4, default
symmetry c1  #important for SAPT in psi4, default
}

set PROPERTIES_ORIGIN ["COM"]
properties('MP2/aug-cc-pvtz', properties = ['dipole'])
--------------------------------------------------------------------------

    Molecular point group: c1
  Charge       = 0
  Multiplicity = 1
  Basis Set: AUG-CC-PVTZ
    Blend: AUG-CC-PVTZ
  Basis Set: (AUG-CC-PVTZ AUX)
    Blend: AUG-CC-PVTZ-JKFIT

    Orbital Energies [Eh]
    ---------------------

    Doubly Occupied:

       1A    -20.589212     2A    -11.299140     3A    -11.238893
       4A    -11.236417     5A    -11.235776     6A    -11.231521
       7A    -11.229902     8A    -11.226672     9A    -11.215167
      10A     -1.398391    11A     -1.149527    12A     -1.057845
      13A     -1.014940    14A     -0.975809    15A     -0.861055
      16A     -0.844926    17A     -0.789617    18A     -0.729895
      19A     -0.672751    20A     -0.646550    21A     -0.613156
      22A     -0.598126    23A     -0.588061    24A     -0.586374
      25A     -0.567257    26A     -0.555382    27A     -0.523719
      28A     -0.499825    29A     -0.483769    30A     -0.473413
      31A     -0.466391    32A     -0.338297    33A     -0.306509

  @DF-RHF Final Energy:  -383.76478743845473

   => Energetics <=

    Nuclear Repulsion Energy =            418.0279289726201455
    One-Electron Energy =               -1349.0968637453870542
    Two-Electron Energy =                 547.3041473343121197
    Total Energy =                       -383.7647874384547322
  Basis Set: (AUG-CC-PVTZ AUX)
    Blend: AUG-CC-PVTZ-RI
    Molecular point group: c1

    Geometry (in Angstrom), charge = 0, multiplicity = 1:

       Center              X                  Y                   Z               Mass
    ------------   -----------------  -----------------  -----------------  -----------------
         O           -3.143756892150     0.066736053634     0.317085604713    15.994914619570
         C            0.988193107850    -0.007788946366    -0.361086395287    12.000000000000
         C            2.485137507850     0.017287253634    -0.538725295287    12.000000000000
         C            0.278565107850    -1.205365946366    -0.244087395287    12.000000000000
         C            0.298775407850     1.203631953634    -0.238832395287    12.000000000000
         C            3.229234107850    -0.009907946366     0.796842604713    12.000000000000
         C           -1.098118892150    -1.210347946366    -0.015645395287    12.000000000000
         C           -1.097101892150     1.202836053634    -0.009059395287    12.000000000000
         C           -1.788577892150    -0.002005946366     0.101702604713    12.000000000000
         H            2.781752107850    -0.886191946366    -1.126393395287     1.007825032230
         H            2.781525107850     0.869344053634    -1.124550395287     1.007825032230
         H            0.807458107850    -2.152126946366    -0.336258395287     1.007825032230
         H            0.807184107850     2.138011053634    -0.322742395287     1.007825032230
         H            2.963009107850     0.871766053634     1.385915604713     1.007825032230
         H            4.314858107850    -0.009157946366     0.653466604713     1.007825032230
         H            2.963975107850    -0.893035946366     1.384187604713     1.007825032230
         H           -1.630851892150    -2.157015946366     0.065861604713     1.007825032230
         H           -1.645180892150     2.136413053634     0.079692604713     1.007825032230
         H           -3.496201892150    -0.838303946366     0.367720604713     1.007825032230

  Basis Set: AUG-CC-PVTZ
    Blend: AUG-CC-PVTZ
  Basis Set: (AUG-CC-PVTZ AUX)
    Blend: AUG-CC-PVTZ-JKFIT
	 Reference Energy          =    -383.7647874384547322 [Eh]
	 Singles Energy            =      -0.0000000000000000 [Eh]
	 Same-Spin Energy          =      -0.4127925640864458 [Eh]
	 Opposite-Spin Energy      =      -1.3189907916311872 [Eh]
	 Correlation Energy        =      -1.7317833557176330 [Eh]
	 Total Energy              =    -385.4965707941723849 [Eh]

	 ================> DF-SCS-MP2 Energies <==================
	-----------------------------------------------------------
	 SCS Same-Spin Scale       =       0.3333333333333333 [-]
	 SCS Opposite-Spin Scale   =       1.2000000000000000 [-]
	 SCS Same-Spin Energy      =      -0.1375975213621486 [Eh]
	 SCS Opposite-Spin Energy  =      -1.5827889499574246 [Eh]
	 SCS Correlation Energy    =      -1.7203864713195731 [Eh]
	 SCS Total Energy          =    -385.4851739097742893 [Eh]
	-----------------------------------------------------------

  Dipole Moment: [D]
     X:     0.4668      Y:    -1.2582      Z:    -0.0197     Total:     1.3422

*** Psi4 exiting successfully. Buy a developer a beer!
