                               Psi4 1.3.2 release

  ==> Input File <==

--------------------------------------------------------------------------
#psi4
#
memory 32 gb

molecule  {
0 1
  O       -3.1417080     0.0705380     0.3169670
  C        0.9902420    -0.0039870    -0.3612050
  C        2.4870006     0.0210939    -0.5404021
  C        0.2599213    -1.1888467    -0.2420816
  C        0.2798770     1.1950560    -0.2368630
  C        3.2312830    -0.0061060     0.7967240
  C       -1.0960700    -1.2065460    -0.0157640
  C       -1.0950530     1.2066380    -0.0091780
  C       -1.7865290     0.0017960     0.1015840
  H        2.7838010    -0.8823900    -1.1265120
  H        2.7835740     0.8731460    -1.1246690
  H        0.8095070    -2.1483250    -0.3363770
  H        0.8092330     2.1418130    -0.3228610
  H        2.9650580     0.8755680     1.3857970
  H        4.3169070    -0.0053560     0.6533480
  H        2.9660240    -0.8892340     1.3840690
  H       -1.6288030    -2.1532140     0.0657430
  H       -1.6431320     2.1402150     0.0795740
  H       -3.4941530    -0.8345020     0.3676020
units angstrom
no_reorient  #important for SAPT in psi4, default
symmetry c1  #important for SAPT in psi4, default
}

set PROPERTIES_ORIGIN ["COM"]
properties('MP2/aug-cc-pvtz', properties = ['dipole'])
--------------------------------------------------------------------------

    Molecular point group: c1
  Charge       = 0
  Multiplicity = 1
  Basis Set: AUG-CC-PVTZ
    Blend: AUG-CC-PVTZ
  Basis Set: (AUG-CC-PVTZ AUX)
    Blend: AUG-CC-PVTZ-JKFIT

    Orbital Energies [Eh]
    ---------------------

    Doubly Occupied:

       1A    -20.589551     2A    -11.299425     3A    -11.238192
       4A    -11.235633     5A    -11.233066     6A    -11.230499
       7A    -11.227674     8A    -11.227062     9A    -11.215445
      10A     -1.398708    11A     -1.152959    12A     -1.058400
      13A     -1.018562    14A     -0.975589    15A     -0.861880
      16A     -0.841569    17A     -0.791944    18A     -0.728510
      19A     -0.674621    20A     -0.645622    21A     -0.609971
      22A     -0.597245    23A     -0.587552    24A     -0.585283
      25A     -0.569139    26A     -0.556196    27A     -0.524408
      28A     -0.495536    29A     -0.484924    30A     -0.473928
      31A     -0.468794    32A     -0.342676    33A     -0.305068

  @DF-RHF Final Energy:  -383.76537056277118

   => Energetics <=

    Nuclear Repulsion Energy =            418.6312072399991848
    One-Electron Energy =               -1350.3018923712654669
    Two-Electron Energy =                 547.9053145684951005
    Total Energy =                       -383.7653705627711815
  Basis Set: (AUG-CC-PVTZ AUX)
    Blend: AUG-CC-PVTZ-RI
    Molecular point group: c1

    Geometry (in Angstrom), charge = 0, multiplicity = 1:

       Center              X                  Y                   Z               Mass
    ------------   -----------------  -----------------  -----------------  -----------------
         O           -3.139645344782     0.066702228018     0.316824692333    15.994914619570
         C            0.992304655218    -0.007822771982    -0.361347307667    12.000000000000
         C            2.489063255218     0.017258128018    -0.540544407667    12.000000000000
         C            0.261983955218    -1.192682471982    -0.242223907667    12.000000000000
         C            0.281939655218     1.191220228018    -0.237005307667    12.000000000000
         C            3.233345655218    -0.009941771982     0.796581692333    12.000000000000
         C           -1.094007344782    -1.210381771982    -0.015906307667    12.000000000000
         C           -1.092990344782     1.202802228018    -0.009320307667    12.000000000000
         C           -1.784466344782    -0.002039771982     0.101441692333    12.000000000000
         H            2.785863655218    -0.886225771982    -1.126654307667     1.007825032230
         H            2.785636655218     0.869310228018    -1.124811307667     1.007825032230
         H            0.811569655218    -2.152160771982    -0.336519307667     1.007825032230
         H            0.811295655218     2.137977228018    -0.323003307667     1.007825032230
         H            2.967120655218     0.871732228018     1.385654692333     1.007825032230
         H            4.318969655218    -0.009191771982     0.653205692333     1.007825032230
         H            2.968086655218    -0.893069771982     1.383926692333     1.007825032230
         H           -1.626740344782    -2.157049771982     0.065600692333     1.007825032230
         H           -1.641069344782     2.136379228018     0.079431692333     1.007825032230
         H           -3.492090344782    -0.838337771982     0.367459692333     1.007825032230

  Basis Set: AUG-CC-PVTZ
    Blend: AUG-CC-PVTZ
  Basis Set: (AUG-CC-PVTZ AUX)
    Blend: AUG-CC-PVTZ-JKFIT
	 Reference Energy          =    -383.7653705627711815 [Eh]
	 Singles Energy            =      -0.0000000000000000 [Eh]
	 Same-Spin Energy          =      -0.4127744297257818 [Eh]
	 Opposite-Spin Energy      =      -1.3186760730930922 [Eh]
	 Correlation Energy        =      -1.7314505028188740 [Eh]
	 Total Energy              =    -385.4968210655900407 [Eh]

	 ================> DF-SCS-MP2 Energies <==================
	-----------------------------------------------------------
	 SCS Same-Spin Scale       =       0.3333333333333333 [-]
	 SCS Opposite-Spin Scale   =       1.2000000000000000 [-]
	 SCS Same-Spin Energy      =      -0.1375914765752606 [Eh]
	 SCS Opposite-Spin Energy  =      -1.5824112877117107 [Eh]
	 SCS Correlation Energy    =      -1.7200027642869713 [Eh]
	 SCS Total Energy          =    -385.4853733270581415 [Eh]
	-----------------------------------------------------------

  Dipole Moment: [D]
     X:     0.4583      Y:    -1.2588      Z:    -0.0139     Total:     1.3397

*** Psi4 exiting successfully. Buy a developer a beer!
