                               Psi4 1.3.2 release

  ==> Input File <==

--------------------------------------------------------------------------
#psi4
#
memory 32 gb

molecule  {
0 1
  O       -3.1417080     0.0705380     0.3169670
  C        1.0311168     0.0219103    -0.3678262
  C        2.4872910    -0.0052090    -0.5397260
  C        0.2806140    -1.2015640    -0.2442060
  C        0.2798770     1.1950560    -0.2368630
  C        3.2312830    -0.0061060     0.7967240
  C       -1.0960700    -1.2065460    -0.0157640
  C       -1.0937726     1.2552680    -0.0091166
  C       -1.7865290     0.0017960     0.1015840
  H        2.7838010    -0.8823900    -1.1265120
  H        2.7835740     0.8731460    -1.1246690
  H        0.8095070    -2.1483250    -0.3363770
  H        0.8092330     2.1418130    -0.3228610
  H        2.9650580     0.8755680     1.3857970
  H        4.3169070    -0.0053560     0.6533480
  H        2.9660240    -0.8892340     1.3840690
  H       -1.6288030    -2.1532140     0.0657430
  H       -1.6431320     2.1402150     0.0795740
  H       -3.4941530    -0.8345020     0.3676020
units angstrom
no_reorient  #important for SAPT in psi4, default
symmetry c1  #important for SAPT in psi4, default
}

set PROPERTIES_ORIGIN ["COM"]
properties('MP2/aug-cc-pvtz', properties = ['dipole'])
--------------------------------------------------------------------------

    Molecular point group: c1
  Charge       = 0
  Multiplicity = 1
  Basis Set: AUG-CC-PVTZ
    Blend: AUG-CC-PVTZ
  Basis Set: (AUG-CC-PVTZ AUX)
    Blend: AUG-CC-PVTZ-JKFIT

    Orbital Energies [Eh]
    ---------------------

    Doubly Occupied:

       1A    -20.590747     2A    -11.305300     3A    -11.243700
       4A    -11.236607     5A    -11.234832     6A    -11.233383
       7A    -11.229299     8A    -11.225719     9A    -11.215677
      10A     -1.399348    11A     -1.145308    12A     -1.061308
      13A     -1.015977    14A     -0.970855    15A     -0.864824
      16A     -0.840107    17A     -0.794188    18A     -0.725451
      19A     -0.672327    20A     -0.655400    21A     -0.611395
      22A     -0.596947    23A     -0.587187    24A     -0.585267
      25A     -0.569930    26A     -0.554951    27A     -0.525867
      28A     -0.496526    29A     -0.491875    30A     -0.471005
      31A     -0.463484    32A     -0.341573    33A     -0.298445

  @DF-RHF Final Energy:  -383.75894740939867

   => Energetics <=

    Nuclear Repulsion Energy =            417.2441511237900613
    One-Electron Energy =               -1347.4965792420584876
    Two-Electron Energy =                 546.4934807088698108
    Total Energy =                       -383.7589474093986155
  Basis Set: (AUG-CC-PVTZ AUX)
    Blend: AUG-CC-PVTZ-RI
    Molecular point group: c1

    Geometry (in Angstrom), charge = 0, multiplicity = 1:

       Center              X                  Y                   Z               Mass
    ------------   -----------------  -----------------  -----------------  -----------------
         O           -3.145851947195     0.063211819621     0.317611902200    15.994914619570
         C            1.026972852805     0.014584119621    -0.367181297800    12.000000000000
         C            2.483147052805    -0.012535180379    -0.539081097800    12.000000000000
         C            0.276470052805    -1.208890180379    -0.243561097800    12.000000000000
         C            0.275733052805     1.187729819621    -0.236218097800    12.000000000000
         C            3.227139052805    -0.013432180379     0.797368902200    12.000000000000
         C           -1.100213947195    -1.213872180379    -0.015119097800    12.000000000000
         C           -1.097916547195     1.247941819621    -0.008471697800    12.000000000000
         C           -1.790672947195    -0.005530180379     0.102228902200    12.000000000000
         H            2.779657052805    -0.889716180379    -1.125867097800     1.007825032230
         H            2.779430052805     0.865819819621    -1.124024097800     1.007825032230
         H            0.805363052805    -2.155651180379    -0.335732097800     1.007825032230
         H            0.805089052805     2.134486819621    -0.322216097800     1.007825032230
         H            2.960914052805     0.868241819621     1.386441902200     1.007825032230
         H            4.312763052805    -0.012682180379     0.653992902200     1.007825032230
         H            2.961880052805    -0.896560180379     1.384713902200     1.007825032230
         H           -1.632946947195    -2.160540180379     0.066387902200     1.007825032230
         H           -1.647275947195     2.132888819621     0.080218902200     1.007825032230
         H           -3.498296947195    -0.841828180379     0.368246902200     1.007825032230

  Basis Set: AUG-CC-PVTZ
    Blend: AUG-CC-PVTZ
  Basis Set: (AUG-CC-PVTZ AUX)
    Blend: AUG-CC-PVTZ-JKFIT
	 Reference Energy          =    -383.7589474093986723 [Eh]
	 Singles Energy            =      -0.0000000000000000 [Eh]
	 Same-Spin Energy          =      -0.4132781167724306 [Eh]
	 Opposite-Spin Energy      =      -1.3200126674094115 [Eh]
	 Correlation Energy        =      -1.7332907841818421 [Eh]
	 Total Energy              =    -385.4922381935805333 [Eh]

	 ================> DF-SCS-MP2 Energies <==================
	-----------------------------------------------------------
	 SCS Same-Spin Scale       =       0.3333333333333333 [-]
	 SCS Opposite-Spin Scale   =       1.2000000000000000 [-]
	 SCS Same-Spin Energy      =      -0.1377593722574769 [Eh]
	 SCS Opposite-Spin Energy  =      -1.5840152008912938 [Eh]
	 SCS Correlation Energy    =      -1.7217745731487706 [Eh]
	 SCS Total Energy          =    -385.4807219825474363 [Eh]
	-----------------------------------------------------------

  Dipole Moment: [D]
     X:     0.4513      Y:    -1.2900      Z:    -0.0084     Total:     1.3667

*** Psi4 exiting successfully. Buy a developer a beer!
