                               Psi4 1.3.2 release

  ==> Input File <==

--------------------------------------------------------------------------
#psi4
#
memory 32 gb

molecule  {
0 1
  O       -3.1417080     0.0705380     0.3169670
  C        0.9902420    -0.0039870    -0.3612050
  C        2.4872910    -0.0052090    -0.5397260
  C        0.2806140    -1.2015640    -0.2442060
  C        0.2798770     1.1950560    -0.2368630
  C        3.2312830    -0.0061060     0.7967240
  C       -1.1381093    -1.2302518    -0.0088914
  C       -1.1369504     1.2303435    -0.0021961
  C       -1.7865290     0.0017960     0.1015840
  H        2.7838010    -0.8823900    -1.1265120
  H        2.7835740     0.8731460    -1.1246690
  H        0.8095070    -2.1483250    -0.3363770
  H        0.8092330     2.1418130    -0.3228610
  H        2.9650580     0.8755680     1.3857970
  H        4.3169070    -0.0053560     0.6533480
  H        2.9660240    -0.8892340     1.3840690
  H       -1.6288030    -2.1532140     0.0657430
  H       -1.6431320     2.1402150     0.0795740
  H       -3.4941530    -0.8345020     0.3676020
units angstrom
no_reorient  #important for SAPT in psi4, default
symmetry c1  #important for SAPT in psi4, default
}

set PROPERTIES_ORIGIN ["COM"]
properties('MP2/aug-cc-pvtz', properties = ['dipole'])
--------------------------------------------------------------------------

    Molecular point group: c1
  Charge       = 0
  Multiplicity = 1
  Basis Set: AUG-CC-PVTZ
    Blend: AUG-CC-PVTZ
  Basis Set: (AUG-CC-PVTZ AUX)
    Blend: AUG-CC-PVTZ-JKFIT

    Orbital Energies [Eh]
    ---------------------

    Doubly Occupied:

       1A    -20.585154     2A    -11.300594     3A    -11.244474
       4A    -11.242827     5A    -11.235243     6A    -11.231903
       7A    -11.229223     8A    -11.227850     9A    -11.215469
      10A     -1.396840    11A     -1.144034    12A     -1.057330
      13A     -1.010728    14A     -0.976051    15A     -0.859654
      16A     -0.848071    17A     -0.792257    18A     -0.725546
      19A     -0.670189    20A     -0.655154    21A     -0.614306
      22A     -0.600884    23A     -0.589826    24A     -0.584245
      25A     -0.564769    26A     -0.551008    27A     -0.521956
      28A     -0.504109    29A     -0.482162    30A     -0.478150
      31A     -0.462427    32A     -0.332246    33A     -0.308661

  @DF-RHF Final Energy:  -383.75940638348078

   => Energetics <=

    Nuclear Repulsion Energy =            416.9867090064425952
    One-Electron Energy =               -1347.0055507433487492
    Two-Electron Energy =                 546.2594353534252605
    Total Energy =                       -383.7594063834808367
  Basis Set: (AUG-CC-PVTZ AUX)
    Blend: AUG-CC-PVTZ-RI
    Molecular point group: c1

    Geometry (in Angstrom), charge = 0, multiplicity = 1:

       Center              X                  Y                   Z               Mass
    ------------   -----------------  -----------------  -----------------  -----------------
         O           -3.133456898695     0.070538009619     0.315605141745    15.994914619570
         C            0.998493101305    -0.003986990381    -0.362566858255    12.000000000000
         C            2.495542101305    -0.005208990381    -0.541087858255    12.000000000000
         C            0.288865101305    -1.201563990381    -0.245567858255    12.000000000000
         C            0.288128101305     1.195056009619    -0.238224858255    12.000000000000
         C            3.239534101305    -0.006105990381     0.795362141745    12.000000000000
         C           -1.129858198695    -1.230251790381    -0.010253258255    12.000000000000
         C           -1.128699298695     1.230343509619    -0.003557958255    12.000000000000
         C           -1.778277898695     0.001796009619     0.100222141745    12.000000000000
         H            2.792052101305    -0.882389990381    -1.127873858255     1.007825032230
         H            2.791825101305     0.873146009619    -1.126030858255     1.007825032230
         H            0.817758101305    -2.148324990381    -0.337738858255     1.007825032230
         H            0.817484101305     2.141813009619    -0.324222858255     1.007825032230
         H            2.973309101305     0.875568009619     1.384435141745     1.007825032230
         H            4.325158101305    -0.005355990381     0.651986141745     1.007825032230
         H            2.974275101305    -0.889233990381     1.382707141745     1.007825032230
         H           -1.620551898695    -2.153213990381     0.064381141745     1.007825032230
         H           -1.634880898695     2.140215009619     0.078212141745     1.007825032230
         H           -3.485901898695    -0.834501990381     0.366240141745     1.007825032230

  Basis Set: AUG-CC-PVTZ
    Blend: AUG-CC-PVTZ
  Basis Set: (AUG-CC-PVTZ AUX)
    Blend: AUG-CC-PVTZ-JKFIT
	 Reference Energy          =    -383.7594063834807798 [Eh]
	 Singles Energy            =      -0.0000000000000000 [Eh]
	 Same-Spin Energy          =      -0.4126844787697487 [Eh]
	 Opposite-Spin Energy      =      -1.3194546947637267 [Eh]
	 Correlation Energy        =      -1.7321391735334755 [Eh]
	 Total Energy              =    -385.4915455570142626 [Eh]

	 ================> DF-SCS-MP2 Energies <==================
	-----------------------------------------------------------
	 SCS Same-Spin Scale       =       0.3333333333333333 [-]
	 SCS Opposite-Spin Scale   =       1.2000000000000000 [-]
	 SCS Same-Spin Energy      =      -0.1375614929232496 [Eh]
	 SCS Opposite-Spin Energy  =      -1.5833456337164720 [Eh]
	 SCS Correlation Energy    =      -1.7209071266397216 [Eh]
	 SCS Total Energy          =    -385.4803135101204816 [Eh]
	-----------------------------------------------------------

  Dipole Moment: [D]
     X:     0.5139      Y:    -1.2662      Z:    -0.0230     Total:     1.3667

*** Psi4 exiting successfully. Buy a developer a beer!
