                               Psi4 1.3.2 release

  ==> Input File <==

--------------------------------------------------------------------------
#psi4
#
memory 32 gb

molecule  {
0 1
  O       -3.1417080     0.0705380     0.3169670
  C        1.0107753     0.0087814    -0.3646275
  C        2.4872910    -0.0052090    -0.5397260
  C        0.2806140    -1.2015640    -0.2442060
  C        0.2798770     1.1950560    -0.2368630
  C        3.2312830    -0.0061060     0.7967240
  C       -1.0960700    -1.2065460    -0.0157640
  C       -1.0950530     1.2066380    -0.0091780
  C       -1.7865290     0.0017960     0.1015840
  H        2.7838010    -0.8823900    -1.1265120
  H        2.7835740     0.8731460    -1.1246690
  H        0.8095070    -2.1483250    -0.3363770
  H        0.8254393     2.1323094    -0.3256331
  H        2.9650580     0.8755680     1.3857970
  H        4.3169070    -0.0053560     0.6533480
  H        2.9660240    -0.8892340     1.3840690
  H       -1.6288030    -2.1532140     0.0657430
  H       -1.6431320     2.1402150     0.0795740
  H       -3.4941530    -0.8345020     0.3676020
units angstrom
no_reorient  #important for SAPT in psi4, default
symmetry c1  #important for SAPT in psi4, default
}

set PROPERTIES_ORIGIN ["COM"]
properties('MP2/aug-cc-pvtz', properties = ['dipole'])
--------------------------------------------------------------------------

    Molecular point group: c1
  Charge       = 0
  Multiplicity = 1
  Basis Set: AUG-CC-PVTZ
    Blend: AUG-CC-PVTZ
  Basis Set: (AUG-CC-PVTZ AUX)
    Blend: AUG-CC-PVTZ-JKFIT

    Orbital Energies [Eh]
    ---------------------

    Doubly Occupied:

       1A    -20.589647     2A    -11.299672     3A    -11.240464
       4A    -11.236159     5A    -11.235123     6A    -11.232094
       7A    -11.228065     8A    -11.226544     9A    -11.215718
      10A     -1.398763    11A     -1.149589    12A     -1.060920
      13A     -1.015660    14A     -0.974786    15A     -0.863917
      16A     -0.841684    17A     -0.791164    18A     -0.728285
      19A     -0.671660    20A     -0.648299    21A     -0.613470
      22A     -0.595718    23A     -0.587253    24A     -0.584837
      25A     -0.571036    26A     -0.554855    27A     -0.524670
      28A     -0.497859    29A     -0.485323    30A     -0.475244
      31A     -0.466658    32A     -0.340386    33A     -0.304104

  @DF-RHF Final Energy:  -383.76541471778984

   => Energetics <=

    Nuclear Repulsion Energy =            418.1855890620291234
    One-Electron Energy =               -1349.4027592949655627
    Two-Electron Energy =                 547.4517555151466013
    Total Energy =                       -383.7654147177898949
  Basis Set: (AUG-CC-PVTZ AUX)
    Blend: AUG-CC-PVTZ-RI
    Molecular point group: c1

    Geometry (in Angstrom), charge = 0, multiplicity = 1:

       Center              X                  Y                   Z               Mass
    ------------   -----------------  -----------------  -----------------  -----------------
         O           -3.143860275354     0.069361285528     0.317326386475    15.994914619570
         C            1.008623024646     0.007604685528    -0.364268113525    12.000000000000
         C            2.485138724646    -0.006385714472    -0.539366613525    12.000000000000
         C            0.278461724646    -1.202740714472    -0.243846613525    12.000000000000
         C            0.277724724646     1.193879285528    -0.236503613525    12.000000000000
         C            3.229130724646    -0.007282714472     0.797083386475    12.000000000000
         C           -1.098222275354    -1.207722714472    -0.015404613525    12.000000000000
         C           -1.097205275354     1.205461285528    -0.008818613525    12.000000000000
         C           -1.788681275354     0.000619285528     0.101943386475    12.000000000000
         H            2.781648724646    -0.883566714472    -1.126152613525     1.007825032230
         H            2.781421724646     0.871969285528    -1.124309613525     1.007825032230
         H            0.807354724646    -2.149501714472    -0.336017613525     1.007825032230
         H            0.823287024646     2.131132685528    -0.325273713525     1.007825032230
         H            2.962905724646     0.874391285528     1.386156386475     1.007825032230
         H            4.314754724646    -0.006532714472     0.653707386475     1.007825032230
         H            2.963871724646    -0.890410714472     1.384428386475     1.007825032230
         H           -1.630955275354    -2.154390714472     0.066102386475     1.007825032230
         H           -1.645284275354     2.139038285528     0.079933386475     1.007825032230
         H           -3.496305275354    -0.835678714472     0.367961386475     1.007825032230

  Basis Set: AUG-CC-PVTZ
    Blend: AUG-CC-PVTZ
  Basis Set: (AUG-CC-PVTZ AUX)
    Blend: AUG-CC-PVTZ-JKFIT
	 Reference Energy          =    -383.7654147177898381 [Eh]
	 Singles Energy            =      -0.0000000000000000 [Eh]
	 Same-Spin Energy          =      -0.4129917856490655 [Eh]
	 Opposite-Spin Energy      =      -1.3191195751396596 [Eh]
	 Correlation Energy        =      -1.7321113607887251 [Eh]
	 Total Energy              =    -385.4975260785785736 [Eh]

	 ================> DF-SCS-MP2 Energies <==================
	-----------------------------------------------------------
	 SCS Same-Spin Scale       =       0.3333333333333333 [-]
	 SCS Opposite-Spin Scale   =       1.2000000000000000 [-]
	 SCS Same-Spin Energy      =      -0.1376639285496885 [Eh]
	 SCS Opposite-Spin Energy  =      -1.5829434901675914 [Eh]
	 SCS Correlation Energy    =      -1.7206074187172800 [Eh]
	 SCS Total Energy          =    -385.4860221365071311 [Eh]
	-----------------------------------------------------------

  Dipole Moment: [D]
     X:     0.4881      Y:    -1.2882      Z:    -0.0172     Total:     1.3777

*** Psi4 exiting successfully. Buy a developer a beer!
