                               Psi4 1.3.2 release

  ==> Input File <==

--------------------------------------------------------------------------
#psi4
#
memory 32 gb

molecule  {
0 1
  O       -3.1417080     0.0705380     0.3169670
  C        0.9902420    -0.0039870    -0.3612050
  C        2.4872910    -0.0052090    -0.5397260
  C        0.2806140    -1.2015640    -0.2442060
  C        0.2798770     1.1950560    -0.2368630
  C        3.2312830    -0.0061060     0.7967240
  C       -1.1065029    -1.2126116    -0.0140589
  C       -1.1054504     1.2127031    -0.0074449
  C       -1.7865290     0.0017960     0.1015840
  H        2.7838010    -0.8823900    -1.1265120
  H        2.7835740     0.8731460    -1.1246690
  H        0.8095070    -2.1483250    -0.3363770
  H        0.8092330     2.1418130    -0.3228610
  H        2.9650580     0.8755680     1.3857970
  H        4.3169070    -0.0053560     0.6533480
  H        2.9660240    -0.8892340     1.3840690
  H       -1.6288030    -2.1532140     0.0657430
  H       -1.6431320     2.1402150     0.0795740
  H       -3.4941530    -0.8345020     0.3676020
units angstrom
no_reorient  #important for SAPT in psi4, default
symmetry c1  #important for SAPT in psi4, default
}

set PROPERTIES_ORIGIN ["COM"]
properties('MP2/aug-cc-pvtz', properties = ['dipole'])
--------------------------------------------------------------------------

    Molecular point group: c1
  Charge       = 0
  Multiplicity = 1
  Basis Set: AUG-CC-PVTZ
    Blend: AUG-CC-PVTZ
  Basis Set: (AUG-CC-PVTZ AUX)
    Blend: AUG-CC-PVTZ-JKFIT

    Orbital Energies [Eh]
    ---------------------

    Doubly Occupied:

       1A    -20.588336     2A    -11.299590     3A    -11.239684
       4A    -11.237919     5A    -11.234808     6A    -11.231139
       7A    -11.228394     8A    -11.227234     9A    -11.215278
      10A     -1.398114    11A     -1.149212    12A     -1.057831
      13A     -1.015075    14A     -0.975709    15A     -0.861073
      16A     -0.844155    17A     -0.791519    18A     -0.727691
      19A     -0.671410    20A     -0.648808    21A     -0.613455
      22A     -0.597013    23A     -0.588119    24A     -0.585644
      25A     -0.568415    26A     -0.554207    27A     -0.523007
      28A     -0.499695    29A     -0.479918    30A     -0.479111
      31A     -0.466711    32A     -0.338347    33A     -0.306534

  @DF-RHF Final Energy:  -383.76620985275019

   => Energetics <=

    Nuclear Repulsion Energy =            417.9811905532312153
    One-Electron Energy =               -1349.0084902697913094
    Two-Electron Energy =                 547.2610898638098433
    Total Energy =                       -383.7662098527501939
  Basis Set: (AUG-CC-PVTZ AUX)
    Blend: AUG-CC-PVTZ-RI
    Molecular point group: c1

    Geometry (in Angstrom), charge = 0, multiplicity = 1:

       Center              X                  Y                   Z               Mass
    ------------   -----------------  -----------------  -----------------  -----------------
         O           -3.139660365283     0.070538029279     0.316629081774    15.994914619570
         C            0.992289634717    -0.003986970721    -0.361542918226    12.000000000000
         C            2.489338634717    -0.005208970721    -0.540063918226    12.000000000000
         C            0.282661634717    -1.201563970721    -0.244543918226    12.000000000000
         C            0.281924634717     1.195056029279    -0.237200918226    12.000000000000
         C            3.233330634717    -0.006105970721     0.796386081774    12.000000000000
         C           -1.104455265283    -1.212611570721    -0.014396818226    12.000000000000
         C           -1.103402765283     1.212703129279    -0.007782818226    12.000000000000
         C           -1.784481365283     0.001796029279     0.101246081774    12.000000000000
         H            2.785848634717    -0.882389970721    -1.126849918226     1.007825032230
         H            2.785621634717     0.873146029279    -1.125006918226     1.007825032230
         H            0.811554634717    -2.148324970721    -0.336714918226     1.007825032230
         H            0.811280634717     2.141813029279    -0.323198918226     1.007825032230
         H            2.967105634717     0.875568029279     1.385459081774     1.007825032230
         H            4.318954634717    -0.005355970721     0.653010081774     1.007825032230
         H            2.968071634717    -0.889233970721     1.383731081774     1.007825032230
         H           -1.626755365283    -2.153213970721     0.065405081774     1.007825032230
         H           -1.641084365283     2.140215029279     0.079236081774     1.007825032230
         H           -3.492105365283    -0.834501970721     0.367264081774     1.007825032230

  Basis Set: AUG-CC-PVTZ
    Blend: AUG-CC-PVTZ
  Basis Set: (AUG-CC-PVTZ AUX)
    Blend: AUG-CC-PVTZ-JKFIT
	 Reference Energy          =    -383.7662098527501939 [Eh]
	 Singles Energy            =      -0.0000000000000000 [Eh]
	 Same-Spin Energy          =      -0.4127017221833037 [Eh]
	 Opposite-Spin Energy      =      -1.3188303780247770 [Eh]
	 Correlation Energy        =      -1.7315321002080806 [Eh]
	 Total Energy              =    -385.4977419529582789 [Eh]

	 ================> DF-SCS-MP2 Energies <==================
	-----------------------------------------------------------
	 SCS Same-Spin Scale       =       0.3333333333333333 [-]
	 SCS Opposite-Spin Scale   =       1.2000000000000000 [-]
	 SCS Same-Spin Energy      =      -0.1375672407277679 [Eh]
	 SCS Opposite-Spin Energy  =      -1.5825964536297323 [Eh]
	 SCS Correlation Energy    =      -1.7201636943575003 [Eh]
	 SCS Total Energy          =    -385.4863735471076893 [Eh]
	-----------------------------------------------------------

  Dipole Moment: [D]
     X:     0.4748      Y:    -1.2711      Z:    -0.0193     Total:     1.3570

*** Psi4 exiting successfully. Buy a developer a beer!
