                               Psi4 1.3.2 release

  ==> Input File <==

--------------------------------------------------------------------------
#psi4
#
memory 32 gb

molecule  {
0 1
  O       -3.1417080     0.0705380     0.3169670
  C        0.9902420    -0.0039870    -0.3612050
  C        2.4872910    -0.0052090    -0.5397260
  C        0.2806140    -1.2015640    -0.2442060
  C        0.2798770     1.1950560    -0.2368630
  C        3.2312830    -0.0061060     0.7967240
  C       -1.0960700    -1.2065460    -0.0157640
  C       -1.0950530     1.2066380    -0.0091780
  C       -1.7445964    -0.0219098     0.0948180
  H        2.7838010    -0.8823900    -1.1265120
  H        2.7835740     0.8731460    -1.1246690
  H        0.8095070    -2.1483250    -0.3363770
  H        0.8092330     2.1418130    -0.3228610
  H        2.9650580     0.8755680     1.3857970
  H        4.3169070    -0.0053560     0.6533480
  H        2.9660240    -0.8892340     1.3840690
  H       -1.6288030    -2.1532140     0.0657430
  H       -1.6106298     2.1590231     0.0743485
  H       -3.4941530    -0.8345020     0.3676020
units angstrom
no_reorient  #important for SAPT in psi4, default
symmetry c1  #important for SAPT in psi4, default
}

set PROPERTIES_ORIGIN ["COM"]
properties('MP2/aug-cc-pvtz', properties = ['dipole'])
--------------------------------------------------------------------------

    Molecular point group: c1
  Charge       = 0
  Multiplicity = 1
  Basis Set: AUG-CC-PVTZ
    Blend: AUG-CC-PVTZ
  Basis Set: (AUG-CC-PVTZ AUX)
    Blend: AUG-CC-PVTZ-JKFIT

    Orbital Energies [Eh]
    ---------------------

    Doubly Occupied:

       1A    -20.581831     2A    -11.296002     3A    -11.239129
       4A    -11.236909     5A    -11.232993     6A    -11.232612
       7A    -11.231032     8A    -11.228287     9A    -11.216304
      10A     -1.377535    11A     -1.156504    12A     -1.061618
      13A     -1.020985    14A     -0.977532    15A     -0.860639
      16A     -0.845575    17A     -0.791352    18A     -0.719068
      19A     -0.672792    20A     -0.644244    21A     -0.612194
      22A     -0.596141    23A     -0.592248    24A     -0.577268
      25A     -0.566830    26A     -0.550721    27A     -0.523094
      28A     -0.504079    29A     -0.480891    30A     -0.479955
      31A     -0.470438    32A     -0.342892    33A     -0.311541

  @DF-RHF Final Energy:  -383.76321371678648

   => Energetics <=

    Nuclear Repulsion Energy =            418.6028216186131772
    One-Electron Energy =               -1350.2695953923271190
    Two-Electron Energy =                 547.9035600569274038
    Total Energy =                       -383.7632137167864812
  Basis Set: (AUG-CC-PVTZ AUX)
    Blend: AUG-CC-PVTZ-RI
    Molecular point group: c1

    Geometry (in Angstrom), charge = 0, multiplicity = 1:

       Center              X                  Y                   Z               Mass
    ------------   -----------------  -----------------  -----------------  -----------------
         O           -3.146098400465     0.072713022662     0.317675313268    15.994914619570
         C            0.985851599535    -0.001811977338    -0.360496686732    12.000000000000
         C            2.482900599535    -0.003033977338    -0.539017686732    12.000000000000
         C            0.276223599535    -1.199388977338    -0.243497686732    12.000000000000
         C            0.275486599535     1.197231022662    -0.236154686732    12.000000000000
         C            3.226892599535    -0.003930977338     0.797432313268    12.000000000000
         C           -1.100460400465    -1.204370977338    -0.015055686732    12.000000000000
         C           -1.099443400465     1.208813022662    -0.008469686732    12.000000000000
         C           -1.748986800465    -0.019734777338     0.095526313268    12.000000000000
         H            2.779410599535    -0.880214977338    -1.125803686732     1.007825032230
         H            2.779183599535     0.875321022662    -1.123960686732     1.007825032230
         H            0.805116599535    -2.146149977338    -0.335668686732     1.007825032230
         H            0.804842599535     2.143988022662    -0.322152686732     1.007825032230
         H            2.960667599535     0.877743022662     1.386505313268     1.007825032230
         H            4.312516599535    -0.003180977338     0.654056313268     1.007825032230
         H            2.961633599535    -0.887058977338     1.384777313268     1.007825032230
         H           -1.633193400465    -2.151038977338     0.066451313268     1.007825032230
         H           -1.615020200465     2.161198122662     0.075056813268     1.007825032230
         H           -3.498543400465    -0.832326977338     0.368310313268     1.007825032230

  Basis Set: AUG-CC-PVTZ
    Blend: AUG-CC-PVTZ
  Basis Set: (AUG-CC-PVTZ AUX)
    Blend: AUG-CC-PVTZ-JKFIT
	 Reference Energy          =    -383.7632137167864812 [Eh]
	 Singles Energy            =      -0.0000000000000000 [Eh]
	 Same-Spin Energy          =      -0.4127685826865001 [Eh]
	 Opposite-Spin Energy      =      -1.3192731749987736 [Eh]
	 Correlation Energy        =      -1.7320417576852738 [Eh]
	 Total Energy              =    -385.4952554744717759 [Eh]

	 ================> DF-SCS-MP2 Energies <==================
	-----------------------------------------------------------
	 SCS Same-Spin Scale       =       0.3333333333333333 [-]
	 SCS Opposite-Spin Scale   =       1.2000000000000000 [-]
	 SCS Same-Spin Energy      =      -0.1375895275621667 [Eh]
	 SCS Opposite-Spin Energy  =      -1.5831278099985282 [Eh]
	 SCS Correlation Energy    =      -1.7207173375606950 [Eh]
	 SCS Total Energy          =    -385.4839310543471811 [Eh]
	-----------------------------------------------------------

  Dipole Moment: [D]
     X:     0.7721      Y:    -1.2657      Z:    -0.0639     Total:     1.4840

*** Psi4 exiting successfully. Buy a developer a beer!
