                               Psi4 1.4a3.dev225

  ==> Input File <==

--------------------------------------------------------------------------
#psi4
#
memory 32 gb

molecule  {
0 1
  O        3.2216350    -0.1065060     0.2904990
  C       -0.9146420     0.0169590    -0.3639610
  C       -2.4121960     0.0318470    -0.5323860
  C       -0.2166280     1.1650890    -0.2419979
  C       -0.2138010    -1.1929940    -0.2539850
  C       -3.1413340    -0.0192130     0.8137010
  C        1.1888560     1.1991780    -0.0236810
  C        1.1619340    -1.2201410    -0.0407060
  C        1.8648900    -0.0185630     0.0807020
  H       -2.7091570     0.9353730    -1.0779940
  H       -2.7186560    -0.8212200    -1.1493620
  H       -0.7079800     2.1625600    -0.3214960
  H       -0.7531780    -2.1343060    -0.3521420
  H       -2.8726550    -0.9274190     1.3607640
  H       -4.2274440    -0.0080790     0.6778440
  H       -2.8630000     0.8390280     1.4320080
  H        1.7343360     2.1384520     0.0639930
  H        1.7070130    -2.1569100     0.0367280
  H        3.5799610     0.7963060     0.3524270
units angstrom
no_reorient  #important for SAPT in psi4, default
symmetry c1  #important for SAPT in psi4, default
}

set PROPERTIES_ORIGIN ["COM"]
properties('MP2/aug-cc-pvtz', properties = ['dipole'])
--------------------------------------------------------------------------

    Molecular point group: c1
  Charge       = 0
  Multiplicity = 1
  Basis Set: AUG-CC-PVTZ
    Blend: AUG-CC-PVTZ
  Basis Set: (AUG-CC-PVTZ AUX)
    Blend: AUG-CC-PVTZ-JKFIT

    Orbital Energies [Eh]
    ---------------------

    Doubly Occupied:

       1A    -20.589268     2A    -11.299955     3A    -11.238342
       4A    -11.237352     5A    -11.235575     6A    -11.229609
       7A    -11.227297     8A    -11.226189     9A    -11.215544
      10A     -1.397757    11A     -1.154144    12A     -1.058619
      13A     -1.013101    14A     -0.978442    15A     -0.861292
      16A     -0.844217    17A     -0.790712    18A     -0.726677
      19A     -0.671529    20A     -0.646622    21A     -0.612829
      22A     -0.598096    23A     -0.586548    24A     -0.582182
      25A     -0.569377    26A     -0.554803    27A     -0.523503
      28A     -0.498072    29A     -0.482660    30A     -0.475403
      31A     -0.468865    32A     -0.337705    33A     -0.310589

  @DF-RHF Final Energy:  -383.76350388878279

   => Energetics <=

    Nuclear Repulsion Energy =            418.6885551092967148
    One-Electron Energy =               -1350.4183667588324624
    Two-Electron Energy =                 547.9663077607530113
    Total Energy =                       -383.7635038887827932
  Basis Set: (AUG-CC-PVTZ AUX)
    Blend: AUG-CC-PVTZ-RI
    Molecular point group: c1

    Geometry (in Angstrom), charge = 0, multiplicity = 1:

       Center              X                  Y                   Z               Mass
    ------------   -----------------  -----------------  -----------------  -----------------
         O            3.144410503109    -0.095632363416     0.299268223688    15.994914619570
         C           -0.991866496891     0.027832636584    -0.355191776312    12.000000000000
         C           -2.489420496891     0.042720636584    -0.523616776312    12.000000000000
         C           -0.293852496891     1.175962636584    -0.233228676312    12.000000000000
         C           -0.291025496891    -1.182120363416    -0.245215776312    12.000000000000
         C           -3.218558496891    -0.008339363416     0.822470223688    12.000000000000
         C            1.111631503109     1.210051636584    -0.014911776312    12.000000000000
         C            1.084709503109    -1.209267363416    -0.031936776312    12.000000000000
         C            1.787665503109    -0.007689363416     0.089471223688    12.000000000000
         H           -2.786381496891     0.946246636584    -1.069224776312     1.007825032230
         H           -2.795880496891    -0.810346363416    -1.140592776312     1.007825032230
         H           -0.785204496891     2.173433636584    -0.312726776312     1.007825032230
         H           -0.830402496891    -2.123432363416    -0.343372776312     1.007825032230
         H           -2.949879496891    -0.916545363416     1.369533223688     1.007825032230
         H           -4.304668496891     0.002794636584     0.686613223688     1.007825032230
         H           -2.940224496891     0.849901636584     1.440777223688     1.007825032230
         H            1.657111503109     2.149325636584     0.072762223688     1.007825032230
         H            1.629788503109    -2.146036363416     0.045497223688     1.007825032230
         H            3.502736503109     0.807179636584     0.361196223688     1.007825032230

  Basis Set: AUG-CC-PVTZ
    Blend: AUG-CC-PVTZ
  Basis Set: (AUG-CC-PVTZ AUX)
    Blend: AUG-CC-PVTZ-JKFIT
	 Reference Energy          =    -383.7635038887827932 [Eh]
	 Singles Energy            =      -0.0000000000000000 [Eh]
	 Same-Spin Energy          =      -0.4126416104072113 [Eh]
	 Opposite-Spin Energy      =      -1.3189436523156046 [Eh]
	 Correlation Energy        =      -1.7315852627228159 [Eh]
	 Total Energy              =    -385.4950891515056242 [Eh]

	 ================> DF-SCS-MP2 Energies <==================
	-----------------------------------------------------------
	 SCS Same-Spin Scale       =       0.3333333333333333 [-]
	 SCS Opposite-Spin Scale   =       1.2000000000000000 [-]
	 SCS Same-Spin Energy      =      -0.1375472034690704 [Eh]
	 SCS Opposite-Spin Energy  =      -1.5827323827787254 [Eh]
	 SCS Correlation Energy    =      -1.7202795862477958 [Eh]
	 SCS Total Energy          =    -385.4837834750305774 [Eh]
	-----------------------------------------------------------

  Dipole Moment: [D]
     X:    -0.4517      Y:     1.2443      Z:    -0.0018     Total:     1.3238

*** Psi4 exiting successfully. Buy a developer a beer!
