                               Psi4 1.3.2 release

  ==> Input File <==

--------------------------------------------------------------------------
#psi4
#
memory 32 gb

molecule  {
0 1
  O       -3.1417080     0.0705380     0.3169670
  C        1.0005241    -0.0103088    -0.3629152
  C        2.4872910    -0.0052090    -0.5397260
  C        0.2806140    -1.2015640    -0.2442060
  C        0.2798770     1.1950560    -0.2368630
  C        3.2312830    -0.0061060     0.7967240
  C       -1.0959759    -1.2187238    -0.0157873
  C       -1.0950530     1.2066380    -0.0091780
  C       -1.7865290     0.0017960     0.1015840
  H        2.7838010    -0.8823900    -1.1265120
  H        2.7835740     0.8731460    -1.1246690
  H        0.8095070    -2.1483250    -0.3363770
  H        0.8092330     2.1418130    -0.3228610
  H        2.9650580     0.8755680     1.3857970
  H        4.3169070    -0.0053560     0.6533480
  H        2.9660240    -0.8892340     1.3840690
  H       -1.6288030    -2.1532140     0.0657430
  H       -1.6431320     2.1402150     0.0795740
  H       -3.4941530    -0.8345020     0.3676020
units angstrom
no_reorient  #important for SAPT in psi4, default
symmetry c1  #important for SAPT in psi4, default
}

set PROPERTIES_ORIGIN ["COM"]
properties('MP2/aug-cc-pvtz', properties = ['dipole'])
--------------------------------------------------------------------------

    Molecular point group: c1
  Charge       = 0
  Multiplicity = 1
  Basis Set: AUG-CC-PVTZ
    Blend: AUG-CC-PVTZ
  Basis Set: (AUG-CC-PVTZ AUX)
    Blend: AUG-CC-PVTZ-JKFIT

    Orbital Energies [Eh]
    ---------------------

    Doubly Occupied:

       1A    -20.589709     2A    -11.300891     3A    -11.238206
       4A    -11.237749     5A    -11.234774     6A    -11.231479
       7A    -11.228090     8A    -11.226733     9A    -11.215347
      10A     -1.398742    11A     -1.149510    12A     -1.058762
      13A     -1.016535    14A     -0.974396    15A     -0.862835
      16A     -0.842110    17A     -0.791037    18A     -0.728187
      19A     -0.672036    20A     -0.648546    21A     -0.613430
      22A     -0.596357    23A     -0.587511    24A     -0.585573
      25A     -0.569510    26A     -0.555125    27A     -0.524056
      28A     -0.497643    29A     -0.483271    30A     -0.476377
      31A     -0.466977    32A     -0.340457    33A     -0.304238

  @DF-RHF Final Energy:  -383.76604899124237

   => Energetics <=

    Nuclear Repulsion Energy =            418.0483652444082168
    One-Electron Energy =               -1349.1364281436767669
    Two-Electron Energy =                 547.3220139080261788
    Total Energy =                       -383.7660489912424282
  Basis Set: (AUG-CC-PVTZ AUX)
    Blend: AUG-CC-PVTZ-RI
    Molecular point group: c1

    Geometry (in Angstrom), charge = 0, multiplicity = 1:

       Center              X                  Y                   Z               Mass
    ------------   -----------------  -----------------  -----------------  -----------------
         O           -3.142728017376     0.072356522312     0.317137468691    15.994914619570
         C            0.999504082624    -0.008490277688    -0.362744731309    12.000000000000
         C            2.486270982624    -0.003390477688    -0.539555531309    12.000000000000
         C            0.279593982624    -1.199745477688    -0.244035531309    12.000000000000
         C            0.278856982624     1.196874522312    -0.236692531309    12.000000000000
         C            3.230262982624    -0.004287477688     0.796894468691    12.000000000000
         C           -1.096995917376    -1.216905277688    -0.015616831309    12.000000000000
         C           -1.096073017376     1.208456522312    -0.009007531309    12.000000000000
         C           -1.787549017376     0.003614522312     0.101754468691    12.000000000000
         H            2.782780982624    -0.880571477688    -1.126341531309     1.007825032230
         H            2.782553982624     0.874964522312    -1.124498531309     1.007825032230
         H            0.808486982624    -2.146506477688    -0.336206531309     1.007825032230
         H            0.808212982624     2.143631522312    -0.322690531309     1.007825032230
         H            2.964037982624     0.877386522312     1.385967468691     1.007825032230
         H            4.315886982624    -0.003537477688     0.653518468691     1.007825032230
         H            2.965003982624    -0.887415477688     1.384239468691     1.007825032230
         H           -1.629823017376    -2.151395477688     0.065913468691     1.007825032230
         H           -1.644152017376     2.142033522312     0.079744468691     1.007825032230
         H           -3.495173017376    -0.832683477688     0.367772468691     1.007825032230

  Basis Set: AUG-CC-PVTZ
    Blend: AUG-CC-PVTZ
  Basis Set: (AUG-CC-PVTZ AUX)
    Blend: AUG-CC-PVTZ-JKFIT
	 Reference Energy          =    -383.7660489912423714 [Eh]
	 Singles Energy            =      -0.0000000000000000 [Eh]
	 Same-Spin Energy          =      -0.4128317262052953 [Eh]
	 Opposite-Spin Energy      =      -1.3189610070226065 [Eh]
	 Correlation Energy        =      -1.7317927332279019 [Eh]
	 Total Energy              =    -385.4978417244702769 [Eh]

	 ================> DF-SCS-MP2 Energies <==================
	-----------------------------------------------------------
	 SCS Same-Spin Scale       =       0.3333333333333333 [-]
	 SCS Opposite-Spin Scale   =       1.2000000000000000 [-]
	 SCS Same-Spin Energy      =      -0.1376105754017651 [Eh]
	 SCS Opposite-Spin Energy  =      -1.5827532084271279 [Eh]
	 SCS Correlation Energy    =      -1.7203637838288930 [Eh]
	 SCS Total Energy          =    -385.4864127750712441 [Eh]
	-----------------------------------------------------------

  Dipole Moment: [D]
     X:     0.4583      Y:    -1.2686      Z:    -0.0155     Total:     1.3489

*** Psi4 exiting successfully. Buy a developer a beer!
