                               Psi4 1.3.2 release

  ==> Input File <==

--------------------------------------------------------------------------
#psi4
#
memory 32 gb

molecule  {
0 1
  O       -3.1417080     0.0705380     0.3169670
  C        0.9902420    -0.0039870    -0.3612050
  C        2.4872910    -0.0052090    -0.5397260
  C        0.2806140    -1.2015640    -0.2442060
  C        0.2798770     1.1950560    -0.2368630
  C        3.2312830    -0.0061060     0.7967240
  C       -1.0960700    -1.2065460    -0.0157640
  C       -1.0950530     1.2066380    -0.0091780
  C       -1.8276192     0.0269697     0.1082151
  H        2.7838010    -0.8823900    -1.1265120
  H        2.7835740     0.8731460    -1.1246690
  H        0.8095070    -2.1483250    -0.3363770
  H        0.8092330     2.1418130    -0.3228610
  H        2.9650580     0.8755680     1.3857970
  H        4.3169070    -0.0053560     0.6533480
  H        2.9660240    -0.8892340     1.3840690
  H       -1.6288030    -2.1532140     0.0657430
  H       -1.6749665     2.1202695     0.0846914
  H       -3.4941530    -0.8345020     0.3676020
units angstrom
no_reorient  #important for SAPT in psi4, default
symmetry c1  #important for SAPT in psi4, default
}

set PROPERTIES_ORIGIN ["COM"]
properties('MP2/aug-cc-pvtz', properties = ['dipole'])
--------------------------------------------------------------------------

    Molecular point group: c1
  Charge       = 0
  Multiplicity = 1
  Basis Set: AUG-CC-PVTZ
    Blend: AUG-CC-PVTZ
  Basis Set: (AUG-CC-PVTZ AUX)
    Blend: AUG-CC-PVTZ-JKFIT

    Orbital Energies [Eh]
    ---------------------

    Doubly Occupied:

       1A    -20.597086     2A    -11.303120     3A    -11.237431
       4A    -11.236124     5A    -11.235821     6A    -11.228692
       7A    -11.225760     8A    -11.225244     9A    -11.214116
      10A     -1.421261    11A     -1.146235    12A     -1.054750
      13A     -1.012941    14A     -0.973616    15A     -0.864046
      16A     -0.839417    17A     -0.793194    18A     -0.737482
      19A     -0.673480    20A     -0.649374    21A     -0.613475
      22A     -0.599929    23A     -0.596400    24A     -0.580499
      25A     -0.571345    26A     -0.557240    27A     -0.522974
      28A     -0.492207    29A     -0.479483    30A     -0.473339
      31A     -0.465668    32A     -0.338771    33A     -0.299657

  @DF-RHF Final Energy:  -383.76357385482351

   => Energetics <=

    Nuclear Repulsion Energy =            418.1011093534481233
    One-Electron Energy =               -1349.2090137616391985
    Two-Electron Energy =                 547.3443305533676266
    Total Energy =                       -383.7635738548234485
  Basis Set: (AUG-CC-PVTZ AUX)
    Blend: AUG-CC-PVTZ-RI
    Molecular point group: c1

    Geometry (in Angstrom), charge = 0, multiplicity = 1:

       Center              X                  Y                   Z               Mass
    ------------   -----------------  -----------------  -----------------  -----------------
         O           -3.137405959852     0.068228030796     0.316272965474    15.994914619570
         C            0.994544040148    -0.006296969204    -0.361899034526    12.000000000000
         C            2.491593040148    -0.007518969204    -0.540420034526    12.000000000000
         C            0.284916040148    -1.203873969204    -0.244900034526    12.000000000000
         C            0.284179040148     1.192746030796    -0.237557034526    12.000000000000
         C            3.235585040148    -0.008415969204     0.796029965474    12.000000000000
         C           -1.091767959852    -1.208855969204    -0.016458034526    12.000000000000
         C           -1.090750959852     1.204328030796    -0.009872034526    12.000000000000
         C           -1.823317159852     0.024659730796     0.107521065474    12.000000000000
         H            2.788103040148    -0.884699969204    -1.127206034526     1.007825032230
         H            2.787876040148     0.870836030796    -1.125363034526     1.007825032230
         H            0.813809040148    -2.150634969204    -0.337071034526     1.007825032230
         H            0.813535040148     2.139503030796    -0.323555034526     1.007825032230
         H            2.969360040148     0.873258030796     1.385102965474     1.007825032230
         H            4.321209040148    -0.007665969204     0.652653965474     1.007825032230
         H            2.970326040148    -0.891543969204     1.383374965474     1.007825032230
         H           -1.624500959852    -2.155523969204     0.065048965474     1.007825032230
         H           -1.670664459852     2.117959530796     0.083997365474     1.007825032230
         H           -3.489850959852    -0.836811969204     0.366907965474     1.007825032230

  Basis Set: AUG-CC-PVTZ
    Blend: AUG-CC-PVTZ
  Basis Set: (AUG-CC-PVTZ AUX)
    Blend: AUG-CC-PVTZ-JKFIT
	 Reference Energy          =    -383.7635738548235054 [Eh]
	 Singles Energy            =      -0.0000000000000000 [Eh]
	 Same-Spin Energy          =      -0.4128461370404091 [Eh]
	 Opposite-Spin Energy      =      -1.3185462432611759 [Eh]
	 Correlation Energy        =      -1.7313923803015849 [Eh]
	 Total Energy              =    -385.4949662351251050 [Eh]

	 ================> DF-SCS-MP2 Energies <==================
	-----------------------------------------------------------
	 SCS Same-Spin Scale       =       0.3333333333333333 [-]
	 SCS Opposite-Spin Scale   =       1.2000000000000000 [-]
	 SCS Same-Spin Energy      =      -0.1376153790134697 [Eh]
	 SCS Opposite-Spin Energy  =      -1.5822554919134111 [Eh]
	 SCS Correlation Energy    =      -1.7198708709268808 [Eh]
	 SCS Total Energy          =    -385.4834447257503598 [Eh]
	-----------------------------------------------------------

  Dipole Moment: [D]
     X:     0.1475      Y:    -1.2845      Z:     0.0283     Total:     1.2932

*** Psi4 exiting successfully. Buy a developer a beer!
