                               Psi4 1.3.2 release

  ==> Input File <==

--------------------------------------------------------------------------
#psi4
#
memory 32 gb

molecule  {
0 1
  O       -3.1417080     0.0705380     0.3169670
  C        0.9918569    -0.0039910    -0.3481477
  C        2.4872910    -0.0052090    -0.5397260
  C        0.2806140    -1.2015640    -0.2442060
  C        0.2798770     1.1950560    -0.2368630
  C        3.2195921    -0.0060975     0.8031656
  C       -1.0960700    -1.2065460    -0.0157640
  C       -1.0950530     1.2066380    -0.0091780
  C       -1.7865290     0.0017960     0.1015840
  H        2.7838010    -0.8823900    -1.1265120
  H        2.7835740     0.8731460    -1.1246690
  H        0.8095070    -2.1483250    -0.3363770
  H        0.8092330     2.1418130    -0.3228610
  H        2.9650580     0.8755680     1.3857970
  H        4.3169070    -0.0053560     0.6533480
  H        2.9660240    -0.8892340     1.3840690
  H       -1.6288030    -2.1532140     0.0657430
  H       -1.6431320     2.1402150     0.0795740
  H       -3.4941530    -0.8345020     0.3676020
units angstrom
no_reorient  #important for SAPT in psi4, default
symmetry c1  #important for SAPT in psi4, default
}

set PROPERTIES_ORIGIN ["COM"]
properties('MP2/aug-cc-pvtz', properties = ['dipole'])
--------------------------------------------------------------------------

    Molecular point group: c1
  Charge       = 0
  Multiplicity = 1
  Basis Set: AUG-CC-PVTZ
    Blend: AUG-CC-PVTZ
  Basis Set: (AUG-CC-PVTZ AUX)
    Blend: AUG-CC-PVTZ-JKFIT

    Orbital Energies [Eh]
    ---------------------

    Doubly Occupied:

       1A    -20.589248     2A    -11.299135     3A    -11.237981
       4A    -11.236158     5A    -11.234626     6A    -11.230794
       7A    -11.228108     8A    -11.227171     9A    -11.215133
      10A     -1.398418    11A     -1.151151    12A     -1.058271
      13A     -1.016658    14A     -0.975427    15A     -0.861458
      16A     -0.842717    17A     -0.791564    18A     -0.728429
      19A     -0.672263    20A     -0.646958    21A     -0.613367
      22A     -0.596302    23A     -0.587645    24A     -0.585705
      25A     -0.568640    26A     -0.554838    27A     -0.524041
      28A     -0.498993    29A     -0.479631    30A     -0.478188
      31A     -0.467833    32A     -0.340426    33A     -0.305626

  @DF-RHF Final Energy:  -383.76650229390799

   => Energetics <=

    Nuclear Repulsion Energy =            418.4467496396885053
    One-Electron Energy =               -1349.9407013311711125
    Two-Electron Energy =                 547.7274493975746736
    Total Energy =                       -383.7665022939079336
  Basis Set: (AUG-CC-PVTZ AUX)
    Blend: AUG-CC-PVTZ-RI
    Molecular point group: c1

    Geometry (in Angstrom), charge = 0, multiplicity = 1:

       Center              X                  Y                   Z               Mass
    ------------   -----------------  -----------------  -----------------  -----------------
         O           -3.140717531287     0.070537537770     0.315050287613    15.994914619570
         C            0.992847368713    -0.003991462230    -0.350064412387    12.000000000000
         C            2.488281468713    -0.005209462230    -0.541642712387    12.000000000000
         C            0.281604468713    -1.201564462230    -0.246122712387    12.000000000000
         C            0.280867468713     1.195055537770    -0.238779712387    12.000000000000
         C            3.220582568713    -0.006097962230     0.801248887613    12.000000000000
         C           -1.095079531287    -1.206546462230    -0.017680712387    12.000000000000
         C           -1.094062531287     1.206637537770    -0.011094712387    12.000000000000
         C           -1.785538531287     0.001795537770     0.099667287613    12.000000000000
         H            2.784791468713    -0.882390462230    -1.128428712387     1.007825032230
         H            2.784564468713     0.873145537770    -1.126585712387     1.007825032230
         H            0.810497468713    -2.148325462230    -0.338293712387     1.007825032230
         H            0.810223468713     2.141812537770    -0.324777712387     1.007825032230
         H            2.966048468713     0.875567537770     1.383880287613     1.007825032230
         H            4.317897468713    -0.005356462230     0.651431287613     1.007825032230
         H            2.967014468713    -0.889234462230     1.382152287613     1.007825032230
         H           -1.627812531287    -2.153214462230     0.063826287613     1.007825032230
         H           -1.642141531287     2.140214537770     0.077657287613     1.007825032230
         H           -3.493162531287    -0.834502462230     0.365685287613     1.007825032230

  Basis Set: AUG-CC-PVTZ
    Blend: AUG-CC-PVTZ
  Basis Set: (AUG-CC-PVTZ AUX)
    Blend: AUG-CC-PVTZ-JKFIT
	 Reference Energy          =    -383.7665022939079904 [Eh]
	 Singles Energy            =      -0.0000000000000000 [Eh]
	 Same-Spin Energy          =      -0.4127748060026284 [Eh]
	 Opposite-Spin Energy      =      -1.3187880842000199 [Eh]
	 Correlation Energy        =      -1.7315628902026483 [Eh]
	 Total Energy              =    -385.4980651841106578 [Eh]

	 ================> DF-SCS-MP2 Energies <==================
	-----------------------------------------------------------
	 SCS Same-Spin Scale       =       0.3333333333333333 [-]
	 SCS Opposite-Spin Scale   =       1.2000000000000000 [-]
	 SCS Same-Spin Energy      =      -0.1375916020008761 [Eh]
	 SCS Opposite-Spin Energy  =      -1.5825457010400239 [Eh]
	 SCS Correlation Energy    =      -1.7201373030409000 [Eh]
	 SCS Total Energy          =    -385.4866395969488622 [Eh]
	-----------------------------------------------------------

  Dipole Moment: [D]
     X:     0.4673      Y:    -1.2723      Z:    -0.0250     Total:     1.3557

*** Psi4 exiting successfully. Buy a developer a beer!
