                               Psi4 1.3.2 release

  ==> Input File <==

--------------------------------------------------------------------------
#psi4
#
memory 32 gb

molecule  {
0 1
  O       -3.1417080     0.0705380     0.3169670
  C        0.9902420    -0.0039870    -0.3612050
  C        2.4872910    -0.0052090    -0.5397260
  C        0.2806140    -1.2015640    -0.2442060
  C        0.2798770     1.1950560    -0.2368630
  C        3.2312830    -0.0061060     0.7967240
  C       -1.0960700    -1.2065460    -0.0157640
  C       -1.0950530     1.2066380    -0.0091780
  C       -1.8072519    -0.0106105     0.1048720
  H        2.7838010    -0.8823900    -1.1265120
  H        2.7835740     0.8731460    -1.1246690
  H        0.8095070    -2.1483250    -0.3363770
  H        0.8092330     2.1418130    -0.3228610
  H        2.9650580     0.8755680     1.3857970
  H        4.3169070    -0.0053560     0.6533480
  H        2.9660240    -0.8892340     1.3840690
  H       -1.6450251    -2.1436646     0.0684095
  H       -1.6431320     2.1402150     0.0795740
  H       -3.4941530    -0.8345020     0.3676020
units angstrom
no_reorient  #important for SAPT in psi4, default
symmetry c1  #important for SAPT in psi4, default
}

set PROPERTIES_ORIGIN ["COM"]
properties('MP2/aug-cc-pvtz', properties = ['dipole'])
--------------------------------------------------------------------------

    Molecular point group: c1
  Charge       = 0
  Multiplicity = 1
  Basis Set: AUG-CC-PVTZ
    Blend: AUG-CC-PVTZ
  Basis Set: (AUG-CC-PVTZ AUX)
    Blend: AUG-CC-PVTZ-JKFIT

    Orbital Energies [Eh]
    ---------------------

    Doubly Occupied:

       1A    -20.593965     2A    -11.301070     3A    -11.237741
       4A    -11.235612     5A    -11.233552     6A    -11.229980
       7A    -11.229158     8A    -11.226452     9A    -11.214716
      10A     -1.410128    11A     -1.148630    12A     -1.056309
      13A     -1.014590    14A     -0.974665    15A     -0.861596
      16A     -0.842829    17A     -0.792105    18A     -0.731392
      19A     -0.674293    20A     -0.646343    21A     -0.612474
      22A     -0.597134    23A     -0.592668    24A     -0.583551
      25A     -0.569127    26A     -0.558927    27A     -0.523257
      28A     -0.495388    29A     -0.479796    30A     -0.476338
      31A     -0.467104    32A     -0.339689    33A     -0.302828

  @DF-RHF Final Energy:  -383.76591735498630

   => Energetics <=

    Nuclear Repulsion Energy =            418.1953837434705861
    One-Electron Energy =               -1349.4157922443823736
    Two-Electron Energy =                 547.4544911459255445
    Total Energy =                       -383.7659173549862999
  Basis Set: (AUG-CC-PVTZ AUX)
    Blend: AUG-CC-PVTZ-RI
    Molecular point group: c1

    Geometry (in Angstrom), charge = 0, multiplicity = 1:

       Center              X                  Y                   Z               Mass
    ------------   -----------------  -----------------  -----------------  -----------------
         O           -3.139536994692     0.071678721221     0.316621832307    15.994914619570
         C            0.992413005308    -0.002846278779    -0.361550167693    12.000000000000
         C            2.489462005308    -0.004068278779    -0.540071167693    12.000000000000
         C            0.282785005308    -1.200423278779    -0.244551167693    12.000000000000
         C            0.282048005308     1.196196721221    -0.237208167693    12.000000000000
         C            3.233454005308    -0.004965278779     0.796378832307    12.000000000000
         C           -1.093898994692    -1.205405278779    -0.016109167693    12.000000000000
         C           -1.092881994692     1.207778721221    -0.009523167693    12.000000000000
         C           -1.805080894692    -0.009469778779     0.104526832307    12.000000000000
         H            2.785972005308    -0.881249278779    -1.126857167693     1.007825032230
         H            2.785745005308     0.874286721221    -1.125014167693     1.007825032230
         H            0.811678005308    -2.147184278779    -0.336722167693     1.007825032230
         H            0.811404005308     2.142953721221    -0.323206167693     1.007825032230
         H            2.967229005308     0.876708721221     1.385451832307     1.007825032230
         H            4.319078005308    -0.004215278779     0.653002832307     1.007825032230
         H            2.968195005308    -0.888093278779     1.383723832307     1.007825032230
         H           -1.642854094692    -2.142523878779     0.068064332307     1.007825032230
         H           -1.640960994692     2.141355721221     0.079228832307     1.007825032230
         H           -3.491981994692    -0.833361278779     0.367256832307     1.007825032230

  Basis Set: AUG-CC-PVTZ
    Blend: AUG-CC-PVTZ
  Basis Set: (AUG-CC-PVTZ AUX)
    Blend: AUG-CC-PVTZ-JKFIT
	 Reference Energy          =    -383.7659173549862999 [Eh]
	 Singles Energy            =      -0.0000000000000000 [Eh]
	 Same-Spin Energy          =      -0.4128065860277423 [Eh]
	 Opposite-Spin Energy      =      -1.3187293726226172 [Eh]
	 Correlation Energy        =      -1.7315359586503596 [Eh]
	 Total Energy              =    -385.4974533136366404 [Eh]

	 ================> DF-SCS-MP2 Energies <==================
	-----------------------------------------------------------
	 SCS Same-Spin Scale       =       0.3333333333333333 [-]
	 SCS Opposite-Spin Scale   =       1.2000000000000000 [-]
	 SCS Same-Spin Energy      =      -0.1376021953425808 [Eh]
	 SCS Opposite-Spin Energy  =      -1.5824752471471406 [Eh]
	 SCS Correlation Energy    =      -1.7200774424897214 [Eh]
	 SCS Total Energy          =    -385.4859947974759962 [Eh]
	-----------------------------------------------------------

  Dipole Moment: [D]
     X:     0.3078      Y:    -1.2708      Z:     0.0048     Total:     1.3076

*** Psi4 exiting successfully. Buy a developer a beer!
