                               Psi4 1.3.2 release

  ==> Input File <==

--------------------------------------------------------------------------
#psi4
#
memory 32 gb

molecule  {
0 1
  O       -3.1417080     0.0705380     0.3169670
  C        1.0310859     0.0219111    -0.3680111
  C        2.4872910    -0.0052090    -0.5397260
  C        0.2806140    -1.2015640    -0.2442060
  C        0.2798770     1.1950560    -0.2368630
  C        3.2312830    -0.0061060     0.7967240
  C       -1.0960700    -1.2065460    -0.0157640
  C       -1.0950530     1.2066380    -0.0091780
  C       -1.7865290     0.0017960     0.1015840
  H        2.7838010    -0.8823900    -1.1265120
  H        2.7835740     0.8731460    -1.1246690
  H        0.8095070    -2.1483250    -0.3363770
  H        0.8414794     2.1225203    -0.3283782
  H        2.9650580     0.8755680     1.3857970
  H        4.3169070    -0.0053560     0.6533480
  H        2.9660240    -0.8892340     1.3840690
  H       -1.6288030    -2.1532140     0.0657430
  H       -1.6431320     2.1402150     0.0795740
  H       -3.4941530    -0.8345020     0.3676020
units angstrom
no_reorient  #important for SAPT in psi4, default
symmetry c1  #important for SAPT in psi4, default
}

set PROPERTIES_ORIGIN ["COM"]
properties('MP2/aug-cc-pvtz', properties = ['dipole'])
--------------------------------------------------------------------------

    Molecular point group: c1
  Charge       = 0
  Multiplicity = 1
  Basis Set: AUG-CC-PVTZ
    Blend: AUG-CC-PVTZ
  Basis Set: (AUG-CC-PVTZ AUX)
    Blend: AUG-CC-PVTZ-JKFIT

    Orbital Energies [Eh]
    ---------------------

    Doubly Occupied:

       1A    -20.589909     2A    -11.300005     3A    -11.242704
       4A    -11.236063     5A    -11.235543     6A    -11.233253
       7A    -11.227989     8A    -11.226001     9A    -11.216219
      10A     -1.398978    11A     -1.148301    12A     -1.063964
      13A     -1.014741    14A     -0.973888    15A     -0.866265
      16A     -0.840597    17A     -0.790868    18A     -0.728024
      19A     -0.671249    20A     -0.649897    21A     -0.613977
      22A     -0.595497    23A     -0.587078    24A     -0.583546
      25A     -0.572619    26A     -0.554379    27A     -0.526110
      28A     -0.497927    29A     -0.490482    30A     -0.471418
      31A     -0.465184    32A     -0.340423    33A     -0.302283

  @DF-RHF Final Energy:  -383.76241738878906

   => Energetics <=

    Nuclear Repulsion Energy =            418.0583494662263320
    One-Electron Energy =               -1349.1307651538720620
    Two-Electron Energy =                 547.3099982988567263
    Total Energy =                       -383.7624173887890038
  Basis Set: (AUG-CC-PVTZ AUX)
    Blend: AUG-CC-PVTZ-RI
    Molecular point group: c1

    Geometry (in Angstrom), charge = 0, multiplicity = 1:

       Center              X                  Y                   Z               Mass
    ------------   -----------------  -----------------  -----------------  -----------------
         O           -3.145989267540     0.068151431585     0.317681663415    15.994914619570
         C            1.026804632460     0.019524531585    -0.367296436585    12.000000000000
         C            2.483009732460    -0.007595568415    -0.539011336585    12.000000000000
         C            0.276332732460    -1.203950568415    -0.243491336585    12.000000000000
         C            0.275595732460     1.192669431585    -0.236148336585    12.000000000000
         C            3.227001732460    -0.008492568415     0.797438663415    12.000000000000
         C           -1.100351267540    -1.208932568415    -0.015049336585    12.000000000000
         C           -1.099334267540     1.204251431585    -0.008463336585    12.000000000000
         C           -1.790810267540    -0.000590568415     0.102298663415    12.000000000000
         H            2.779519732460    -0.884776568415    -1.125797336585     1.007825032230
         H            2.779292732460     0.870759431585    -1.123954336585     1.007825032230
         H            0.805225732460    -2.150711568415    -0.335662336585     1.007825032230
         H            0.837198132460     2.120133731585    -0.327663536585     1.007825032230
         H            2.960776732460     0.873181431585     1.386511663415     1.007825032230
         H            4.312625732460    -0.007742568415     0.654062663415     1.007825032230
         H            2.961742732460    -0.891620568415     1.384783663415     1.007825032230
         H           -1.633084267540    -2.155600568415     0.066457663415     1.007825032230
         H           -1.647413267540     2.137828431585     0.080288663415     1.007825032230
         H           -3.498434267540    -0.836888568415     0.368316663415     1.007825032230

  Basis Set: AUG-CC-PVTZ
    Blend: AUG-CC-PVTZ
  Basis Set: (AUG-CC-PVTZ AUX)
    Blend: AUG-CC-PVTZ-JKFIT
	 Reference Energy          =    -383.7624173887890606 [Eh]
	 Singles Energy            =      -0.0000000000000000 [Eh]
	 Same-Spin Energy          =      -0.4132808857652817 [Eh]
	 Opposite-Spin Energy      =      -1.3196185412342856 [Eh]
	 Correlation Energy        =      -1.7328994269995672 [Eh]
	 Total Energy              =    -385.4953168157886125 [Eh]

	 ================> DF-SCS-MP2 Energies <==================
	-----------------------------------------------------------
	 SCS Same-Spin Scale       =       0.3333333333333333 [-]
	 SCS Opposite-Spin Scale   =       1.2000000000000000 [-]
	 SCS Same-Spin Energy      =      -0.1377602952550939 [Eh]
	 SCS Opposite-Spin Energy  =      -1.5835422494811426 [Eh]
	 SCS Correlation Energy    =      -1.7213025447362365 [Eh]
	 SCS Total Energy          =    -385.4837199335253217 [Eh]
	-----------------------------------------------------------

  Dipole Moment: [D]
     X:     0.5129      Y:    -1.3044      Z:    -0.0158     Total:     1.4017

*** Psi4 exiting successfully. Buy a developer a beer!
