                               Psi4 1.3.2 release

  ==> Input File <==

--------------------------------------------------------------------------
#psi4
#
memory 32 gb

molecule  {
0 1
  O       -3.1417080     0.0705380     0.3169670
  C        0.9902420    -0.0039870    -0.3612050
  C        2.4872957     0.0079406    -0.5392917
  C        0.2806140    -1.2015640    -0.2442060
  C        0.2903240     1.2012908    -0.2379023
  C        3.2312830    -0.0061060     0.7967240
  C       -1.0960700    -1.2065460    -0.0157640
  C       -1.0950530     1.2066380    -0.0091780
  C       -1.7865290     0.0017960     0.1015840
  H        2.7838010    -0.8823900    -1.1265120
  H        2.7835740     0.8731460    -1.1246690
  H        0.8095070    -2.1483250    -0.3363770
  H        0.8092330     2.1418130    -0.3228610
  H        2.9650580     0.8755680     1.3857970
  H        4.3169070    -0.0053560     0.6533480
  H        2.9660240    -0.8892340     1.3840690
  H       -1.6288030    -2.1532140     0.0657430
  H       -1.6431320     2.1402150     0.0795740
  H       -3.4941530    -0.8345020     0.3676020
units angstrom
no_reorient  #important for SAPT in psi4, default
symmetry c1  #important for SAPT in psi4, default
}

set PROPERTIES_ORIGIN ["COM"]
properties('MP2/aug-cc-pvtz', properties = ['dipole'])
--------------------------------------------------------------------------

    Molecular point group: c1
  Charge       = 0
  Multiplicity = 1
  Basis Set: AUG-CC-PVTZ
    Blend: AUG-CC-PVTZ
  Basis Set: (AUG-CC-PVTZ AUX)
    Blend: AUG-CC-PVTZ-JKFIT

    Orbital Energies [Eh]
    ---------------------

    Doubly Occupied:

       1A    -20.589295     2A    -11.299233     3A    -11.238509
       4A    -11.236356     5A    -11.235217     6A    -11.231202
       7A    -11.229027     8A    -11.226836     9A    -11.215189
      10A     -1.398466    11A     -1.150285    12A     -1.057891
      13A     -1.015825    14A     -0.975732    15A     -0.861356
      16A     -0.843824    17A     -0.790469    18A     -0.729192
      19A     -0.672454    20A     -0.646524    21A     -0.613133
      22A     -0.597060    23A     -0.587869    24A     -0.586171
      25A     -0.568339    26A     -0.555379    27A     -0.523441
      28A     -0.498991    29A     -0.481684    30A     -0.475999
      31A     -0.467444    32A     -0.339372    33A     -0.306179

  @DF-RHF Final Energy:  -383.76618691988426

   => Energetics <=

    Nuclear Repulsion Energy =            418.1743215239542337
    One-Electron Energy =               -1349.3931344991926835
    Two-Electron Energy =                 547.4526260553542443
    Total Energy =                       -383.7661869198842624
  Basis Set: (AUG-CC-PVTZ AUX)
    Blend: AUG-CC-PVTZ-RI
    Molecular point group: c1

    Geometry (in Angstrom), charge = 0, multiplicity = 1:

       Center              X                  Y                   Z               Mass
    ------------   -----------------  -----------------  -----------------  -----------------
         O           -3.142735439155     0.068632460597     0.317026535220    15.994914619570
         C            0.989214560845    -0.005892539403    -0.361145464780    12.000000000000
         C            2.486268260845     0.006035060597    -0.539232164780    12.000000000000
         C            0.279586560845    -1.203469539403    -0.244146464780    12.000000000000
         C            0.289296560845     1.199385260597    -0.237842764780    12.000000000000
         C            3.230255560845    -0.008011539403     0.796783535220    12.000000000000
         C           -1.097097439155    -1.208451539403    -0.015704464780    12.000000000000
         C           -1.096080439155     1.204732460597    -0.009118464780    12.000000000000
         C           -1.787556439155    -0.000109539403     0.101643535220    12.000000000000
         H            2.782773560845    -0.884295539403    -1.126452464780     1.007825032230
         H            2.782546560845     0.871240460597    -1.124609464780     1.007825032230
         H            0.808479560845    -2.150230539403    -0.336317464780     1.007825032230
         H            0.808205560845     2.139907460597    -0.322801464780     1.007825032230
         H            2.964030560845     0.873662460597     1.385856535220     1.007825032230
         H            4.315879560845    -0.007261539403     0.653407535220     1.007825032230
         H            2.964996560845    -0.891139539403     1.384128535220     1.007825032230
         H           -1.629830439155    -2.155119539403     0.065802535220     1.007825032230
         H           -1.644159439155     2.138309460597     0.079633535220     1.007825032230
         H           -3.495180439155    -0.836407539403     0.367661535220     1.007825032230

  Basis Set: AUG-CC-PVTZ
    Blend: AUG-CC-PVTZ
  Basis Set: (AUG-CC-PVTZ AUX)
    Blend: AUG-CC-PVTZ-JKFIT
	 Reference Energy          =    -383.7661869198842624 [Eh]
	 Singles Energy            =      -0.0000000000000000 [Eh]
	 Same-Spin Energy          =      -0.4127632020948367 [Eh]
	 Opposite-Spin Energy      =      -1.3188372784055502 [Eh]
	 Correlation Energy        =      -1.7316004805003868 [Eh]
	 Total Energy              =    -385.4977874003846523 [Eh]

	 ================> DF-SCS-MP2 Energies <==================
	-----------------------------------------------------------
	 SCS Same-Spin Scale       =       0.3333333333333333 [-]
	 SCS Opposite-Spin Scale   =       1.2000000000000000 [-]
	 SCS Same-Spin Energy      =      -0.1375877340316122 [Eh]
	 SCS Opposite-Spin Energy  =      -1.5826047340866602 [Eh]
	 SCS Correlation Energy    =      -1.7201924681182725 [Eh]
	 SCS Total Energy          =    -385.4863793880025469 [Eh]
	-----------------------------------------------------------

  Dipole Moment: [D]
     X:     0.4659      Y:    -1.2650      Z:    -0.0194     Total:     1.3482

*** Psi4 exiting successfully. Buy a developer a beer!
