                               Psi4 1.3.2 release

  ==> Input File <==

--------------------------------------------------------------------------
#psi4
#
memory 32 gb

molecule  {
0 1
  O       -3.1417080     0.0705380     0.3169670
  C        0.9798938    -0.0102345    -0.3594795
  C        2.4872910    -0.0052090    -0.5397260
  C        0.2806140    -1.2015640    -0.2442060
  C        0.2798770     1.1950560    -0.2368630
  C        3.2312830    -0.0061060     0.7967240
  C       -1.0960700    -1.2065460    -0.0157640
  C       -1.0950530     1.2066380    -0.0091780
  C       -1.7865290     0.0017960     0.1015840
  H        2.7838010    -0.8823900    -1.1265120
  H        2.7835740     0.8731460    -1.1246690
  H        0.8095070    -2.1483250    -0.3363770
  H        0.8010691     2.1464568    -0.3214651
  H        2.9650580     0.8755680     1.3857970
  H        4.3169070    -0.0053560     0.6533480
  H        2.9660240    -0.8892340     1.3840690
  H       -1.6288030    -2.1532140     0.0657430
  H       -1.6431320     2.1402150     0.0795740
  H       -3.4941530    -0.8345020     0.3676020
units angstrom
no_reorient  #important for SAPT in psi4, default
symmetry c1  #important for SAPT in psi4, default
}

set PROPERTIES_ORIGIN ["COM"]
properties('MP2/aug-cc-pvtz', properties = ['dipole'])
--------------------------------------------------------------------------

    Molecular point group: c1
  Charge       = 0
  Multiplicity = 1
  Basis Set: AUG-CC-PVTZ
    Blend: AUG-CC-PVTZ
  Basis Set: (AUG-CC-PVTZ AUX)
    Blend: AUG-CC-PVTZ-JKFIT

    Orbital Energies [Eh]
    ---------------------

    Doubly Occupied:

       1A    -20.589258     2A    -11.299168     3A    -11.236974
       4A    -11.236414     5A    -11.234424     6A    -11.230359
       7A    -11.228192     8A    -11.227303     9A    -11.215016
      10A     -1.398442    11A     -1.151944    12A     -1.056598
      13A     -1.017286    14A     -0.976080    15A     -0.860669
      16A     -0.843260    17A     -0.791535    18A     -0.728609
      19A     -0.672496    20A     -0.646066    21A     -0.612764
      22A     -0.596372    23A     -0.588202    24A     -0.585955
      25A     -0.568789    26A     -0.555624    27A     -0.522737
      28A     -0.498349    29A     -0.479891    30A     -0.476385
      31A     -0.468997    32A     -0.340579    33A     -0.306691

  @DF-RHF Final Energy:  -383.76678630678481

   => Energetics <=

    Nuclear Repulsion Energy =            418.3970678716551106
    One-Electron Energy =               -1349.8448538812963307
    Two-Electron Energy =                 547.6809997028565249
    Total Energy =                       -383.7667863067847520
  Basis Set: (AUG-CC-PVTZ AUX)
    Blend: AUG-CC-PVTZ-RI
    Molecular point group: c1

    Geometry (in Angstrom), charge = 0, multiplicity = 1:

       Center              X                  Y                   Z               Mass
    ------------   -----------------  -----------------  -----------------  -----------------
         O           -3.140623373142     0.071113781224     0.316785918676    15.994914619570
         C            0.980978426858    -0.009658718776    -0.359660581324    12.000000000000
         C            2.488375626858    -0.004633218776    -0.539907081324    12.000000000000
         C            0.281698626858    -1.200988218776    -0.244387081324    12.000000000000
         C            0.280961626858     1.195631781224    -0.237044081324    12.000000000000
         C            3.232367626858    -0.005530218776     0.796542918676    12.000000000000
         C           -1.094985373142    -1.205970218776    -0.015945081324    12.000000000000
         C           -1.093968373142     1.207213781224    -0.009359081324    12.000000000000
         C           -1.785444373142     0.002371781224     0.101402918676    12.000000000000
         H            2.784885626858    -0.881814218776    -1.126693081324     1.007825032230
         H            2.784658626858     0.873721781224    -1.124850081324     1.007825032230
         H            0.810591626858    -2.147749218776    -0.336558081324     1.007825032230
         H            0.802153726858     2.147032581224    -0.321646181324     1.007825032230
         H            2.966142626858     0.876143781224     1.385615918676     1.007825032230
         H            4.317991626858    -0.004780218776     0.653166918676     1.007825032230
         H            2.967108626858    -0.888658218776     1.383887918676     1.007825032230
         H           -1.627718373142    -2.152638218776     0.065561918676     1.007825032230
         H           -1.642047373142     2.140790781224     0.079392918676     1.007825032230
         H           -3.493068373142    -0.833926218776     0.367420918676     1.007825032230

  Basis Set: AUG-CC-PVTZ
    Blend: AUG-CC-PVTZ
  Basis Set: (AUG-CC-PVTZ AUX)
    Blend: AUG-CC-PVTZ-JKFIT
	 Reference Energy          =    -383.7667863067848089 [Eh]
	 Singles Energy            =      -0.0000000000000000 [Eh]
	 Same-Spin Energy          =      -0.4126430308093197 [Eh]
	 Opposite-Spin Energy      =      -1.3185819980446660 [Eh]
	 Correlation Energy        =      -1.7312250288539857 [Eh]
	 Total Energy              =    -385.4980113356388074 [Eh]

	 ================> DF-SCS-MP2 Energies <==================
	-----------------------------------------------------------
	 SCS Same-Spin Scale       =       0.3333333333333333 [-]
	 SCS Opposite-Spin Scale   =       1.2000000000000000 [-]
	 SCS Same-Spin Energy      =      -0.1375476769364399 [Eh]
	 SCS Opposite-Spin Energy  =      -1.5822983976535991 [Eh]
	 SCS Correlation Energy    =      -1.7198460745900390 [Eh]
	 SCS Total Energy          =    -385.4866323813748750 [Eh]
	-----------------------------------------------------------

  Dipole Moment: [D]
     X:     0.4524      Y:    -1.2646      Z:    -0.0189     Total:     1.3433

*** Psi4 exiting successfully. Buy a developer a beer!
