                               Psi4 1.3.2 release

  ==> Input File <==

--------------------------------------------------------------------------
#psi4
#
memory 32 gb

molecule  {
0 1
  O       -3.1417080     0.0705380     0.3169670
  C        0.9799059     0.0022436    -0.3594859
  C        2.4872910    -0.0052090    -0.5397260
  C        0.2806140    -1.2015640    -0.2442060
  C        0.2798770     1.1950560    -0.2368630
  C        3.2312830    -0.0061060     0.7967240
  C       -1.0960592    -1.1943679    -0.0157581
  C       -1.0950530     1.2066380    -0.0091780
  C       -1.7865290     0.0017960     0.1015840
  H        2.7838010    -0.8823900    -1.1265120
  H        2.7835740     0.8731460    -1.1246690
  H        0.8095070    -2.1483250    -0.3363770
  H        0.8092330     2.1418130    -0.3228610
  H        2.9650580     0.8755680     1.3857970
  H        4.3169070    -0.0053560     0.6533480
  H        2.9660240    -0.8892340     1.3840690
  H       -1.6288030    -2.1532140     0.0657430
  H       -1.6431320     2.1402150     0.0795740
  H       -3.4941530    -0.8345020     0.3676020
units angstrom
no_reorient  #important for SAPT in psi4, default
symmetry c1  #important for SAPT in psi4, default
}

set PROPERTIES_ORIGIN ["COM"]
properties('MP2/aug-cc-pvtz', properties = ['dipole'])
--------------------------------------------------------------------------

    Molecular point group: c1
  Charge       = 0
  Multiplicity = 1
  Basis Set: AUG-CC-PVTZ
    Blend: AUG-CC-PVTZ
  Basis Set: (AUG-CC-PVTZ AUX)
    Blend: AUG-CC-PVTZ-JKFIT

    Orbital Energies [Eh]
    ---------------------

    Doubly Occupied:

       1A    -20.589080     2A    -11.297787     3A    -11.238107
       4A    -11.234899     5A    -11.234584     6A    -11.230396
       7A    -11.228233     8A    -11.227371     9A    -11.215140
      10A     -1.398368    11A     -1.152796    12A     -1.057304
      13A     -1.016948    14A     -0.976920    15A     -0.860570
      16A     -0.843550    17A     -0.791706    18A     -0.728834
      19A     -0.672465    20A     -0.645032    21A     -0.612625
      22A     -0.595847    23A     -0.588120    24A     -0.585987
      25A     -0.569519    26A     -0.555426    27A     -0.522732
      28A     -0.498634    29A     -0.479456    30A     -0.476450
      31A     -0.469442    32A     -0.340617    33A     -0.307395

  @DF-RHF Final Energy:  -383.76662446946955

   => Energetics <=

    Nuclear Repulsion Energy =            418.6040007150872384
    One-Electron Energy =               -1350.2565698908588274
    Two-Electron Energy =                 547.8859447063019843
    Total Energy =                       -383.7666244694695479
  Basis Set: (AUG-CC-PVTZ AUX)
    Blend: AUG-CC-PVTZ-RI
    Molecular point group: c1

    Geometry (in Angstrom), charge = 0, multiplicity = 1:

       Center              X                  Y                   Z               Mass
    ------------   -----------------  -----------------  -----------------  -----------------
         O           -3.140693024672     0.068728373569     0.316797492252    15.994914619570
         C            0.980920875328     0.000433973569    -0.359655407748    12.000000000000
         C            2.488305975328    -0.007018626431    -0.539895507748    12.000000000000
         C            0.281628975328    -1.203373626431    -0.244375507748    12.000000000000
         C            0.280891975328     1.193246373569    -0.237032507748    12.000000000000
         C            3.232297975328    -0.007915626431     0.796554492252    12.000000000000
         C           -1.095044224672    -1.196177526431    -0.015927607748    12.000000000000
         C           -1.094038024672     1.204828373569    -0.009347507748    12.000000000000
         C           -1.785514024672    -0.000013626431     0.101414492252    12.000000000000
         H            2.784815975328    -0.884199626431    -1.126681507748     1.007825032230
         H            2.784588975328     0.871336373569    -1.124838507748     1.007825032230
         H            0.810521975328    -2.150134626431    -0.336546507748     1.007825032230
         H            0.810247975328     2.140003373569    -0.323030507748     1.007825032230
         H            2.966072975328     0.873758373569     1.385627492252     1.007825032230
         H            4.317921975328    -0.007165626431     0.653178492252     1.007825032230
         H            2.967038975328    -0.891043626431     1.383899492252     1.007825032230
         H           -1.627788024672    -2.155023626431     0.065573492252     1.007825032230
         H           -1.642117024672     2.138405373569     0.079404492252     1.007825032230
         H           -3.493138024672    -0.836311626431     0.367432492252     1.007825032230

  Basis Set: AUG-CC-PVTZ
    Blend: AUG-CC-PVTZ
  Basis Set: (AUG-CC-PVTZ AUX)
    Blend: AUG-CC-PVTZ-JKFIT
	 Reference Energy          =    -383.7666244694695479 [Eh]
	 Singles Energy            =      -0.0000000000000000 [Eh]
	 Same-Spin Energy          =      -0.4126884158755009 [Eh]
	 Opposite-Spin Energy      =      -1.3185592285455390 [Eh]
	 Correlation Energy        =      -1.7312476444210398 [Eh]
	 Total Energy              =    -385.4978721138905939 [Eh]

	 ================> DF-SCS-MP2 Energies <==================
	-----------------------------------------------------------
	 SCS Same-Spin Scale       =       0.3333333333333333 [-]
	 SCS Opposite-Spin Scale   =       1.2000000000000000 [-]
	 SCS Same-Spin Energy      =      -0.1375628052918336 [Eh]
	 SCS Opposite-Spin Energy  =      -1.5822710742546466 [Eh]
	 SCS Correlation Energy    =      -1.7198338795464803 [Eh]
	 SCS Total Energy          =    -385.4864583490160044 [Eh]
	-----------------------------------------------------------

  Dipole Moment: [D]
     X:     0.4706      Y:    -1.2754      Z:    -0.0214     Total:     1.3597

*** Psi4 exiting successfully. Buy a developer a beer!
