                               Psi4 1.3.2 release

  ==> Input File <==

--------------------------------------------------------------------------
#psi4
#
memory 32 gb

molecule  {
0 1
  O       -3.1433961    -0.0013710     0.3172854
  C        0.9902420    -0.0039870    -0.3612050
  C        2.4872910    -0.0052090    -0.5397260
  C        0.2806140    -1.2015640    -0.2442060
  C        0.2798770     1.1950560    -0.2368630
  C        3.2312830    -0.0061060     0.7967240
  C       -1.0960700    -1.2065460    -0.0157640
  C       -1.0337221     1.1683364    -0.0189010
  C       -1.7865290     0.0017960     0.1015840
  H        2.7838010    -0.8823900    -1.1265120
  H        2.7835740     0.8731460    -1.1246690
  H        0.8095070    -2.1483250    -0.3363770
  H        0.8092330     2.1418130    -0.3228610
  H        2.9650580     0.8755680     1.3857970
  H        4.3169070    -0.0053560     0.6533480
  H        2.9660240    -0.8892340     1.3840690
  H       -1.6288030    -2.1532140     0.0657430
  H       -1.6431320     2.1402150     0.0795740
  H       -3.4941530    -0.8345020     0.3676020
units angstrom
no_reorient  #important for SAPT in psi4, default
symmetry c1  #important for SAPT in psi4, default
}

set PROPERTIES_ORIGIN ["COM"]
properties('MP2/aug-cc-pvtz', properties = ['dipole'])
--------------------------------------------------------------------------

    Molecular point group: c1
  Charge       = 0
  Multiplicity = 1
  Basis Set: AUG-CC-PVTZ
    Blend: AUG-CC-PVTZ
  Basis Set: (AUG-CC-PVTZ AUX)
    Blend: AUG-CC-PVTZ-JKFIT

    Orbital Energies [Eh]
    ---------------------

    Doubly Occupied:

       1A    -20.583250     2A    -11.301078     3A    -11.235502
       4A    -11.232612     5A    -11.231414     6A    -11.230732
       7A    -11.229081     8A    -11.226883     9A    -11.215445
      10A     -1.411878    11A     -1.158863    12A     -1.060003
      13A     -1.022323    14A     -0.978416    15A     -0.868787
      16A     -0.838581    17A     -0.795913    18A     -0.744720
      19A     -0.672154    20A     -0.647825    21A     -0.617886
      22A     -0.594040    23A     -0.589975    24A     -0.581763
      25A     -0.575195    26A     -0.552171    27A     -0.524591
      28A     -0.494311    29A     -0.480892    30A     -0.473616
      31A     -0.469092    32A     -0.347528    33A     -0.304705

  @DF-RHF Final Energy:  -383.75792202565827

   => Energetics <=

    Nuclear Repulsion Energy =            419.7149647375919130
    One-Electron Energy =               -1352.3633274118089957
    Two-Electron Energy =                 548.8904406485588652
    Total Energy =                       -383.7579220256582175
  Basis Set: (AUG-CC-PVTZ AUX)
    Blend: AUG-CC-PVTZ-RI
    Molecular point group: c1

    Geometry (in Angstrom), charge = 0, multiplicity = 1:

       Center              X                  Y                   Z               Mass
    ------------   -----------------  -----------------  -----------------  -----------------
         O           -3.149203864011     0.011816133227     0.318199531062    15.994914619570
         C            0.984434235989     0.009200133227    -0.360290868938    12.000000000000
         C            2.481483235989     0.007978133227    -0.538811868938    12.000000000000
         C            0.274806235989    -1.188376866773    -0.243291868938    12.000000000000
         C            0.274069235989     1.208243133227    -0.235948868938    12.000000000000
         C            3.225475235989     0.007081133227     0.797638131062    12.000000000000
         C           -1.101877764011    -1.193358866773    -0.014849868938    12.000000000000
         C           -1.039529864011     1.181523533227    -0.017986868938    12.000000000000
         C           -1.792336764011     0.014983133227     0.102498131062    12.000000000000
         H            2.777993235989    -0.869202866773    -1.125597868938     1.007825032230
         H            2.777766235989     0.886333133227    -1.123754868938     1.007825032230
         H            0.803699235989    -2.135137866773    -0.335462868938     1.007825032230
         H            0.803425235989     2.155000133227    -0.321946868938     1.007825032230
         H            2.959250235989     0.888755133227     1.386711131062     1.007825032230
         H            4.311099235989     0.007831133227     0.654262131062     1.007825032230
         H            2.960216235989    -0.876046866773     1.384983131062     1.007825032230
         H           -1.634610764011    -2.140026866773     0.066657131062     1.007825032230
         H           -1.648939764011     2.153402133227     0.080488131062     1.007825032230
         H           -3.499960764011    -0.821314866773     0.368516131062     1.007825032230

  Basis Set: AUG-CC-PVTZ
    Blend: AUG-CC-PVTZ
  Basis Set: (AUG-CC-PVTZ AUX)
    Blend: AUG-CC-PVTZ-JKFIT
	 Reference Energy          =    -383.7579220256582744 [Eh]
	 Singles Energy            =      -0.0000000000000000 [Eh]
	 Same-Spin Energy          =      -0.4119951180783172 [Eh]
	 Opposite-Spin Energy      =      -1.3165180303860518 [Eh]
	 Correlation Energy        =      -1.7285131484643690 [Eh]
	 Total Energy              =    -385.4864351741226187 [Eh]

	 ================> DF-SCS-MP2 Energies <==================
	-----------------------------------------------------------
	 SCS Same-Spin Scale       =       0.3333333333333333 [-]
	 SCS Opposite-Spin Scale   =       1.2000000000000000 [-]
	 SCS Same-Spin Energy      =      -0.1373317060261057 [Eh]
	 SCS Opposite-Spin Energy  =      -1.5798216364632620 [Eh]
	 SCS Correlation Energy    =      -1.7171533424893677 [Eh]
	 SCS Total Energy          =    -385.4750753681476567 [Eh]
	-----------------------------------------------------------

  Dipole Moment: [D]
     X:     0.5006      Y:    -1.2108      Z:    -0.0256     Total:     1.3104

*** Psi4 exiting successfully. Buy a developer a beer!
