                               Psi4 1.3.2 release

  ==> Input File <==

--------------------------------------------------------------------------
#psi4
#
memory 32 gb

molecule  {
0 1
  O       -3.1417080     0.0705380     0.3169670
  C        0.9273693    -0.0400857    -0.3507145
  C        2.4872910    -0.0052090    -0.5397260
  C        0.2806140    -1.2015640    -0.2442060
  C        0.2798770     1.1950560    -0.2368630
  C        3.2312830    -0.0061060     0.7967240
  C       -1.0960700    -1.2065460    -0.0157640
  C       -1.0950530     1.2066380    -0.0091780
  C       -1.7865290     0.0017960     0.1015840
  H        2.7838010    -0.8823900    -1.1265120
  H        2.7835740     0.8731460    -1.1246690
  H        0.8095070    -2.1483250    -0.3363770
  H        0.7596667     2.1685823    -0.3143908
  H        2.9650580     0.8755680     1.3857970
  H        4.3169070    -0.0053560     0.6533480
  H        2.9660240    -0.8892340     1.3840690
  H       -1.6288030    -2.1532140     0.0657430
  H       -1.6431320     2.1402150     0.0795740
  H       -3.4941530    -0.8345020     0.3676020
units angstrom
no_reorient  #important for SAPT in psi4, default
symmetry c1  #important for SAPT in psi4, default
}

set PROPERTIES_ORIGIN ["COM"]
properties('MP2/aug-cc-pvtz', properties = ['dipole'])
--------------------------------------------------------------------------

    Molecular point group: c1
  Charge       = 0
  Multiplicity = 1
  Basis Set: AUG-CC-PVTZ
    Blend: AUG-CC-PVTZ
  Basis Set: (AUG-CC-PVTZ AUX)
    Blend: AUG-CC-PVTZ-JKFIT

    Orbital Energies [Eh]
    ---------------------

    Doubly Occupied:

       1A    -20.588635     2A    -11.298331     3A    -11.237101
       4A    -11.233695     5A    -11.230503     6A    -11.228467
       7A    -11.228430     8A    -11.227354     9A    -11.213948
      10A     -1.397927    11A     -1.156962    12A     -1.050258
      13A     -1.020591    14A     -0.977954    15A     -0.856746
      16A     -0.844886    17A     -0.791993    18A     -0.729013
      19A     -0.674454    20A     -0.642817    21A     -0.612093
      22A     -0.599260    23A     -0.589821    24A     -0.586115
      25A     -0.565416    26A     -0.556750    27A     -0.520150
      28A     -0.500810    29A     -0.483357    30A     -0.473322
      31A     -0.459916    32A     -0.341753    33A     -0.310425

  @DF-RHF Final Energy:  -383.76049933435195

   => Energetics <=

    Nuclear Repulsion Energy =            418.8056945621834188
    One-Electron Energy =               -1350.6738827431820482
    Two-Electron Energy =                 548.1076888466467381
    Total Energy =                       -383.7604993343519482
  Basis Set: (AUG-CC-PVTZ AUX)
    Blend: AUG-CC-PVTZ-RI
    Molecular point group: c1

    Geometry (in Angstrom), charge = 0, multiplicity = 1:

       Center              X                  Y                   Z               Mass
    ------------   -----------------  -----------------  -----------------  -----------------
         O           -3.135118310867     0.073865538888     0.315865899468    15.994914619570
         C            0.933958989133    -0.036758161112    -0.351815600532    12.000000000000
         C            2.493880689133    -0.001881461112    -0.540827100532    12.000000000000
         C            0.287203689133    -1.198236461112    -0.245307100532    12.000000000000
         C            0.286466689133     1.198383538888    -0.237964100532    12.000000000000
         C            3.237872689133    -0.002778461112     0.795622899468    12.000000000000
         C           -1.089480310867    -1.203218461112    -0.016865100532    12.000000000000
         C           -1.088463310867     1.209965538888    -0.010279100532    12.000000000000
         C           -1.779939310867     0.005123538888     0.100482899468    12.000000000000
         H            2.790390689133    -0.879062461112    -1.127613100532     1.007825032230
         H            2.790163689133     0.876473538888    -1.125770100532     1.007825032230
         H            0.816096689133    -2.144997461112    -0.337478100532     1.007825032230
         H            0.766256389133     2.171909838888    -0.315491900532     1.007825032230
         H            2.971647689133     0.878895538888     1.384695899468     1.007825032230
         H            4.323496689133    -0.002028461112     0.652246899468     1.007825032230
         H            2.972613689133    -0.885906461112     1.382967899468     1.007825032230
         H           -1.622213310867    -2.149886461112     0.064641899468     1.007825032230
         H           -1.636542310867     2.143542538888     0.078472899468     1.007825032230
         H           -3.487563310867    -0.831174461112     0.366500899468     1.007825032230

  Basis Set: AUG-CC-PVTZ
    Blend: AUG-CC-PVTZ
  Basis Set: (AUG-CC-PVTZ AUX)
    Blend: AUG-CC-PVTZ-JKFIT
	 Reference Energy          =    -383.7604993343519482 [Eh]
	 Singles Energy            =      -0.0000000000000000 [Eh]
	 Same-Spin Energy          =      -0.4122961459656362 [Eh]
	 Opposite-Spin Energy      =      -1.3182536586982825 [Eh]
	 Correlation Energy        =      -1.7305498046639187 [Eh]
	 Total Energy              =    -385.4910491390158427 [Eh]

	 ================> DF-SCS-MP2 Energies <==================
	-----------------------------------------------------------
	 SCS Same-Spin Scale       =       0.3333333333333333 [-]
	 SCS Opposite-Spin Scale   =       1.2000000000000000 [-]
	 SCS Same-Spin Energy      =      -0.1374320486552121 [Eh]
	 SCS Opposite-Spin Energy  =      -1.5819043904379388 [Eh]
	 SCS Correlation Energy    =      -1.7193364390931509 [Eh]
	 SCS Total Energy          =    -385.4798357734450747 [Eh]
	-----------------------------------------------------------

  Dipole Moment: [D]
     X:     0.3940      Y:    -1.2275      Z:    -0.0206     Total:     1.2893

*** Psi4 exiting successfully. Buy a developer a beer!
