                               Psi4 1.3.2 release

  ==> Input File <==

--------------------------------------------------------------------------
#psi4
#
memory 32 gb

molecule  {
0 1
  O       -3.1417080     0.0705380     0.3169670
  C        0.9902420    -0.0039870    -0.3612050
  C        2.4872910    -0.0052090    -0.5397260
  C        0.2806140    -1.2015640    -0.2442060
  C        0.2798770     1.1950560    -0.2368630
  C        3.2312830    -0.0061060     0.7967240
  C       -1.0960700    -1.2065460    -0.0157640
  C       -1.0950530     1.2066380    -0.0091780
  C       -1.8851658     0.0067994     0.1172607
  H        2.7838010    -0.8823900    -1.1265120
  H        2.7835740     0.8731460    -1.1246690
  H        0.8095070    -2.1483250    -0.3363770
  H        0.8092330     2.1418130    -0.3228610
  H        2.9650580     0.8755680     1.3857970
  H        4.3169070    -0.0053560     0.6533480
  H        2.9660240    -0.8892340     1.3840690
  H       -1.6288030    -2.1532140     0.0657430
  H       -1.6431320     2.1402150     0.0795740
  H       -3.4941530    -0.8345020     0.3676020
units angstrom
no_reorient  #important for SAPT in psi4, default
symmetry c1  #important for SAPT in psi4, default
}

set PROPERTIES_ORIGIN ["COM"]
properties('MP2/aug-cc-pvtz', properties = ['dipole'])
--------------------------------------------------------------------------

    Molecular point group: c1
  Charge       = 0
  Multiplicity = 1
  Basis Set: AUG-CC-PVTZ
    Blend: AUG-CC-PVTZ
  Basis Set: (AUG-CC-PVTZ AUX)
    Blend: AUG-CC-PVTZ-JKFIT

    Orbital Energies [Eh]
    ---------------------

    Doubly Occupied:

       1A    -20.610314     2A    -11.310859     3A    -11.235673
       4A    -11.234175     5A    -11.233477     6A    -11.226645
       7A    -11.224590     8A    -11.223381     9A    -11.212224
      10A     -1.458337    11A     -1.139556    12A     -1.049132
      13A     -1.007851    14A     -0.970244    15A     -0.866687
      16A     -0.838639    17A     -0.798813    18A     -0.744094
      19A     -0.682606    20A     -0.647290    21A     -0.620515
      22A     -0.612001    23A     -0.599688    24A     -0.574571
      25A     -0.569313    26A     -0.559839    27A     -0.521390
      28A     -0.486946    29A     -0.477279    30A     -0.465884
      31A     -0.461787    32A     -0.336106    33A     -0.290618

  @DF-RHF Final Energy:  -383.75295772524271

   => Energetics <=

    Nuclear Repulsion Energy =            417.7964920356978951
    One-Electron Energy =               -1348.5178528643464233
    Two-Electron Energy =                 546.9684031034058762
    Total Energy =                       -383.7529577252427089
  Basis Set: (AUG-CC-PVTZ AUX)
    Blend: AUG-CC-PVTZ-RI
    Molecular point group: c1

    Geometry (in Angstrom), charge = 0, multiplicity = 1:

       Center              X                  Y                   Z               Mass
    ------------   -----------------  -----------------  -----------------  -----------------
         O           -3.132011853831     0.070046137388     0.315426016382    15.994914619570
         C            0.999938146169    -0.004478862612    -0.362745983618    12.000000000000
         C            2.496987146169    -0.005700862612    -0.541266983618    12.000000000000
         C            0.290310146169    -1.202055862612    -0.245746983618    12.000000000000
         C            0.289573146169     1.194564137388    -0.238403983618    12.000000000000
         C            3.240979146169    -0.006597862612     0.795183016382    12.000000000000
         C           -1.086373853831    -1.207037862612    -0.017304983618    12.000000000000
         C           -1.085356853831     1.206146137388    -0.010718983618    12.000000000000
         C           -1.875469653831     0.006307537388     0.115719716382    12.000000000000
         H            2.793497146169    -0.882881862612    -1.128052983618     1.007825032230
         H            2.793270146169     0.872654137388    -1.126209983618     1.007825032230
         H            0.819203146169    -2.148816862612    -0.337917983618     1.007825032230
         H            0.818929146169     2.141321137388    -0.324401983618     1.007825032230
         H            2.974754146169     0.875076137388     1.384256016382     1.007825032230
         H            4.326603146169    -0.005847862612     0.651807016382     1.007825032230
         H            2.975720146169    -0.889725862612     1.382528016382     1.007825032230
         H           -1.619106853831    -2.153705862613     0.064202016382     1.007825032230
         H           -1.633435853831     2.139723137388     0.078033016382     1.007825032230
         H           -3.484456853831    -0.834993862612     0.366061016382     1.007825032230

  Basis Set: AUG-CC-PVTZ
    Blend: AUG-CC-PVTZ
  Basis Set: (AUG-CC-PVTZ AUX)
    Blend: AUG-CC-PVTZ-JKFIT
	 Reference Energy          =    -383.7529577252427089 [Eh]
	 Singles Energy            =      -0.0000000000000000 [Eh]
	 Same-Spin Energy          =      -0.4131817668866228 [Eh]
	 Opposite-Spin Energy      =      -1.3187084107990032 [Eh]
	 Correlation Energy        =      -1.7318901776856261 [Eh]
	 Total Energy              =    -385.4848479029283226 [Eh]

	 ================> DF-SCS-MP2 Energies <==================
	-----------------------------------------------------------
	 SCS Same-Spin Scale       =       0.3333333333333333 [-]
	 SCS Opposite-Spin Scale   =       1.2000000000000000 [-]
	 SCS Same-Spin Energy      =      -0.1377272556288743 [Eh]
	 SCS Opposite-Spin Energy  =      -1.5824500929588039 [Eh]
	 SCS Correlation Energy    =      -1.7201773485876781 [Eh]
	 SCS Total Energy          =    -385.4731350738304059 [Eh]
	-----------------------------------------------------------

  Dipole Moment: [D]
     X:    -0.3164      Y:    -1.2828      Z:     0.0953     Total:     1.3247

*** Psi4 exiting successfully. Buy a developer a beer!
