                               Psi4 1.3.2 release

  ==> Input File <==

--------------------------------------------------------------------------
#psi4
#
memory 32 gb

molecule  {
0 1
  O       -3.1417080     0.0705380     0.3169670
  C        1.0107353    -0.0167211    -0.3647117
  C        2.4872910    -0.0052090    -0.5397260
  C        0.2806140    -1.2015640    -0.2442060
  C        0.2798770     1.1950560    -0.2368630
  C        3.2312830    -0.0061060     0.7967240
  C       -1.0960700    -1.2065460    -0.0157640
  C       -1.0950530     1.2066380    -0.0091780
  C       -1.7865290     0.0017960     0.1015840
  H        2.7838010    -0.8823900    -1.1265120
  H        2.7835740     0.8731460    -1.1246690
  H        0.8257217    -2.1388114    -0.3390986
  H        0.8092330     2.1418130    -0.3228610
  H        2.9650580     0.8755680     1.3857970
  H        4.3169070    -0.0053560     0.6533480
  H        2.9660240    -0.8892340     1.3840690
  H       -1.6288030    -2.1532140     0.0657430
  H       -1.6431320     2.1402150     0.0795740
  H       -3.4941530    -0.8345020     0.3676020
units angstrom
no_reorient  #important for SAPT in psi4, default
symmetry c1  #important for SAPT in psi4, default
}

set PROPERTIES_ORIGIN ["COM"]
properties('MP2/aug-cc-pvtz', properties = ['dipole'])
--------------------------------------------------------------------------

    Molecular point group: c1
  Charge       = 0
  Multiplicity = 1
  Basis Set: AUG-CC-PVTZ
    Blend: AUG-CC-PVTZ
  Basis Set: (AUG-CC-PVTZ AUX)
    Blend: AUG-CC-PVTZ-JKFIT

    Orbital Energies [Eh]
    ---------------------

    Doubly Occupied:

       1A    -20.589710     2A    -11.299849     3A    -11.238605
       4A    -11.237929     5A    -11.234561     6A    -11.232056
       7A    -11.228481     8A    -11.226532     9A    -11.215715
      10A     -1.398822    11A     -1.149614    12A     -1.060928
      13A     -1.015684    14A     -0.974615    15A     -0.864013
      16A     -0.842493    17A     -0.790038    18A     -0.727811
      19A     -0.673245    20A     -0.648385    21A     -0.612343
      22A     -0.596938    23A     -0.587320    24A     -0.584277
      25A     -0.569579    26A     -0.555593    27A     -0.524861
      28A     -0.497974    29A     -0.485710    30A     -0.474828
      31A     -0.466691    32A     -0.340118    33A     -0.304433

  @DF-RHF Final Energy:  -383.76546525357571

   => Energetics <=

    Nuclear Repulsion Energy =            418.1865344501678123
    One-Electron Energy =               -1349.4044977844698678
    Two-Electron Energy =                 547.4524980807264001
    Total Energy =                       -383.7654652535757123
  Basis Set: (AUG-CC-PVTZ AUX)
    Blend: AUG-CC-PVTZ-RI
    Molecular point group: c1

    Geometry (in Angstrom), charge = 0, multiplicity = 1:

       Center              X                  Y                   Z               Mass
    ------------   -----------------  -----------------  -----------------  -----------------
         O           -3.143856412635     0.071711220421     0.317334246555    15.994914619570
         C            1.008586887365    -0.015547879579    -0.364344453445    12.000000000000
         C            2.485142587365    -0.004035779579    -0.539358753445    12.000000000000
         C            0.278465587365    -1.200390779579    -0.243838753445    12.000000000000
         C            0.277728587365     1.196229220421    -0.236495753445    12.000000000000
         C            3.229134587365    -0.004932779579     0.797091246555    12.000000000000
         C           -1.098218412635    -1.205372779579    -0.015396753445    12.000000000000
         C           -1.097201412635     1.207811220421    -0.008810753445    12.000000000000
         C           -1.788677412635     0.002969220421     0.101951246555    12.000000000000
         H            2.781652587365    -0.881216779579    -1.126144753445     1.007825032230
         H            2.781425587365     0.874319220421    -1.124301753445     1.007825032230
         H            0.823573287365    -2.137638179579    -0.338731353445     1.007825032230
         H            0.807084587365     2.142986220421    -0.322493753445     1.007825032230
         H            2.962909587365     0.876741220421     1.386164246555     1.007825032230
         H            4.314758587365    -0.004182779579     0.653715246555     1.007825032230
         H            2.963875587365    -0.888060779579     1.384436246555     1.007825032230
         H           -1.630951412635    -2.152040779579     0.066110246555     1.007825032230
         H           -1.645280412635     2.141388220421     0.079941246555     1.007825032230
         H           -3.496301412635    -0.833328779579     0.367969246555     1.007825032230

  Basis Set: AUG-CC-PVTZ
    Blend: AUG-CC-PVTZ
  Basis Set: (AUG-CC-PVTZ AUX)
    Blend: AUG-CC-PVTZ-JKFIT
	 Reference Energy          =    -383.7654652535757123 [Eh]
	 Singles Energy            =      -0.0000000000000000 [Eh]
	 Same-Spin Energy          =      -0.4129541877353423 [Eh]
	 Opposite-Spin Energy      =      -1.3190925005374747 [Eh]
	 Correlation Energy        =      -1.7320466882728169 [Eh]
	 Total Energy              =    -385.4975119418485292 [Eh]

	 ================> DF-SCS-MP2 Energies <==================
	-----------------------------------------------------------
	 SCS Same-Spin Scale       =       0.3333333333333333 [-]
	 SCS Opposite-Spin Scale   =       1.2000000000000000 [-]
	 SCS Same-Spin Energy      =      -0.1376513959117808 [Eh]
	 SCS Opposite-Spin Energy  =      -1.5829110006449696 [Eh]
	 SCS Correlation Energy    =      -1.7205623965567503 [Eh]
	 SCS Total Energy          =    -385.4860276501324847 [Eh]
	-----------------------------------------------------------

  Dipole Moment: [D]
     X:     0.4866      Y:    -1.2575      Z:    -0.0168     Total:     1.3485

*** Psi4 exiting successfully. Buy a developer a beer!
