                               Psi4 1.3.2 release

  ==> Input File <==

--------------------------------------------------------------------------
#psi4
#
memory 32 gb

molecule  {
0 1
  O       -3.1417080     0.0705380     0.3169670
  C        1.0107513    -0.0167213    -0.3646163
  C        2.4872910    -0.0052090    -0.5397260
  C        0.2806140    -1.2015640    -0.2442060
  C        0.2798770     1.1950560    -0.2368630
  C        3.2312830    -0.0061060     0.7967240
  C       -1.0957770    -1.2309002    -0.0158280
  C       -1.0950530     1.2066380    -0.0091780
  C       -1.7865290     0.0017960     0.1015840
  H        2.7838010    -0.8823900    -1.1265120
  H        2.7835740     0.8731460    -1.1246690
  H        0.8095070    -2.1483250    -0.3363770
  H        0.8092330     2.1418130    -0.3228610
  H        2.9650580     0.8755680     1.3857970
  H        4.3169070    -0.0053560     0.6533480
  H        2.9660240    -0.8892340     1.3840690
  H       -1.6288030    -2.1532140     0.0657430
  H       -1.6431320     2.1402150     0.0795740
  H       -3.4941530    -0.8345020     0.3676020
units angstrom
no_reorient  #important for SAPT in psi4, default
symmetry c1  #important for SAPT in psi4, default
}

set PROPERTIES_ORIGIN ["COM"]
properties('MP2/aug-cc-pvtz', properties = ['dipole'])
--------------------------------------------------------------------------

    Molecular point group: c1
  Charge       = 0
  Multiplicity = 1
  Basis Set: AUG-CC-PVTZ
    Blend: AUG-CC-PVTZ
  Basis Set: (AUG-CC-PVTZ AUX)
    Blend: AUG-CC-PVTZ-JKFIT

    Orbital Energies [Eh]
    ---------------------

    Doubly Occupied:

       1A    -20.590048     2A    -11.302449     3A    -11.239198
       4A    -11.238289     5A    -11.234888     6A    -11.232031
       7A    -11.228059     8A    -11.226391     9A    -11.215450
      10A     -1.398947    11A     -1.148017    12A     -1.059576
      13A     -1.016418    14A     -0.973137    15A     -0.863959
      16A     -0.841623    17A     -0.790555    18A     -0.727865
      19A     -0.672042    20A     -0.650267    21A     -0.613942
      22A     -0.596670    23A     -0.587321    24A     -0.585479
      25A     -0.569506    26A     -0.554689    27A     -0.524855
      28A     -0.497320    29A     -0.486288    30A     -0.474479
      31A     -0.465772    32A     -0.340541    33A     -0.302567

  @DF-RHF Final Energy:  -383.76452677383435

   => Energetics <=

    Nuclear Repulsion Energy =            417.7777021727494002
    One-Electron Energy =               -1348.5871828877286589
    Two-Electron Energy =                 547.0449539411449678
    Total Energy =                       -383.7645267738342909
  Basis Set: (AUG-CC-PVTZ AUX)
    Blend: AUG-CC-PVTZ-RI
    Molecular point group: c1

    Geometry (in Angstrom), charge = 0, multiplicity = 1:

       Center              X                  Y                   Z               Mass
    ------------   -----------------  -----------------  -----------------  -----------------
         O           -3.143752920761     0.074183842838     0.317308690598    15.994914619570
         C            1.008706379239    -0.013075457162    -0.364274609402    12.000000000000
         C            2.485246079239    -0.001563157162    -0.539384309402    12.000000000000
         C            0.278569079239    -1.197918157162    -0.243864309402    12.000000000000
         C            0.277832079239     1.198701842838    -0.236521309402    12.000000000000
         C            3.229238079239    -0.002460157162     0.797065690598    12.000000000000
         C           -1.097821920761    -1.227254357162    -0.015486309402    12.000000000000
         C           -1.097097920761     1.210283842838    -0.008836309402    12.000000000000
         C           -1.788573920761     0.005441842838     0.101925690598    12.000000000000
         H            2.781756079239    -0.878744157162    -1.126170309402     1.007825032230
         H            2.781529079239     0.876791842838    -1.124327309402     1.007825032230
         H            0.807462079239    -2.144679157162    -0.336035309402     1.007825032230
         H            0.807188079239     2.145458842838    -0.322519309402     1.007825032230
         H            2.963013079239     0.879213842838     1.386138690598     1.007825032230
         H            4.314862079239    -0.001710157162     0.653689690598     1.007825032230
         H            2.963979079239    -0.885588157162     1.384410690598     1.007825032230
         H           -1.630847920761    -2.149568157162     0.066084690598     1.007825032230
         H           -1.645176920761     2.143860842838     0.079915690598     1.007825032230
         H           -3.496197920761    -0.830856157162     0.367943690598     1.007825032230

  Basis Set: AUG-CC-PVTZ
    Blend: AUG-CC-PVTZ
  Basis Set: (AUG-CC-PVTZ AUX)
    Blend: AUG-CC-PVTZ-JKFIT
	 Reference Energy          =    -383.7645267738343478 [Eh]
	 Singles Energy            =      -0.0000000000000000 [Eh]
	 Same-Spin Energy          =      -0.4129398373527841 [Eh]
	 Opposite-Spin Energy      =      -1.3192432624104664 [Eh]
	 Correlation Energy        =      -1.7321830997632506 [Eh]
	 Total Energy              =    -385.4967098735975810 [Eh]

	 ================> DF-SCS-MP2 Energies <==================
	-----------------------------------------------------------
	 SCS Same-Spin Scale       =       0.3333333333333333 [-]
	 SCS Opposite-Spin Scale   =       1.2000000000000000 [-]
	 SCS Same-Spin Energy      =      -0.1376466124509280 [Eh]
	 SCS Opposite-Spin Energy  =      -1.5830919148925597 [Eh]
	 SCS Correlation Energy    =      -1.7207385273434879 [Eh]
	 SCS Total Energy          =    -385.4852653011778330 [Eh]
	-----------------------------------------------------------

  Dipole Moment: [D]
     X:     0.4530      Y:    -1.2641      Z:    -0.0126     Total:     1.3429

*** Psi4 exiting successfully. Buy a developer a beer!
