                               Psi4 1.3.2 release

  ==> Input File <==

--------------------------------------------------------------------------
#psi4
#
memory 32 gb

molecule  {
0 1
  O       -3.1422609     0.0585612     0.3169770
  C        0.9902420    -0.0039870    -0.3612050
  C        2.4872910    -0.0052090    -0.5397260
  C        0.2806140    -1.2015640    -0.2442060
  C        0.2798770     1.1950560    -0.2368630
  C        3.2312830    -0.0061060     0.7967240
  C       -1.1065171    -1.2126112    -0.0141464
  C       -1.0950530     1.2066380    -0.0091780
  C       -1.7865290     0.0017960     0.1015840
  H        2.7838010    -0.8823900    -1.1265120
  H        2.7835740     0.8731460    -1.1246690
  H        0.8095070    -2.1483250    -0.3363770
  H        0.8092330     2.1418130    -0.3228610
  H        2.9650580     0.8755680     1.3857970
  H        4.3169070    -0.0053560     0.6533480
  H        2.9660240    -0.8892340     1.3840690
  H       -1.6288030    -2.1532140     0.0657430
  H       -1.6431320     2.1402150     0.0795740
  H       -3.4941530    -0.8345020     0.3676020
units angstrom
no_reorient  #important for SAPT in psi4, default
symmetry c1  #important for SAPT in psi4, default
}

set PROPERTIES_ORIGIN ["COM"]
properties('MP2/aug-cc-pvtz', properties = ['dipole'])
--------------------------------------------------------------------------

    Molecular point group: c1
  Charge       = 0
  Multiplicity = 1
  Basis Set: AUG-CC-PVTZ
    Blend: AUG-CC-PVTZ
  Basis Set: (AUG-CC-PVTZ AUX)
    Blend: AUG-CC-PVTZ-JKFIT

    Orbital Energies [Eh]
    ---------------------

    Doubly Occupied:

       1A    -20.587392     2A    -11.299764     3A    -11.239199
       4A    -11.236887     5A    -11.234430     6A    -11.231093
       7A    -11.228675     8A    -11.227179     9A    -11.215288
      10A     -1.400140    11A     -1.150322    12A     -1.058148
      13A     -1.015880    14A     -0.976081    15A     -0.862093
      16A     -0.843398    17A     -0.792135    18A     -0.730388
      19A     -0.671180    20A     -0.648464    21A     -0.614389
      22A     -0.596113    23A     -0.587839    24A     -0.585870
      25A     -0.570022    26A     -0.553750    27A     -0.523216
      28A     -0.498877    29A     -0.480106    30A     -0.478320
      31A     -0.467503    32A     -0.339484    33A     -0.306309

  @DF-RHF Final Energy:  -383.76719248157360

   => Energetics <=

    Nuclear Repulsion Energy =            418.1963934134178658
    One-Electron Energy =               -1349.4272986177866187
    Two-Electron Energy =                 547.4637127227952078
    Total Energy =                       -383.7671924815736020
  Basis Set: (AUG-CC-PVTZ AUX)
    Blend: AUG-CC-PVTZ-RI
    Molecular point group: c1

    Geometry (in Angstrom), charge = 0, multiplicity = 1:

       Center              X                  Y                   Z               Mass
    ------------   -----------------  -----------------  -----------------  -----------------
         O           -3.141161506542     0.060726687130     0.316816739582    15.994914619570
         C            0.991341393458    -0.001821512870    -0.361365260418    12.000000000000
         C            2.488390393458    -0.003043512870    -0.539886260418    12.000000000000
         C            0.281713393458    -1.199398512870    -0.244366260418    12.000000000000
         C            0.280976393458     1.197221487130    -0.237023260418    12.000000000000
         C            3.232382393458    -0.003940512870     0.796563739582    12.000000000000
         C           -1.105417706542    -1.210445712870    -0.014306660418    12.000000000000
         C           -1.093953606542     1.208803487130    -0.009338260418    12.000000000000
         C           -1.785429606542     0.003961487130     0.101423739582    12.000000000000
         H            2.784900393458    -0.880224512870    -1.126672260418     1.007825032230
         H            2.784673393458     0.875311487130    -1.124829260418     1.007825032230
         H            0.810606393458    -2.146159512870    -0.336537260418     1.007825032230
         H            0.810332393458     2.143978487130    -0.323021260418     1.007825032230
         H            2.966157393458     0.877733487130     1.385636739582     1.007825032230
         H            4.318006393458    -0.003190512870     0.653187739582     1.007825032230
         H            2.967123393458    -0.887068512870     1.383908739582     1.007825032230
         H           -1.627703606542    -2.151048512870     0.065582739582     1.007825032230
         H           -1.642032606542     2.142380487130     0.079413739582     1.007825032230
         H           -3.493053606542    -0.832336512870     0.367441739582     1.007825032230

  Basis Set: AUG-CC-PVTZ
    Blend: AUG-CC-PVTZ
  Basis Set: (AUG-CC-PVTZ AUX)
    Blend: AUG-CC-PVTZ-JKFIT
	 Reference Energy          =    -383.7671924815736020 [Eh]
	 Singles Energy            =      -0.0000000000000000 [Eh]
	 Same-Spin Energy          =      -0.4125334405160450 [Eh]
	 Opposite-Spin Energy      =      -1.3183324383708521 [Eh]
	 Correlation Energy        =      -1.7308658788868971 [Eh]
	 Total Energy              =    -385.4980583604605044 [Eh]

	 ================> DF-SCS-MP2 Energies <==================
	-----------------------------------------------------------
	 SCS Same-Spin Scale       =       0.3333333333333333 [-]
	 SCS Opposite-Spin Scale   =       1.2000000000000000 [-]
	 SCS Same-Spin Energy      =      -0.1375111468386817 [Eh]
	 SCS Opposite-Spin Energy  =      -1.5819989260450225 [Eh]
	 SCS Correlation Energy    =      -1.7195100728837041 [Eh]
	 SCS Total Energy          =    -385.4867025544572812 [Eh]
	-----------------------------------------------------------

  Dipole Moment: [D]
     X:     0.4779      Y:    -1.2596      Z:    -0.0199     Total:     1.3473

*** Psi4 exiting successfully. Buy a developer a beer!
