                               Psi4 1.3.2 release

  ==> Input File <==

--------------------------------------------------------------------------
#psi4
#
memory 32 gb

molecule  {
0 1
  O       -3.1417080     0.0705380     0.3169670
  C        0.9902420    -0.0039870    -0.3612050
  C        2.4872910    -0.0052090    -0.5397260
  C        0.2806140    -1.2015640    -0.2442060
  C        0.2798770     1.1950560    -0.2368630
  C        3.2312830    -0.0061060     0.7967240
  C       -1.0346040    -1.1682366    -0.0258023
  C       -1.0338021     1.1683370    -0.0193952
  C       -1.7865290     0.0017960     0.1015840
  H        2.7838010    -0.8823900    -1.1265120
  H        2.7835740     0.8731460    -1.1246690
  H        0.8095070    -2.1483250    -0.3363770
  H        0.8092330     2.1418130    -0.3228610
  H        2.9650580     0.8755680     1.3857970
  H        4.3169070    -0.0053560     0.6533480
  H        2.9660240    -0.8892340     1.3840690
  H       -1.6288030    -2.1532140     0.0657430
  H       -1.6431320     2.1402150     0.0795740
  H       -3.4941530    -0.8345020     0.3676020
units angstrom
no_reorient  #important for SAPT in psi4, default
symmetry c1  #important for SAPT in psi4, default
}

set PROPERTIES_ORIGIN ["COM"]
properties('MP2/aug-cc-pvtz', properties = ['dipole'])
--------------------------------------------------------------------------

    Molecular point group: c1
  Charge       = 0
  Multiplicity = 1
  Basis Set: AUG-CC-PVTZ
    Blend: AUG-CC-PVTZ
  Basis Set: (AUG-CC-PVTZ AUX)
    Blend: AUG-CC-PVTZ-JKFIT

    Orbital Energies [Eh]
    ---------------------

    Doubly Occupied:

       1A    -20.595562     2A    -11.298699     3A    -11.234801
       4A    -11.230964     5A    -11.228606     6A    -11.227867
       7A    -11.226434     8A    -11.226153     9A    -11.215389
      10A     -1.401228    11A     -1.164245    12A     -1.059173
      13A     -1.028448    14A     -0.976168    15A     -0.866728
      16A     -0.833874    17A     -0.791912    18A     -0.734312
      19A     -0.678580    20A     -0.640471    21A     -0.607903
      22A     -0.592152    23A     -0.590973    24A     -0.582143
      25A     -0.573015    26A     -0.562443    27A     -0.525400
      28A     -0.491298    29A     -0.480423    30A     -0.477763
      31A     -0.462512    32A     -0.354280    33A     -0.302147

  @DF-RHF Final Energy:  -383.75158758105880

   => Energetics <=

    Nuclear Repulsion Energy =            420.4944121772985000
    One-Electron Energy =               -1353.9678700663614563
    Two-Electron Energy =                 549.7218703080042133
    Total Energy =                       -383.7515875810587431
  Basis Set: (AUG-CC-PVTZ AUX)
    Blend: AUG-CC-PVTZ-RI
    Molecular point group: c1

    Geometry (in Angstrom), charge = 0, multiplicity = 1:

       Center              X                  Y                   Z               Mass
    ------------   -----------------  -----------------  -----------------  -----------------
         O           -3.153771299498     0.070537154394     0.318958212834    15.994914619570
         C            0.978178700502    -0.003987845606    -0.359213787166    12.000000000000
         C            2.475227700502    -0.005209845606    -0.537734787166    12.000000000000
         C            0.268550700502    -1.201564845606    -0.242214787166    12.000000000000
         C            0.267813700502     1.195055154394    -0.234871787166    12.000000000000
         C            3.219219700502    -0.006106845606     0.798715212834    12.000000000000
         C           -1.046667299498    -1.168237445606    -0.023811087166    12.000000000000
         C           -1.045865399498     1.168336154394    -0.017403987166    12.000000000000
         C           -1.798592299498     0.001795154394     0.103575212834    12.000000000000
         H            2.771737700502    -0.882390845606    -1.124520787166     1.007825032230
         H            2.771510700502     0.873145154394    -1.122677787166     1.007825032230
         H            0.797443700502    -2.148325845606    -0.334385787166     1.007825032230
         H            0.797169700502     2.141812154394    -0.320869787166     1.007825032230
         H            2.952994700502     0.875567154394     1.387788212834     1.007825032230
         H            4.304843700502    -0.005356845606     0.655339212834     1.007825032230
         H            2.953960700502    -0.889234845606     1.386060212834     1.007825032230
         H           -1.640866299498    -2.153214845606     0.067734212834     1.007825032230
         H           -1.655195299498     2.140214154394     0.081565212834     1.007825032230
         H           -3.506216299498    -0.834502845606     0.369593212834     1.007825032230

  Basis Set: AUG-CC-PVTZ
    Blend: AUG-CC-PVTZ
  Basis Set: (AUG-CC-PVTZ AUX)
    Blend: AUG-CC-PVTZ-JKFIT
	 Reference Energy          =    -383.7515875810588000 [Eh]
	 Singles Energy            =      -0.0000000000000000 [Eh]
	 Same-Spin Energy          =      -0.4134536605959692 [Eh]
	 Opposite-Spin Energy      =      -1.3192560791213799 [Eh]
	 Correlation Energy        =      -1.7327097397173490 [Eh]
	 Total Energy              =    -385.4842973207761361 [Eh]

	 ================> DF-SCS-MP2 Energies <==================
	-----------------------------------------------------------
	 SCS Same-Spin Scale       =       0.3333333333333333 [-]
	 SCS Opposite-Spin Scale   =       1.2000000000000000 [-]
	 SCS Same-Spin Energy      =      -0.1378178868653231 [Eh]
	 SCS Opposite-Spin Energy  =      -1.5831072949456557 [Eh]
	 SCS Correlation Energy    =      -1.7209251818109788 [Eh]
	 SCS Total Energy          =    -385.4725127628697692 [Eh]
	-----------------------------------------------------------

  Dipole Moment: [D]
     X:     0.4350      Y:    -1.2761      Z:    -0.0168     Total:     1.3484

*** Psi4 exiting successfully. Buy a developer a beer!
