                               Psi4 1.3.2 release

  ==> Input File <==

--------------------------------------------------------------------------
#psi4
#
memory 32 gb

molecule  {
0 1
  O       -3.1417080     0.0705380     0.3169670
  C        0.9902420    -0.0039870    -0.3612050
  C        2.4872910    -0.0052090    -0.5397260
  C        0.2806140    -1.2015640    -0.2442060
  C        0.2798770     1.1950560    -0.2368630
  C        3.2312830    -0.0061060     0.7967240
  C       -1.0960700    -1.2065460    -0.0157640
  C       -1.0950530     1.2066380    -0.0091780
  C       -1.7865290     0.0017960     0.1015840
  H        2.7838010    -0.8823900    -1.1265120
  H        2.7835740     0.8731460    -1.1246690
  H        0.8095070    -2.1483250    -0.3363770
  H        0.8092330     2.1418130    -0.3228610
  H        2.9650580     0.8755680     1.3857970
  H        4.3169070    -0.0053560     0.6533480
  H        2.9660240    -0.8892340     1.3840690
  H       -1.6288030    -2.1532140     0.0657430
  H       -1.6431320     2.1402150     0.0795740
  H       -3.4579142    -0.7414448     0.3623957
units angstrom
no_reorient  #important for SAPT in psi4, default
symmetry c1  #important for SAPT in psi4, default
}

set PROPERTIES_ORIGIN ["COM"]
properties('MP2/aug-cc-pvtz', properties = ['dipole'])
--------------------------------------------------------------------------

    Molecular point group: c1
  Charge       = 0
  Multiplicity = 1
  Basis Set: AUG-CC-PVTZ
    Blend: AUG-CC-PVTZ
  Basis Set: (AUG-CC-PVTZ AUX)
    Blend: AUG-CC-PVTZ-JKFIT

    Orbital Energies [Eh]
    ---------------------

    Doubly Occupied:

       1A    -20.580120     2A    -11.300186     3A    -11.238676
       4A    -11.236703     5A    -11.235561     6A    -11.231688
       7A    -11.228765     8A    -11.227489     9A    -11.215608
      10A     -1.423620    11A     -1.152910    12A     -1.060189
      13A     -1.017420    14A     -0.979035    15A     -0.866873
      16A     -0.844280    17A     -0.796581    18A     -0.742434
      19A     -0.674064    20A     -0.647794    21A     -0.616623
      22A     -0.597301    23A     -0.590442    24A     -0.587030
      25A     -0.571405    26A     -0.558628    27A     -0.523942
      28A     -0.499262    29A     -0.480501    30A     -0.478560
      31A     -0.469494    32A     -0.340949    33A     -0.307097

  @DF-RHF Final Energy:  -383.76178213971343

   => Energetics <=

    Nuclear Repulsion Energy =            418.9665234161649892
    One-Electron Energy =               -1350.8141517065992048
    Two-Electron Energy =                 548.0858461507207267
    Total Energy =                       -383.7617821397134321
  Basis Set: (AUG-CC-PVTZ AUX)
    Blend: AUG-CC-PVTZ-RI
    Molecular point group: c1

    Geometry (in Angstrom), charge = 0, multiplicity = 1:

       Center              X                  Y                   Z               Mass
    ------------   -----------------  -----------------  -----------------  -----------------
         O           -3.142007203508     0.069769708284     0.317010045432    15.994914619570
         C            0.989942796492    -0.004755291716    -0.361161954568    12.000000000000
         C            2.486991796492    -0.005977291716    -0.539682954568    12.000000000000
         C            0.280314796492    -1.202332291716    -0.244162954568    12.000000000000
         C            0.279577796492     1.194287708284    -0.236819954568    12.000000000000
         C            3.230983796492    -0.006874291716     0.796767045432    12.000000000000
         C           -1.096369203508    -1.207314291716    -0.015720954568    12.000000000000
         C           -1.095352203508     1.205869708284    -0.009134954568    12.000000000000
         C           -1.786828203508     0.001027708284     0.101627045432    12.000000000000
         H            2.783501796492    -0.883158291716    -1.126468954568     1.007825032230
         H            2.783274796492     0.872377708284    -1.124625954568     1.007825032230
         H            0.809207796492    -2.149093291716    -0.336333954568     1.007825032230
         H            0.808933796492     2.141044708284    -0.322817954568     1.007825032230
         H            2.964758796492     0.874799708284     1.385840045432     1.007825032230
         H            4.316607796492    -0.006124291716     0.653391045432     1.007825032230
         H            2.965724796492    -0.890002291716     1.384112045432     1.007825032230
         H           -1.629102203508    -2.153982291716     0.065786045432     1.007825032230
         H           -1.643431203508     2.139446708284     0.079617045432     1.007825032230
         H           -3.458213403508    -0.742213091716     0.362438745432     1.007825032230

  Basis Set: AUG-CC-PVTZ
    Blend: AUG-CC-PVTZ
  Basis Set: (AUG-CC-PVTZ AUX)
    Blend: AUG-CC-PVTZ-JKFIT
	 Reference Energy          =    -383.7617821397134321 [Eh]
	 Singles Energy            =      -0.0000000000000000 [Eh]
	 Same-Spin Energy          =      -0.4114866665802217 [Eh]
	 Opposite-Spin Energy      =      -1.3157341364901558 [Eh]
	 Correlation Energy        =      -1.7272208030703775 [Eh]
	 Total Energy              =    -385.4890029427838272 [Eh]

	 ================> DF-SCS-MP2 Energies <==================
	-----------------------------------------------------------
	 SCS Same-Spin Scale       =       0.3333333333333333 [-]
	 SCS Opposite-Spin Scale   =       1.2000000000000000 [-]
	 SCS Same-Spin Energy      =      -0.1371622221934072 [Eh]
	 SCS Opposite-Spin Energy  =      -1.5788809637881869 [Eh]
	 SCS Correlation Energy    =      -1.7160431859815941 [Eh]
	 SCS Total Energy          =    -385.4778253256950507 [Eh]
	-----------------------------------------------------------

  Dipole Moment: [D]
     X:     0.5537      Y:    -1.1962      Z:    -0.0306     Total:     1.3185

*** Psi4 exiting successfully. Buy a developer a beer!
