                               Psi4 1.3.2 release

  ==> Input File <==

--------------------------------------------------------------------------
#psi4
#
memory 32 gb

molecule  {
0 1
  O       -3.1417080     0.0705380     0.3169670
  C        0.9695325     0.0083824    -0.3576627
  C        2.4872910    -0.0052090    -0.5397260
  C        0.2806140    -1.2015640    -0.2442060
  C        0.2798770     1.1950560    -0.2368630
  C        3.2312830    -0.0061060     0.7967240
  C       -1.0960700    -1.2065460    -0.0157640
  C       -1.0950530     1.2066380    -0.0091780
  C       -1.7865290     0.0017960     0.1015840
  H        2.7838010    -0.8823900    -1.1265120
  H        2.7835740     0.8731460    -1.1246690
  H        0.7931311    -2.1575502    -0.3336273
  H        0.8092330     2.1418130    -0.3228610
  H        2.9650580     0.8755680     1.3857970
  H        4.3169070    -0.0053560     0.6533480
  H        2.9660240    -0.8892340     1.3840690
  H       -1.6288030    -2.1532140     0.0657430
  H       -1.6431320     2.1402150     0.0795740
  H       -3.4941530    -0.8345020     0.3676020
units angstrom
no_reorient  #important for SAPT in psi4, default
symmetry c1  #important for SAPT in psi4, default
}

set PROPERTIES_ORIGIN ["COM"]
properties('MP2/aug-cc-pvtz', properties = ['dipole'])
--------------------------------------------------------------------------

    Molecular point group: c1
  Charge       = 0
  Multiplicity = 1
  Basis Set: AUG-CC-PVTZ
    Blend: AUG-CC-PVTZ
  Basis Set: (AUG-CC-PVTZ AUX)
    Blend: AUG-CC-PVTZ-JKFIT

    Orbital Energies [Eh]
    ---------------------

    Doubly Occupied:

       1A    -20.589067     2A    -11.298823     3A    -11.238394
       4A    -11.234798     5A    -11.233965     6A    -11.229825
       7A    -11.227806     8A    -11.227542     9A    -11.214796
      10A     -1.398278    11A     -1.152811    12A     -1.055220
      13A     -1.017882    14A     -0.976656    15A     -0.859465
      16A     -0.843108    17A     -0.792662    18A     -0.729255
      19A     -0.671185    20A     -0.645278    21A     -0.613639
      22A     -0.595386    23A     -0.589286    24A     -0.586358
      25A     -0.569401    26A     -0.555011    27A     -0.522014
      28A     -0.498547    29A     -0.480471    30A     -0.473849
      31A     -0.469757    32A     -0.341017    33A     -0.307150

  @DF-RHF Final Energy:  -383.76635908480250

   => Energetics <=

    Nuclear Repulsion Energy =            418.4721634174758833
    One-Electron Energy =               -1349.9996408287338454
    Two-Electron Energy =                 547.7611183264554029
    Total Energy =                       -383.7663590848025024
  Basis Set: (AUG-CC-PVTZ AUX)
    Blend: AUG-CC-PVTZ-RI
    Molecular point group: c1

    Geometry (in Angstrom), charge = 0, multiplicity = 1:

       Center              X                  Y                   Z               Mass
    ------------   -----------------  -----------------  -----------------  -----------------
         O           -3.139537042176     0.069398209462     0.316596147292    15.994914619570
         C            0.971703457824     0.007242609462    -0.358033552708    12.000000000000
         C            2.489461957824    -0.006348790538    -0.540096852708    12.000000000000
         C            0.282784957824    -1.202703790538    -0.244576852708    12.000000000000
         C            0.282047957824     1.193916209462    -0.237233852708    12.000000000000
         C            3.233453957824    -0.007245790538     0.796353147292    12.000000000000
         C           -1.093899042176    -1.207685790538    -0.016134852708    12.000000000000
         C           -1.092882042176     1.205498209462    -0.009548852708    12.000000000000
         C           -1.784358042176     0.000656209462     0.101213147292    12.000000000000
         H            2.785971957824    -0.883529790538    -1.126882852708     1.007825032230
         H            2.785744957824     0.872006209462    -1.125039852708     1.007825032230
         H            0.795302057824    -2.158689990538    -0.333998152708     1.007825032230
         H            0.811403957824     2.140673209462    -0.323231852708     1.007825032230
         H            2.967228957824     0.874428209462     1.385426147292     1.007825032230
         H            4.319077957824    -0.006495790538     0.652977147292     1.007825032230
         H            2.968194957824    -0.890373790538     1.383698147292     1.007825032230
         H           -1.626632042176    -2.154353790538     0.065372147292     1.007825032230
         H           -1.640961042176     2.139075209462     0.079203147292     1.007825032230
         H           -3.491982042176    -0.835641790538     0.367231147292     1.007825032230

  Basis Set: AUG-CC-PVTZ
    Blend: AUG-CC-PVTZ
  Basis Set: (AUG-CC-PVTZ AUX)
    Blend: AUG-CC-PVTZ-JKFIT
	 Reference Energy          =    -383.7663590848025024 [Eh]
	 Singles Energy            =      -0.0000000000000000 [Eh]
	 Same-Spin Energy          =      -0.4125865304424918 [Eh]
	 Opposite-Spin Energy      =      -1.3184856686650586 [Eh]
	 Correlation Energy        =      -1.7310721991075504 [Eh]
	 Total Energy              =    -385.4974312839100321 [Eh]

	 ================> DF-SCS-MP2 Energies <==================
	-----------------------------------------------------------
	 SCS Same-Spin Scale       =       0.3333333333333333 [-]
	 SCS Opposite-Spin Scale   =       1.2000000000000000 [-]
	 SCS Same-Spin Energy      =      -0.1375288434808306 [Eh]
	 SCS Opposite-Spin Energy  =      -1.5821828023980702 [Eh]
	 SCS Correlation Energy    =      -1.7197116458789008 [Eh]
	 SCS Total Energy          =    -385.4860707306813765 [Eh]
	-----------------------------------------------------------

  Dipole Moment: [D]
     X:     0.4422      Y:    -1.2867      Z:    -0.0198     Total:     1.3608

*** Psi4 exiting successfully. Buy a developer a beer!
