                               Psi4 1.3.2 release

  ==> Input File <==

--------------------------------------------------------------------------
#psi4
#
memory 32 gb

molecule  {
0 1
  O       -3.1384649     0.1183838     0.3167630
  C        0.9902420    -0.0039870    -0.3612050
  C        2.4872910    -0.0052090    -0.5397260
  C        0.2806140    -1.2015640    -0.2442060
  C        0.2798770     1.1950560    -0.2368630
  C        3.2312830    -0.0061060     0.7967240
  C       -1.0548153    -1.1813697    -0.0221439
  C       -1.0950530     1.2066380    -0.0091780
  C       -1.7865290     0.0017960     0.1015840
  H        2.7838010    -0.8823900    -1.1265120
  H        2.7835740     0.8731460    -1.1246690
  H        0.8095070    -2.1483250    -0.3363770
  H        0.8092330     2.1418130    -0.3228610
  H        2.9650580     0.8755680     1.3857970
  H        4.3169070    -0.0053560     0.6533480
  H        2.9660240    -0.8892340     1.3840690
  H       -1.6288030    -2.1532140     0.0657430
  H       -1.6431320     2.1402150     0.0795740
  H       -3.4941530    -0.8345020     0.3676020
units angstrom
no_reorient  #important for SAPT in psi4, default
symmetry c1  #important for SAPT in psi4, default
}

set PROPERTIES_ORIGIN ["COM"]
properties('MP2/aug-cc-pvtz', properties = ['dipole'])
--------------------------------------------------------------------------

    Molecular point group: c1
  Charge       = 0
  Multiplicity = 1
  Basis Set: AUG-CC-PVTZ
    Blend: AUG-CC-PVTZ
  Basis Set: (AUG-CC-PVTZ AUX)
    Blend: AUG-CC-PVTZ-JKFIT

    Orbital Energies [Eh]
    ---------------------

    Doubly Occupied:

       1A    -20.596994     2A    -11.297992     3A    -11.236300
       4A    -11.234169     5A    -11.233388     6A    -11.230370
       7A    -11.226652     8A    -11.226184     9A    -11.215123
      10A     -1.392847    11A     -1.154837    12A     -1.057639
      13A     -1.020253    14A     -0.974163    15A     -0.860862
      16A     -0.840074    17A     -0.789409    18A     -0.721065
      19A     -0.676231    20A     -0.641080    21A     -0.607987
      22A     -0.596222    23A     -0.588330    24A     -0.583297
      25A     -0.567322    26A     -0.561531    27A     -0.523952
      28A     -0.495125    29A     -0.480322    30A     -0.474042
      31A     -0.471366    32A     -0.344496    33A     -0.304147

  @DF-RHF Final Energy:  -383.75769719957327

   => Energetics <=

    Nuclear Repulsion Energy =            418.8875946422484162
    One-Electron Energy =               -1350.8430402743517789
    Two-Electron Energy =                 548.1977484325301475
    Total Energy =                       -383.7576971995732720
  Basis Set: (AUG-CC-PVTZ AUX)
    Blend: AUG-CC-PVTZ-RI
    Molecular point group: c1

    Geometry (in Angstrom), charge = 0, multiplicity = 1:

       Center              X                  Y                   Z               Mass
    ------------   -----------------  -----------------  -----------------  -----------------
         O           -3.142945261079     0.109639801987     0.317416947289    15.994914619570
         C            0.985761638921    -0.012730998013    -0.360551052711    12.000000000000
         C            2.482810638921    -0.013952998013    -0.539072052711    12.000000000000
         C            0.276133638921    -1.210307998013    -0.243552052711    12.000000000000
         C            0.275396638921     1.186312001987    -0.236209052711    12.000000000000
         C            3.226802638921    -0.014849998013     0.797377947289    12.000000000000
         C           -1.059295661079    -1.190113698013    -0.021489952711    12.000000000000
         C           -1.099533361079     1.197894001987    -0.008524052711    12.000000000000
         C           -1.791009361079    -0.006947998013     0.102237947289    12.000000000000
         H            2.779320638921    -0.891133998013    -1.125858052711     1.007825032230
         H            2.779093638921     0.864402001987    -1.124015052711     1.007825032230
         H            0.805026638921    -2.157068998013    -0.335723052711     1.007825032230
         H            0.804752638921     2.133069001987    -0.322207052711     1.007825032230
         H            2.960577638921     0.866824001987     1.386450947289     1.007825032230
         H            4.312426638921    -0.014099998013     0.654001947289     1.007825032230
         H            2.961543638921    -0.897977998013     1.384722947289     1.007825032230
         H           -1.633283361079    -2.161957998013     0.066396947289     1.007825032230
         H           -1.647612361079     2.131471001987     0.080227947289     1.007825032230
         H           -3.498633361079    -0.843245998013     0.368255947289     1.007825032230

  Basis Set: AUG-CC-PVTZ
    Blend: AUG-CC-PVTZ
  Basis Set: (AUG-CC-PVTZ AUX)
    Blend: AUG-CC-PVTZ-JKFIT
	 Reference Energy          =    -383.7576971995732720 [Eh]
	 Singles Energy            =      -0.0000000000000000 [Eh]
	 Same-Spin Energy          =      -0.4137266596102445 [Eh]
	 Opposite-Spin Energy      =      -1.3207147985570833 [Eh]
	 Correlation Energy        =      -1.7344414581673278 [Eh]
	 Total Energy              =    -385.4921386577406111 [Eh]

	 ================> DF-SCS-MP2 Energies <==================
	-----------------------------------------------------------
	 SCS Same-Spin Scale       =       0.3333333333333333 [-]
	 SCS Opposite-Spin Scale   =       1.2000000000000000 [-]
	 SCS Same-Spin Energy      =      -0.1379088865367482 [Eh]
	 SCS Opposite-Spin Energy  =      -1.5848577582684999 [Eh]
	 SCS Correlation Energy    =      -1.7227666448052481 [Eh]
	 SCS Total Energy          =    -385.4804638443785052 [Eh]
	-----------------------------------------------------------

  Dipole Moment: [D]
     X:     0.4187      Y:    -1.3121      Z:    -0.0136     Total:     1.3773

*** Psi4 exiting successfully. Buy a developer a beer!
