                               Psi4 1.3.2 release

  ==> Input File <==

--------------------------------------------------------------------------
#psi4
#
memory 32 gb

molecule  {
0 1
  O       -3.1417080     0.0705380     0.3169670
  C        1.0510485    -0.0432682    -0.3716139
  C        2.4872910    -0.0052090    -0.5397260
  C        0.2806140    -1.2015640    -0.2442060
  C        0.2798770     1.1950560    -0.2368630
  C        3.2312830    -0.0061060     0.7967240
  C       -1.0960700    -1.2065460    -0.0157640
  C       -1.0950530     1.2066380    -0.0091780
  C       -1.7865290     0.0017960     0.1015840
  H        2.7838010    -0.8823900    -1.1265120
  H        2.7835740     0.8731460    -1.1246690
  H        0.8576482    -2.1189306    -0.3444543
  H        0.8092330     2.1418130    -0.3228610
  H        2.9650580     0.8755680     1.3857970
  H        4.3169070    -0.0053560     0.6533480
  H        2.9660240    -0.8892340     1.3840690
  H       -1.6288030    -2.1532140     0.0657430
  H       -1.6431320     2.1402150     0.0795740
  H       -3.4941530    -0.8345020     0.3676020
units angstrom
no_reorient  #important for SAPT in psi4, default
symmetry c1  #important for SAPT in psi4, default
}

set PROPERTIES_ORIGIN ["COM"]
properties('MP2/aug-cc-pvtz', properties = ['dipole'])
--------------------------------------------------------------------------

    Molecular point group: c1
  Charge       = 0
  Multiplicity = 1
  Basis Set: AUG-CC-PVTZ
    Blend: AUG-CC-PVTZ
  Basis Set: (AUG-CC-PVTZ AUX)
    Blend: AUG-CC-PVTZ-JKFIT

    Orbital Energies [Eh]
    ---------------------

    Doubly Occupied:

       1A    -20.590362     2A    -11.300864     3A    -11.242844
       4A    -11.237676     5A    -11.234466     6A    -11.234227
       7A    -11.229107     8A    -11.225412     9A    -11.216741
      10A     -1.399370    11A     -1.147317    12A     -1.067119
      13A     -1.014042    14A     -0.972468    15A     -0.868780
      16A     -0.842295    17A     -0.786885    18A     -0.726545
      19A     -0.675476    20A     -0.651847    21A     -0.611231
      22A     -0.598652    23A     -0.587306    24A     -0.581425
      25A     -0.569658    26A     -0.555549    27A     -0.528473
      28A     -0.498623    29A     -0.495554    30A     -0.466382
      31A     -0.463872    32A     -0.339849    33A     -0.301315

  @DF-RHF Final Energy:  -383.75797685983480

   => Energetics <=

    Nuclear Repulsion Energy =            417.9445649972452657
    One-Electron Energy =               -1348.8816195794631767
    Two-Electron Energy =                 547.1790777223831128
    Total Energy =                       -383.7579768598347982
  Basis Set: (AUG-CC-PVTZ AUX)
    Blend: AUG-CC-PVTZ-RI
    Molecular point group: c1

    Geometry (in Angstrom), charge = 0, multiplicity = 1:

       Center              X                  Y                   Z               Mass
    ------------   -----------------  -----------------  -----------------  -----------------
         O           -3.148082851149     0.074156711469     0.318056960745    15.994914619570
         C            1.044673648851    -0.039649488531    -0.370523939255    12.000000000000
         C            2.480916148851    -0.001590288531    -0.538636039255    12.000000000000
         C            0.274239148851    -1.197945288531    -0.243116039255    12.000000000000
         C            0.273502148851     1.198674711469    -0.235773039255    12.000000000000
         C            3.224908148851    -0.002487288531     0.797813960745    12.000000000000
         C           -1.102444851149    -1.202927288531    -0.014674039255    12.000000000000
         C           -1.101427851149     1.210256711469    -0.008088039255    12.000000000000
         C           -1.792903851149     0.005414711469     0.102673960745    12.000000000000
         H            2.777426148851    -0.878771288531    -1.125422039255     1.007825032230
         H            2.777199148851     0.876764711469    -1.123579039255     1.007825032230
         H            0.851273348851    -2.115311888531    -0.343364339255     1.007825032230
         H            0.802858148851     2.145431711469    -0.321771039255     1.007825032230
         H            2.958683148851     0.879186711469     1.386886960745     1.007825032230
         H            4.310532148851    -0.001737288531     0.654437960745     1.007825032230
         H            2.959649148851    -0.885615288531     1.385158960745     1.007825032230
         H           -1.635177851149    -2.149595288531     0.066832960745     1.007825032230
         H           -1.649506851149     2.143833711469     0.080663960745     1.007825032230
         H           -3.500527851149    -0.830883288531     0.368691960745     1.007825032230

  Basis Set: AUG-CC-PVTZ
    Blend: AUG-CC-PVTZ
  Basis Set: (AUG-CC-PVTZ AUX)
    Blend: AUG-CC-PVTZ-JKFIT
	 Reference Energy          =    -383.7579768598347982 [Eh]
	 Singles Energy            =      -0.0000000000000000 [Eh]
	 Same-Spin Energy          =      -0.4135004312037280 [Eh]
	 Opposite-Spin Energy      =      -1.3201437386110402 [Eh]
	 Correlation Energy        =      -1.7336441698147682 [Eh]
	 Total Energy              =    -385.4916210296495933 [Eh]

	 ================> DF-SCS-MP2 Energies <==================
	-----------------------------------------------------------
	 SCS Same-Spin Scale       =       0.3333333333333333 [-]
	 SCS Opposite-Spin Scale   =       1.2000000000000000 [-]
	 SCS Same-Spin Energy      =      -0.1378334770679093 [Eh]
	 SCS Opposite-Spin Energy  =      -1.5841724863332483 [Eh]
	 SCS Correlation Energy    =      -1.7220059634011575 [Eh]
	 SCS Total Energy          =    -385.4799828232359573 [Eh]
	-----------------------------------------------------------

  Dipole Moment: [D]
     X:     0.5338      Y:    -1.2263      Z:    -0.0130     Total:     1.3375

*** Psi4 exiting successfully. Buy a developer a beer!
