                               Psi4 1.3.2 release

  ==> Input File <==

--------------------------------------------------------------------------
#psi4
#
memory 32 gb

molecule  {
0 1
  O       -3.1417080     0.0705380     0.3169670
  C        0.9902420    -0.0039870    -0.3612050
  C        2.4848692    -0.0840694    -0.5420451
  C        0.2806140    -1.2015640    -0.2442060
  C        0.2183587     1.1557465    -0.2308286
  C        3.2312830    -0.0061060     0.7967240
  C       -1.0960700    -1.2065460    -0.0157640
  C       -1.0950530     1.2066380    -0.0091780
  C       -1.7865290     0.0017960     0.1015840
  H        2.7838010    -0.8823900    -1.1265120
  H        2.7835740     0.8731460    -1.1246690
  H        0.8095070    -2.1483250    -0.3363770
  H        0.8092330     2.1418130    -0.3228610
  H        2.9650580     0.8755680     1.3857970
  H        4.3169070    -0.0053560     0.6533480
  H        2.9660240    -0.8892340     1.3840690
  H       -1.6288030    -2.1532140     0.0657430
  H       -1.6431320     2.1402150     0.0795740
  H       -3.4941530    -0.8345020     0.3676020
units angstrom
no_reorient  #important for SAPT in psi4, default
symmetry c1  #important for SAPT in psi4, default
}

set PROPERTIES_ORIGIN ["COM"]
properties('MP2/aug-cc-pvtz', properties = ['dipole'])
--------------------------------------------------------------------------

    Molecular point group: c1
  Charge       = 0
  Multiplicity = 1
  Basis Set: AUG-CC-PVTZ
    Blend: AUG-CC-PVTZ
  Basis Set: (AUG-CC-PVTZ AUX)
    Blend: AUG-CC-PVTZ-JKFIT

    Orbital Energies [Eh]
    ---------------------

    Doubly Occupied:

       1A    -20.590125     2A    -11.300214     3A    -11.236600
       4A    -11.236288     5A    -11.231755     6A    -11.230465
       7A    -11.229542     8A    -11.222896     9A    -11.216255
      10A     -1.399250    11A     -1.157321    12A     -1.060148
      13A     -1.021851    14A     -0.975347    15A     -0.864667
      16A     -0.837025    17A     -0.799061    18A     -0.724908
      19A     -0.671491    20A     -0.652805    21A     -0.610233
      22A     -0.593759    23A     -0.588455    24A     -0.580403
      25A     -0.576823    26A     -0.555211    27A     -0.526507
      28A     -0.497900    29A     -0.484051    30A     -0.472443
      31A     -0.460336    32A     -0.347625    33A     -0.304033

  @DF-RHF Final Energy:  -383.75253803718294

   => Energetics <=

    Nuclear Repulsion Energy =            419.2834536690755272
    One-Electron Energy =               -1351.5603957133816948
    Two-Electron Energy =                 548.5244040071232803
    Total Energy =                       -383.7525380371829442
  Basis Set: (AUG-CC-PVTZ AUX)
    Blend: AUG-CC-PVTZ-RI
    Molecular point group: c1

    Geometry (in Angstrom), charge = 0, multiplicity = 1:

       Center              X                  Y                   Z               Mass
    ------------   -----------------  -----------------  -----------------  -----------------
         O           -3.135422598528     0.082154282537     0.316601842372    15.994914619570
         C            0.996527401472     0.007629282537    -0.361570157628    12.000000000000
         C            2.491154601472    -0.072453117463    -0.542410257628    12.000000000000
         C            0.286899401472    -1.189947717463    -0.244571157628    12.000000000000
         C            0.224644101472     1.167362782537    -0.231193757628    12.000000000000
         C            3.237568401472     0.005510282537     0.796358842372    12.000000000000
         C           -1.089784598528    -1.194929717463    -0.016129157628    12.000000000000
         C           -1.088767598528     1.218254282537    -0.009543157628    12.000000000000
         C           -1.780243598528     0.013412282537     0.101218842372    12.000000000000
         H            2.790086401472    -0.870773717463    -1.126877157628     1.007825032230
         H            2.789859401472     0.884762282537    -1.125034157628     1.007825032230
         H            0.815792401472    -2.136708717463    -0.336742157628     1.007825032230
         H            0.815518401472     2.153429282537    -0.323226157628     1.007825032230
         H            2.971343401472     0.887184282537     1.385431842372     1.007825032230
         H            4.323192401472     0.006260282537     0.652982842372     1.007825032230
         H            2.972309401472    -0.877617717463     1.383703842372     1.007825032230
         H           -1.622517598528    -2.141597717463     0.065377842372     1.007825032230
         H           -1.636846598528     2.151831282537     0.079208842372     1.007825032230
         H           -3.487867598528    -0.822885717463     0.367236842372     1.007825032230

  Basis Set: AUG-CC-PVTZ
    Blend: AUG-CC-PVTZ
  Basis Set: (AUG-CC-PVTZ AUX)
    Blend: AUG-CC-PVTZ-JKFIT
	 Reference Energy          =    -383.7525380371829442 [Eh]
	 Singles Energy            =      -0.0000000000000000 [Eh]
	 Same-Spin Energy          =      -0.4129497926701783 [Eh]
	 Opposite-Spin Energy      =      -1.3191284570425894 [Eh]
	 Correlation Energy        =      -1.7320782497127678 [Eh]
	 Total Energy              =    -385.4846162868956867 [Eh]

	 ================> DF-SCS-MP2 Energies <==================
	-----------------------------------------------------------
	 SCS Same-Spin Scale       =       0.3333333333333333 [-]
	 SCS Opposite-Spin Scale   =       1.2000000000000000 [-]
	 SCS Same-Spin Energy      =      -0.1376499308900594 [Eh]
	 SCS Opposite-Spin Energy  =      -1.5829541484511072 [Eh]
	 SCS Correlation Energy    =      -1.7206040793411665 [Eh]
	 SCS Total Energy          =    -385.4731421165241159 [Eh]
	-----------------------------------------------------------

  Dipole Moment: [D]
     X:     0.4350      Y:    -1.3302      Z:     0.0028     Total:     1.3996

*** Psi4 exiting successfully. Buy a developer a beer!
