                               Psi4 1.3.2 release

  ==> Input File <==

--------------------------------------------------------------------------
#psi4
#
memory 32 gb

molecule  {
0 1
  O       -3.1417080     0.0705380     0.3169670
  C        0.9902420    -0.0039870    -0.3612050
  C        2.4872910    -0.0052090    -0.5397260
  C        0.2806140    -1.2015640    -0.2442060
  C        0.2798770     1.1950560    -0.2368630
  C        3.2312830    -0.0061060     0.7967240
  C       -1.0960700    -1.2065460    -0.0157640
  C       -1.0950530     1.2066380    -0.0091780
  C       -1.7855289     0.0257541     0.1015650
  H        2.7838010    -0.8823900    -1.1265120
  H        2.7835740     0.8731460    -1.1246690
  H        0.8095070    -2.1483250    -0.3363770
  H        0.8092330     2.1418130    -0.3228610
  H        2.9650580     0.8755680     1.3857970
  H        4.3169070    -0.0053560     0.6533480
  H        2.9660240    -0.8892340     1.3840690
  H       -1.6288030    -2.1532140     0.0657430
  H       -1.6431320     2.1402150     0.0795740
  H       -3.5096940    -0.8281508     0.3701044
units angstrom
no_reorient  #important for SAPT in psi4, default
symmetry c1  #important for SAPT in psi4, default
}

set PROPERTIES_ORIGIN ["COM"]
properties('MP2/aug-cc-pvtz', properties = ['dipole'])
--------------------------------------------------------------------------

    Molecular point group: c1
  Charge       = 0
  Multiplicity = 1
  Basis Set: AUG-CC-PVTZ
    Blend: AUG-CC-PVTZ
  Basis Set: (AUG-CC-PVTZ AUX)
    Blend: AUG-CC-PVTZ-JKFIT

    Orbital Energies [Eh]
    ---------------------

    Doubly Occupied:

       1A    -20.588003     2A    -11.299347     3A    -11.238282
       4A    -11.236550     5A    -11.236413     6A    -11.230828
       7A    -11.227018     8A    -11.225554     9A    -11.215207
      10A     -1.396783    11A     -1.151201    12A     -1.058296
      13A     -1.016825    14A     -0.975684    15A     -0.862846
      16A     -0.841051    17A     -0.791546    18A     -0.730265
      19A     -0.670362    20A     -0.647978    21A     -0.613772
      22A     -0.596341    23A     -0.587687    24A     -0.584624
      25A     -0.570307    26A     -0.552693    27A     -0.523307
      28A     -0.497500    29A     -0.480206    30A     -0.477238
      31A     -0.468023    32A     -0.340548    33A     -0.305789

  @DF-RHF Final Energy:  -383.76608434821617

   => Energetics <=

    Nuclear Repulsion Energy =            418.3065764712762302
    One-Electron Energy =               -1349.6691770783179436
    Two-Electron Energy =                 547.5965162588255453
    Total Energy =                       -383.7660843482161681
  Basis Set: (AUG-CC-PVTZ AUX)
    Blend: AUG-CC-PVTZ-RI
    Molecular point group: c1

    Geometry (in Angstrom), charge = 0, multiplicity = 1:

       Center              X                  Y                   Z               Mass
    ------------   -----------------  -----------------  -----------------  -----------------
         O           -3.141678025686     0.068130423164     0.316948270833    15.994914619570
         C            0.990271974314    -0.006394576836    -0.361223729167    12.000000000000
         C            2.487320974314    -0.007616576836    -0.539744729167    12.000000000000
         C            0.280643974314    -1.203971576836    -0.244224729167    12.000000000000
         C            0.279906974314     1.192648423164    -0.236881729167    12.000000000000
         C            3.231312974314    -0.008513576836     0.796705270833    12.000000000000
         C           -1.096040025686    -1.208953576836    -0.015782729167    12.000000000000
         C           -1.095023025686     1.204230423164    -0.009196729167    12.000000000000
         C           -1.785498925686     0.023346523164     0.101546270833    12.000000000000
         H            2.783830974314    -0.884797576836    -1.126530729167     1.007825032230
         H            2.783603974314     0.870738423164    -1.124687729167     1.007825032230
         H            0.809536974314    -2.150732576836    -0.336395729167     1.007825032230
         H            0.809262974314     2.139405423164    -0.322879729167     1.007825032230
         H            2.965087974314     0.873160423164     1.385778270833     1.007825032230
         H            4.316936974314    -0.007763576836     0.653329270833     1.007825032230
         H            2.966053974314    -0.891641576836     1.384050270833     1.007825032230
         H           -1.628773025686    -2.155621576836     0.065724270833     1.007825032230
         H           -1.643102025686     2.137807423164     0.079555270833     1.007825032230
         H           -3.509664025686    -0.830558376836     0.370085670833     1.007825032230

  Basis Set: AUG-CC-PVTZ
    Blend: AUG-CC-PVTZ
  Basis Set: (AUG-CC-PVTZ AUX)
    Blend: AUG-CC-PVTZ-JKFIT
	 Reference Energy          =    -383.7660843482161681 [Eh]
	 Singles Energy            =      -0.0000000000000000 [Eh]
	 Same-Spin Energy          =      -0.4126630594251430 [Eh]
	 Opposite-Spin Energy      =      -1.3185689090707535 [Eh]
	 Correlation Energy        =      -1.7312319684958966 [Eh]
	 Total Energy              =    -385.4973163167120447 [Eh]

	 ================> DF-SCS-MP2 Energies <==================
	-----------------------------------------------------------
	 SCS Same-Spin Scale       =       0.3333333333333333 [-]
	 SCS Opposite-Spin Scale   =       1.2000000000000000 [-]
	 SCS Same-Spin Energy      =      -0.1375543531417143 [Eh]
	 SCS Opposite-Spin Energy  =      -1.5822826908849041 [Eh]
	 SCS Correlation Energy    =      -1.7198370440266184 [Eh]
	 SCS Total Energy          =    -385.4859213922428012 [Eh]
	-----------------------------------------------------------

  Dipole Moment: [D]
     X:     0.4494      Y:    -1.2685      Z:    -0.0161     Total:     1.3459

*** Psi4 exiting successfully. Buy a developer a beer!
