                               Psi4 1.3.2 release

  ==> Input File <==

--------------------------------------------------------------------------
#psi4
#
memory 32 gb

molecule  {
0 1
  O       -3.1417080     0.0705380     0.3169670
  C        0.9849237    -0.0039719    -0.4135600
  C        2.4872910    -0.0052090    -0.5397260
  C        0.2806140    -1.2015640    -0.2442060
  C        0.2798770     1.1950560    -0.2368630
  C        3.2774712    -0.0061394     0.7699449
  C       -1.0960700    -1.2065460    -0.0157640
  C       -1.0950530     1.2066380    -0.0091780
  C       -1.7865290     0.0017960     0.1015840
  H        2.7838010    -0.8823900    -1.1265120
  H        2.7835740     0.8731460    -1.1246690
  H        0.8095070    -2.1483250    -0.3363770
  H        0.8092330     2.1418130    -0.3228610
  H        2.9650580     0.8755680     1.3857970
  H        4.3169070    -0.0053560     0.6533480
  H        2.9660240    -0.8892340     1.3840690
  H       -1.6288030    -2.1532140     0.0657430
  H       -1.6431320     2.1402150     0.0795740
  H       -3.4941530    -0.8345020     0.3676020
units angstrom
no_reorient  #important for SAPT in psi4, default
symmetry c1  #important for SAPT in psi4, default
}

set PROPERTIES_ORIGIN ["COM"]
properties('MP2/aug-cc-pvtz', properties = ['dipole'])
--------------------------------------------------------------------------

    Molecular point group: c1
  Charge       = 0
  Multiplicity = 1
  Basis Set: AUG-CC-PVTZ
    Blend: AUG-CC-PVTZ
  Basis Set: (AUG-CC-PVTZ AUX)
    Blend: AUG-CC-PVTZ-JKFIT

    Orbital Energies [Eh]
    ---------------------

    Doubly Occupied:

       1A    -20.590169     2A    -11.300454     3A    -11.239247
       4A    -11.237416     5A    -11.234926     6A    -11.232006
       7A    -11.228359     8A    -11.226856     9A    -11.216337
      10A     -1.399282    11A     -1.150805    12A     -1.057222
      13A     -1.016952    14A     -0.976679    15A     -0.863189
      16A     -0.842841    17A     -0.790997    18A     -0.728939
      19A     -0.671905    20A     -0.646160    21A     -0.612223
      22A     -0.597030    23A     -0.588216    24A     -0.586073
      25A     -0.575027    26A     -0.555657    27A     -0.520261
      28A     -0.495291    29A     -0.486770    30A     -0.471412
      31A     -0.466088    32A     -0.340634    33A     -0.306714

  @DF-RHF Final Energy:  -383.76195018161582

   => Energetics <=

    Nuclear Repulsion Energy =            417.7974592460467420
    One-Electron Energy =               -1348.6145434875236333
    Two-Electron Energy =                 547.0551340598610750
    Total Energy =                       -383.7619501816158163
  Basis Set: (AUG-CC-PVTZ AUX)
    Blend: AUG-CC-PVTZ-RI
    Molecular point group: c1

    Geometry (in Angstrom), charge = 0, multiplicity = 1:

       Center              X                  Y                   Z               Mass
    ------------   -----------------  -----------------  -----------------  -----------------
         O           -3.145725600016     0.070539779049     0.324746079482    15.994914619570
         C            0.980906099984    -0.003970120951    -0.405780920518    12.000000000000
         C            2.483273399984    -0.005207220951    -0.531946920518    12.000000000000
         C            0.276596399984    -1.201562220951    -0.236426920518    12.000000000000
         C            0.275859399984     1.195057779049    -0.229083920518    12.000000000000
         C            3.273453599984    -0.006137620951     0.777723979482    12.000000000000
         C           -1.100087600016    -1.206544220951    -0.007984920518    12.000000000000
         C           -1.099070600016     1.206639779049    -0.001398920518    12.000000000000
         C           -1.790546600016     0.001797779049     0.109363079482    12.000000000000
         H            2.779783399984    -0.882388220951    -1.118732920518     1.007825032230
         H            2.779556399984     0.873147779049    -1.116889920518     1.007825032230
         H            0.805489399984    -2.148323220951    -0.328597920518     1.007825032230
         H            0.805215399984     2.141814779049    -0.315081920518     1.007825032230
         H            2.961040399984     0.875569779049     1.393576079482     1.007825032230
         H            4.312889399984    -0.005354220951     0.661127079482     1.007825032230
         H            2.962006399984    -0.889232220951     1.391848079482     1.007825032230
         H           -1.632820600016    -2.153212220951     0.073522079482     1.007825032230
         H           -1.647149600016     2.140216779049     0.087353079482     1.007825032230
         H           -3.498170600016    -0.834500220951     0.375381079482     1.007825032230

  Basis Set: AUG-CC-PVTZ
    Blend: AUG-CC-PVTZ
  Basis Set: (AUG-CC-PVTZ AUX)
    Blend: AUG-CC-PVTZ-JKFIT
	 Reference Energy          =    -383.7619501816158163 [Eh]
	 Singles Energy            =      -0.0000000000000000 [Eh]
	 Same-Spin Energy          =      -0.4127924075355108 [Eh]
	 Opposite-Spin Energy      =      -1.3189301866509326 [Eh]
	 Correlation Energy        =      -1.7317225941864436 [Eh]
	 Total Energy              =    -385.4936727758022812 [Eh]

	 ================> DF-SCS-MP2 Energies <==================
	-----------------------------------------------------------
	 SCS Same-Spin Scale       =       0.3333333333333333 [-]
	 SCS Opposite-Spin Scale   =       1.2000000000000000 [-]
	 SCS Same-Spin Energy      =      -0.1375974691785036 [Eh]
	 SCS Opposite-Spin Energy  =      -1.5827162239811192 [Eh]
	 SCS Correlation Energy    =      -1.7203136931596228 [Eh]
	 SCS Total Energy          =    -385.4822638747754127 [Eh]
	-----------------------------------------------------------

  Dipole Moment: [D]
     X:     0.4308      Y:    -1.2727      Z:     0.0052     Total:     1.3437

*** Psi4 exiting successfully. Buy a developer a beer!
