                               Psi4 1.3.2 release

  ==> Input File <==

--------------------------------------------------------------------------
#psi4
#
memory 32 gb

molecule  {
0 1
  O       -3.1417080     0.0705380     0.3169670
  C        0.9902420    -0.0039870    -0.3612050
  C        2.4872910    -0.0052090    -0.5397260
  C        0.2806140    -1.2015640    -0.2442060
  C        0.2798770     1.1950560    -0.2368630
  C        3.2312830    -0.0061060     0.7967240
  C       -1.0856896    -1.2003884    -0.0174601
  C       -1.0847083     1.2004811    -0.0109027
  C       -1.7865290     0.0017960     0.1015840
  H        2.7838010    -0.8823900    -1.1265120
  H        2.7835740     0.8731460    -1.1246690
  H        0.8095070    -2.1483250    -0.3363770
  H        0.8092330     2.1418130    -0.3228610
  H        2.9650580     0.8755680     1.3857970
  H        4.3169070    -0.0053560     0.6533480
  H        2.9660240    -0.8892340     1.3840690
  H       -1.6288030    -2.1532140     0.0657430
  H       -1.6431320     2.1402150     0.0795740
  H       -3.4941530    -0.8345020     0.3676020
units angstrom
no_reorient  #important for SAPT in psi4, default
symmetry c1  #important for SAPT in psi4, default
}

set PROPERTIES_ORIGIN ["COM"]
properties('MP2/aug-cc-pvtz', properties = ['dipole'])
--------------------------------------------------------------------------

    Molecular point group: c1
  Charge       = 0
  Multiplicity = 1
  Basis Set: AUG-CC-PVTZ
    Blend: AUG-CC-PVTZ
  Basis Set: (AUG-CC-PVTZ AUX)
    Blend: AUG-CC-PVTZ-JKFIT

    Orbital Energies [Eh]
    ---------------------

    Doubly Occupied:

       1A    -20.590432     2A    -11.299124     3A    -11.236674
       4A    -11.234752     5A    -11.234497     6A    -11.230748
       7A    -11.227916     8A    -11.226905     9A    -11.215225
      10A     -1.398988    11A     -1.153078    12A     -1.058178
      13A     -1.018440    14A     -0.975644    15A     -0.862403
      16A     -0.841321    17A     -0.791384    18A     -0.729375
      19A     -0.673081    20A     -0.644964    21A     -0.612393
      22A     -0.595289    23A     -0.587934    24A     -0.585321
      25A     -0.570534    26A     -0.556555    27A     -0.523690
      28A     -0.496562    29A     -0.480191    30A     -0.476414
      31A     -0.469723    32A     -0.342656    33A     -0.305185

  @DF-RHF Final Energy:  -383.76642062582579

   => Energetics <=

    Nuclear Repulsion Energy =            418.6719263400001410
    One-Electron Energy =               -1350.3855392731961729
    Two-Electron Energy =                 547.9471923073703010
    Total Energy =                       -383.7664206258257309
  Basis Set: (AUG-CC-PVTZ AUX)
    Blend: AUG-CC-PVTZ-RI
    Molecular point group: c1

    Geometry (in Angstrom), charge = 0, multiplicity = 1:

       Center              X                  Y                   Z               Mass
    ------------   -----------------  -----------------  -----------------  -----------------
         O           -3.143745331870     0.070537911317     0.317303333155    15.994914619570
         C            0.988204668130    -0.003987088683    -0.360868666845    12.000000000000
         C            2.485253668130    -0.005209088683    -0.539389666845    12.000000000000
         C            0.278576668130    -1.201564088683    -0.243869666845    12.000000000000
         C            0.277839668130     1.195055911317    -0.236526666845    12.000000000000
         C            3.229245668130    -0.006106088683     0.797060333155    12.000000000000
         C           -1.087726931870    -1.200388488683    -0.017123766845    12.000000000000
         C           -1.086745631870     1.200481011317    -0.010566366845    12.000000000000
         C           -1.788566331870     0.001795911317     0.101920333155    12.000000000000
         H            2.781763668130    -0.882390088683    -1.126175666845     1.007825032230
         H            2.781536668130     0.873145911317    -1.124332666845     1.007825032230
         H            0.807469668130    -2.148325088683    -0.336040666845     1.007825032230
         H            0.807195668130     2.141812911317    -0.322524666845     1.007825032230
         H            2.963020668130     0.875567911317     1.386133333155     1.007825032230
         H            4.314869668130    -0.005356088683     0.653684333155     1.007825032230
         H            2.963986668130    -0.889234088683     1.384405333155     1.007825032230
         H           -1.630840331870    -2.153214088683     0.066079333155     1.007825032230
         H           -1.645169331870     2.140214911317     0.079910333155     1.007825032230
         H           -3.496190331870    -0.834502088683     0.367938333155     1.007825032230

  Basis Set: AUG-CC-PVTZ
    Blend: AUG-CC-PVTZ
  Basis Set: (AUG-CC-PVTZ AUX)
    Blend: AUG-CC-PVTZ-JKFIT
	 Reference Energy          =    -383.7664206258257877 [Eh]
	 Singles Energy            =      -0.0000000000000000 [Eh]
	 Same-Spin Energy          =      -0.4128142623326291 [Eh]
	 Opposite-Spin Energy      =      -1.3186901381138814 [Eh]
	 Correlation Energy        =      -1.7315044004465103 [Eh]
	 Total Energy              =    -385.4979250262722985 [Eh]

	 ================> DF-SCS-MP2 Energies <==================
	-----------------------------------------------------------
	 SCS Same-Spin Scale       =       0.3333333333333333 [-]
	 SCS Opposite-Spin Scale   =       1.2000000000000000 [-]
	 SCS Same-Spin Energy      =      -0.1376047541108764 [Eh]
	 SCS Opposite-Spin Energy  =      -1.5824281657366577 [Eh]
	 SCS Correlation Energy    =      -1.7200329198475339 [Eh]
	 SCS Total Energy          =    -385.4864535456733279 [Eh]
	-----------------------------------------------------------

  Dipole Moment: [D]
     X:     0.4551      Y:    -1.2735      Z:    -0.0176     Total:     1.3525

*** Psi4 exiting successfully. Buy a developer a beer!
