                               Psi4 1.3.2 release

  ==> Input File <==

--------------------------------------------------------------------------
#psi4
#
memory 32 gb

molecule  {
0 1
  O       -3.1417080     0.0705380     0.3169670
  C        0.9921382     0.0183313    -0.3473962
  C        2.4872910    -0.0052090    -0.5397260
  C        0.2806140    -1.2015640    -0.2442060
  C        0.2798770     1.1950560    -0.2368630
  C        3.2312830    -0.0061060     0.7967240
  C       -1.0960700    -1.2065460    -0.0157640
  C       -1.0950530     1.2066380    -0.0091780
  C       -1.7865290     0.0017960     0.1015840
  H        2.8020746    -0.8768735    -1.1252129
  H        2.7835740     0.8731460    -1.1246690
  H        0.8095070    -2.1483250    -0.3363770
  H        0.8092330     2.1418130    -0.3228610
  H        2.9650580     0.8755680     1.3857970
  H        4.3169070    -0.0053560     0.6533480
  H        2.9660240    -0.8892340     1.3840690
  H       -1.6288030    -2.1532140     0.0657430
  H       -1.6431320     2.1402150     0.0795740
  H       -3.4941530    -0.8345020     0.3676020
units angstrom
no_reorient  #important for SAPT in psi4, default
symmetry c1  #important for SAPT in psi4, default
}

set PROPERTIES_ORIGIN ["COM"]
properties('MP2/aug-cc-pvtz', properties = ['dipole'])
--------------------------------------------------------------------------

    Molecular point group: c1
  Charge       = 0
  Multiplicity = 1
  Basis Set: AUG-CC-PVTZ
    Blend: AUG-CC-PVTZ
  Basis Set: (AUG-CC-PVTZ AUX)
    Blend: AUG-CC-PVTZ-JKFIT

    Orbital Energies [Eh]
    ---------------------

    Doubly Occupied:

       1A    -20.589341     2A    -11.299179     3A    -11.240480
       4A    -11.235392     5A    -11.234073     6A    -11.231090
       7A    -11.227561     8A    -11.227090     9A    -11.214901
      10A     -1.398502    11A     -1.151219    12A     -1.058111
      13A     -1.016805    14A     -0.975860    15A     -0.861105
      16A     -0.842219    17A     -0.792425    18A     -0.728568
      19A     -0.671397    20A     -0.647746    21A     -0.613570
      22A     -0.594813    23A     -0.588080    24A     -0.586211
      25A     -0.570381    26A     -0.554812    27A     -0.522681
      28A     -0.497682    29A     -0.482821    30A     -0.475459
      31A     -0.468033    32A     -0.340959    33A     -0.305492

  @DF-RHF Final Energy:  -383.76598616495392

   => Energetics <=

    Nuclear Repulsion Energy =            418.3392179017536705
    One-Electron Energy =               -1349.7222972829329137
    Two-Electron Energy =                 547.6170932162252711
    Total Energy =                       -383.7659861649539152
  Basis Set: (AUG-CC-PVTZ AUX)
    Blend: AUG-CC-PVTZ-RI
    Molecular point group: c1

    Geometry (in Angstrom), charge = 0, multiplicity = 1:

       Center              X                  Y                   Z               Mass
    ------------   -----------------  -----------------  -----------------  -----------------
         O           -3.142045284127     0.068298509505     0.315598908881    15.994914619570
         C            0.991800915873     0.016091809505    -0.348764291119    12.000000000000
         C            2.486953715873    -0.007448490495    -0.541094091119    12.000000000000
         C            0.280276715873    -1.203803490495    -0.245574091119    12.000000000000
         C            0.279539715873     1.192816509505    -0.238231091119    12.000000000000
         C            3.230945715873    -0.008345490495     0.795355908881    12.000000000000
         C           -1.096407284127    -1.208785490495    -0.017132091119    12.000000000000
         C           -1.095390284127     1.204398509505    -0.010546091119    12.000000000000
         C           -1.786866284127    -0.000443490495     0.100215908881    12.000000000000
         H            2.801737315873    -0.879112990495    -1.126580991119     1.007825032230
         H            2.783236715873     0.870906509505    -1.126037091119     1.007825032230
         H            0.809169715873    -2.150564490495    -0.337745091119     1.007825032230
         H            0.808895715873     2.139573509505    -0.324229091119     1.007825032230
         H            2.964720715873     0.873328509505     1.384428908881     1.007825032230
         H            4.316569715873    -0.007595490495     0.651979908881     1.007825032230
         H            2.965686715873    -0.891473490495     1.382700908881     1.007825032230
         H           -1.629140284127    -2.155453490495     0.064374908881     1.007825032230
         H           -1.643469284127     2.137975509505     0.078205908881     1.007825032230
         H           -3.494490284127    -0.836741490495     0.366233908881     1.007825032230

  Basis Set: AUG-CC-PVTZ
    Blend: AUG-CC-PVTZ
  Basis Set: (AUG-CC-PVTZ AUX)
    Blend: AUG-CC-PVTZ-JKFIT
	 Reference Energy          =    -383.7659861649539152 [Eh]
	 Singles Energy            =      -0.0000000000000000 [Eh]
	 Same-Spin Energy          =      -0.4127632148170521 [Eh]
	 Opposite-Spin Energy      =      -1.3187892907495886 [Eh]
	 Correlation Energy        =      -1.7315525055666408 [Eh]
	 Total Energy              =    -385.4975386705205551 [Eh]

	 ================> DF-SCS-MP2 Energies <==================
	-----------------------------------------------------------
	 SCS Same-Spin Scale       =       0.3333333333333333 [-]
	 SCS Opposite-Spin Scale   =       1.2000000000000000 [-]
	 SCS Same-Spin Energy      =      -0.1375877382723507 [Eh]
	 SCS Opposite-Spin Energy  =      -1.5825471488995062 [Eh]
	 SCS Correlation Energy    =      -1.7201348871718569 [Eh]
	 SCS Total Energy          =    -385.4861210521257817 [Eh]
	-----------------------------------------------------------

  Dipole Moment: [D]
     X:     0.4675      Y:    -1.2924      Z:    -0.0298     Total:     1.3747

*** Psi4 exiting successfully. Buy a developer a beer!
