                               Psi4 1.3.2 release

  ==> Input File <==

--------------------------------------------------------------------------
#psi4
#
memory 32 gb

molecule  {
0 1
  O       -3.1417080     0.0705380     0.3169670
  C        0.9887411    -0.0039831    -0.3742759
  C        2.4872910    -0.0052090    -0.5397260
  C        0.2806140    -1.2015640    -0.2442060
  C        0.2798770     1.1950560    -0.2368630
  C        3.2429172    -0.0061144     0.7901806
  C       -1.0960700    -1.2065460    -0.0157640
  C       -1.0950530     1.2066380    -0.0091780
  C       -1.7865290     0.0017960     0.1015840
  H        2.7838010    -0.8823900    -1.1265120
  H        2.7835740     0.8731460    -1.1246690
  H        0.8095070    -2.1483250    -0.3363770
  H        0.8092330     2.1418130    -0.3228610
  H        2.9650580     0.8755680     1.3857970
  H        4.3169070    -0.0053560     0.6533480
  H        2.9660240    -0.8892340     1.3840690
  H       -1.6288030    -2.1532140     0.0657430
  H       -1.6431320     2.1402150     0.0795740
  H       -3.4941530    -0.8345020     0.3676020
units angstrom
no_reorient  #important for SAPT in psi4, default
symmetry c1  #important for SAPT in psi4, default
}

set PROPERTIES_ORIGIN ["COM"]
properties('MP2/aug-cc-pvtz', properties = ['dipole'])
--------------------------------------------------------------------------

    Molecular point group: c1
  Charge       = 0
  Multiplicity = 1
  Basis Set: AUG-CC-PVTZ
    Blend: AUG-CC-PVTZ
  Basis Set: (AUG-CC-PVTZ AUX)
    Blend: AUG-CC-PVTZ-JKFIT

    Orbital Energies [Eh]
    ---------------------

    Doubly Occupied:

       1A    -20.589548     2A    -11.299569     3A    -11.238347
       4A    -11.236524     5A    -11.234726     6A    -11.231127
       7A    -11.228193     8A    -11.226973     9A    -11.215421
      10A     -1.398700    11A     -1.151045    12A     -1.057764
      13A     -1.016767    14A     -0.975899    15A     -0.861999
      16A     -0.842784    17A     -0.791291    18A     -0.728600
      19A     -0.672116    20A     -0.646625    21A     -0.612688
      22A     -0.596008    23A     -0.587915    24A     -0.585775
      25A     -0.570669    26A     -0.555707    27A     -0.522599
      28A     -0.497284    29A     -0.481610    30A     -0.476673
      31A     -0.468073    32A     -0.340524    33A     -0.306073

  @DF-RHF Final Energy:  -383.76643303506359

   => Energetics <=

    Nuclear Repulsion Energy =            418.1973544459305572
    One-Electron Energy =               -1349.4363393752648790
    Two-Electron Energy =                 547.4725518942707367
    Total Energy =                       -383.7664330350635282
  Basis Set: (AUG-CC-PVTZ AUX)
    Blend: AUG-CC-PVTZ-RI
    Molecular point group: c1

    Geometry (in Angstrom), charge = 0, multiplicity = 1:

       Center              X                  Y                   Z               Mass
    ------------   -----------------  -----------------  -----------------  -----------------
         O           -3.142704139893     0.070538422486     0.318895181782    15.994914619570
         C            0.987744960107    -0.003982677514    -0.372347718218    12.000000000000
         C            2.486294860107    -0.005208577514    -0.537797818218    12.000000000000
         C            0.279617860107    -1.201563577514    -0.242277818218    12.000000000000
         C            0.278880860107     1.195056422486    -0.234934818218    12.000000000000
         C            3.241921060107    -0.006113977514     0.792108781782    12.000000000000
         C           -1.097066139893    -1.206545577514    -0.013835818218    12.000000000000
         C           -1.096049139893     1.206638422486    -0.007249818218    12.000000000000
         C           -1.787525139893     0.001796422486     0.103512181782    12.000000000000
         H            2.782804860107    -0.882389577514    -1.124583818218     1.007825032230
         H            2.782577860107     0.873146422486    -1.122740818218     1.007825032230
         H            0.808510860107    -2.148324577514    -0.334448818218     1.007825032230
         H            0.808236860107     2.141813422486    -0.320932818218     1.007825032230
         H            2.964061860107     0.875568422486     1.387725181782     1.007825032230
         H            4.315910860107    -0.005355577514     0.655276181782     1.007825032230
         H            2.965027860107    -0.889233577514     1.385997181782     1.007825032230
         H           -1.629799139893    -2.153213577514     0.067671181782     1.007825032230
         H           -1.644128139893     2.140215422486     0.081502181782     1.007825032230
         H           -3.495149139893    -0.834501577514     0.369530181782     1.007825032230

  Basis Set: AUG-CC-PVTZ
    Blend: AUG-CC-PVTZ
  Basis Set: (AUG-CC-PVTZ AUX)
    Blend: AUG-CC-PVTZ-JKFIT
	 Reference Energy          =    -383.7664330350635851 [Eh]
	 Singles Energy            =      -0.0000000000000000 [Eh]
	 Same-Spin Energy          =      -0.4127362979381382 [Eh]
	 Opposite-Spin Energy      =      -1.3187189560969501 [Eh]
	 Correlation Energy        =      -1.7314552540350883 [Eh]
	 Total Energy              =    -385.4978882890986824 [Eh]

	 ================> DF-SCS-MP2 Energies <==================
	-----------------------------------------------------------
	 SCS Same-Spin Scale       =       0.3333333333333333 [-]
	 SCS Opposite-Spin Scale   =       1.2000000000000000 [-]
	 SCS Same-Spin Energy      =      -0.1375787659793794 [Eh]
	 SCS Opposite-Spin Energy  =      -1.5824627473163402 [Eh]
	 SCS Correlation Energy    =      -1.7200415132957196 [Eh]
	 SCS Total Energy          =    -385.4864745483592969 [Eh]
	-----------------------------------------------------------

  Dipole Moment: [D]
     X:     0.4589      Y:    -1.2725      Z:    -0.0121     Total:     1.3527

*** Psi4 exiting successfully. Buy a developer a beer!
