                               Psi4 1.3.2 release

  ==> Input File <==

--------------------------------------------------------------------------
#psi4
#
memory 32 gb

molecule  {
0 1
  O       -3.1417080     0.0705380     0.3169670
  C        0.9274904     0.0320117    -0.3504755
  C        2.4872910    -0.0052090    -0.5397260
  C        0.2806140    -1.2015640    -0.2442060
  C        0.2798770     1.1950560    -0.2368630
  C        3.2312830    -0.0061060     0.7967240
  C       -1.0960700    -1.2065460    -0.0157640
  C       -1.0950530     1.2066380    -0.0091780
  C       -1.7865290     0.0017960     0.1015840
  H        2.7838010    -0.8823900    -1.1265120
  H        2.7835740     0.8731460    -1.1246690
  H        0.7599161    -2.1751244    -0.3280470
  H        0.8092330     2.1418130    -0.3228610
  H        2.9650580     0.8755680     1.3857970
  H        4.3169070    -0.0053560     0.6533480
  H        2.9660240    -0.8892340     1.3840690
  H       -1.6288030    -2.1532140     0.0657430
  H       -1.6431320     2.1402150     0.0795740
  H       -3.4941530    -0.8345020     0.3676020
units angstrom
no_reorient  #important for SAPT in psi4, default
symmetry c1  #important for SAPT in psi4, default
}

set PROPERTIES_ORIGIN ["COM"]
properties('MP2/aug-cc-pvtz', properties = ['dipole'])
--------------------------------------------------------------------------

    Molecular point group: c1
  Charge       = 0
  Multiplicity = 1
  Basis Set: AUG-CC-PVTZ
    Blend: AUG-CC-PVTZ
  Basis Set: (AUG-CC-PVTZ AUX)
    Blend: AUG-CC-PVTZ-JKFIT

    Orbital Energies [Eh]
    ---------------------

    Doubly Occupied:

       1A    -20.588449     2A    -11.297807     3A    -11.239038
       4A    -11.235091     5A    -11.229395     6A    -11.228444
       7A    -11.227505     8A    -11.226909     9A    -11.213956
      10A     -1.397754    11A     -1.156870    12A     -1.050178
      13A     -1.020619    14A     -0.978440    15A     -0.855272
      16A     -0.843998    17A     -0.794714    18A     -0.730893
      19A     -0.669397    20A     -0.642519    21A     -0.614898
      22A     -0.596337    23A     -0.591995    24A     -0.586529
      25A     -0.568928    26A     -0.554020    27A     -0.519811
      28A     -0.500386    29A     -0.483243    30A     -0.473219
      31A     -0.460242    32A     -0.342694    33A     -0.309318

  @DF-RHF Final Energy:  -383.76043721526304

   => Energetics <=

    Nuclear Repulsion Energy =            418.8026264293200711
    One-Electron Energy =               -1350.6683960192558516
    Two-Electron Energy =                 548.1053323746726846
    Total Energy =                       -383.7604372152630958
  Basis Set: (AUG-CC-PVTZ AUX)
    Blend: AUG-CC-PVTZ-RI
    Molecular point group: c1

    Geometry (in Angstrom), charge = 0, multiplicity = 1:

       Center              X                  Y                   Z               Mass
    ------------   -----------------  -----------------  -----------------  -----------------
         O           -3.135130012108     0.067220500041     0.315843562839    15.994914619570
         C            0.934068387892     0.028694200041    -0.351598937161    12.000000000000
         C            2.493868987892    -0.008526499959    -0.540849437161    12.000000000000
         C            0.287191987892    -1.204881499959    -0.245329437161    12.000000000000
         C            0.286454987892     1.191738500041    -0.237986437161    12.000000000000
         C            3.237860987892    -0.009423499959     0.795600562839    12.000000000000
         C           -1.089492012108    -1.209863499959    -0.016887437161    12.000000000000
         C           -1.088475012108     1.203320500041    -0.010301437161    12.000000000000
         C           -1.779951012108    -0.001521499959     0.100460562839    12.000000000000
         H            2.790378987892    -0.885707499959    -1.127635437161     1.007825032230
         H            2.790151987892     0.869828500041    -1.125792437161     1.007825032230
         H            0.766494087892    -2.178441899959    -0.329170437161     1.007825032230
         H            0.815810987892     2.138495500041    -0.323984437161     1.007825032230
         H            2.971635987892     0.872250500041     1.384673562839     1.007825032230
         H            4.323484987892    -0.008673499959     0.652224562839     1.007825032230
         H            2.972601987892    -0.892551499959     1.382945562839     1.007825032230
         H           -1.622225012108    -2.156531499959     0.064619562839     1.007825032230
         H           -1.636554012108     2.136897500041     0.078450562839     1.007825032230
         H           -3.487575012108    -0.837819499959     0.366478562839     1.007825032230

  Basis Set: AUG-CC-PVTZ
    Blend: AUG-CC-PVTZ
  Basis Set: (AUG-CC-PVTZ AUX)
    Blend: AUG-CC-PVTZ-JKFIT
	 Reference Energy          =    -383.7604372152630390 [Eh]
	 Singles Energy            =      -0.0000000000000000 [Eh]
	 Same-Spin Energy          =      -0.4124020816265902 [Eh]
	 Opposite-Spin Energy      =      -1.3183290272750265 [Eh]
	 Correlation Energy        =      -1.7307311089016166 [Eh]
	 Total Energy              =    -385.4911683241646756 [Eh]

	 ================> DF-SCS-MP2 Energies <==================
	-----------------------------------------------------------
	 SCS Same-Spin Scale       =       0.3333333333333333 [-]
	 SCS Opposite-Spin Scale   =       1.2000000000000000 [-]
	 SCS Same-Spin Energy      =      -0.1374673605421967 [Eh]
	 SCS Opposite-Spin Energy  =      -1.5819948327300317 [Eh]
	 SCS Correlation Energy    =      -1.7194621932722285 [Eh]
	 SCS Total Energy          =    -385.4798994085352888 [Eh]
	-----------------------------------------------------------

  Dipole Moment: [D]
     X:     0.3982      Y:    -1.3138      Z:    -0.0217     Total:     1.3730

*** Psi4 exiting successfully. Buy a developer a beer!
