                               Psi4 1.3.2 release

  ==> Input File <==

--------------------------------------------------------------------------
#psi4
#
memory 32 gb

molecule  {
0 1
  O       -3.1417080     0.0705380     0.3169670
  C        0.9902420    -0.0039870    -0.3612050
  C        2.4872910    -0.0052090    -0.5397260
  C        0.2806140    -1.2015640    -0.2442060
  C        0.2798770     1.1950560    -0.2368630
  C        3.2312830    -0.0061060     0.7967240
  C       -1.0960700    -1.2065460    -0.0157640
  C       -1.0950530     1.2066380    -0.0091780
  C       -1.7865290     0.0017960     0.1015840
  H        2.7838010    -0.8823900    -1.1265120
  H        2.7835740     0.8731460    -1.1246690
  H        0.8095070    -2.1483250    -0.3363770
  H        0.8092330     2.1418130    -0.3228610
  H        2.9650580     0.8755680     1.3857970
  H        4.3169070    -0.0053560     0.6533480
  H        2.9660240    -0.8892340     1.3840690
  H       -1.6288030    -2.1532140     0.0657430
  H       -1.6431320     2.1402150     0.0795740
  H       -3.5666306    -1.0206164     0.3780147
units angstrom
no_reorient  #important for SAPT in psi4, default
symmetry c1  #important for SAPT in psi4, default
}

set PROPERTIES_ORIGIN ["COM"]
properties('MP2/aug-cc-pvtz', properties = ['dipole'])
--------------------------------------------------------------------------

    Molecular point group: c1
  Charge       = 0
  Multiplicity = 1
  Basis Set: AUG-CC-PVTZ
    Blend: AUG-CC-PVTZ
  Basis Set: (AUG-CC-PVTZ AUX)
    Blend: AUG-CC-PVTZ-JKFIT

    Orbital Energies [Eh]
    ---------------------

    Doubly Occupied:

       1A    -20.602379     2A    -11.298021     3A    -11.237268
       4A    -11.235792     5A    -11.233317     6A    -11.229743
       7A    -11.227457     8A    -11.226389     9A    -11.214668
      10A     -1.367684    11A     -1.148549    12A     -1.055122
      13A     -1.015617    14A     -0.971266    15A     -0.856315
      16A     -0.839905    17A     -0.785585    18A     -0.702183
      19A     -0.667710    20A     -0.644899    21A     -0.604930
      22A     -0.594093    23A     -0.585134    24A     -0.582100
      25A     -0.565528    26A     -0.545198    27A     -0.522401
      28A     -0.495034    29A     -0.479194    30A     -0.476989
      31A     -0.466241    32A     -0.339759    33A     -0.303918

  @DF-RHF Final Energy:  -383.73076305001314

   => Energetics <=

    Nuclear Repulsion Energy =            417.2992417464522532
    One-Electron Energy =               -1347.8192354664993218
    Two-Electron Energy =                 546.7892306700339304
    Total Energy =                       -383.7307630500131381
  Basis Set: (AUG-CC-PVTZ AUX)
    Blend: AUG-CC-PVTZ-RI
    Molecular point group: c1

    Geometry (in Angstrom), charge = 0, multiplicity = 1:

       Center              X                  Y                   Z               Mass
    ------------   -----------------  -----------------  -----------------  -----------------
         O           -3.141109650722     0.072074523817     0.316881096378    15.994914619570
         C            0.990840349278    -0.002450476183    -0.361290903622    12.000000000000
         C            2.487889349278    -0.003672476183    -0.539811903622    12.000000000000
         C            0.281212349278    -1.200027476183    -0.244291903622    12.000000000000
         C            0.280475349278     1.196592523817    -0.236948903622    12.000000000000
         C            3.231881349278    -0.004569476183     0.796638096378    12.000000000000
         C           -1.095471650722    -1.205009476183    -0.015849903622    12.000000000000
         C           -1.094454650722     1.208174523817    -0.009263903622    12.000000000000
         C           -1.785930650722     0.003332523817     0.101498096378    12.000000000000
         H            2.784399349278    -0.880853476183    -1.126597903622     1.007825032230
         H            2.784172349278     0.874682523817    -1.124754903622     1.007825032230
         H            0.810105349278    -2.146788476183    -0.336462903622     1.007825032230
         H            0.809831349278     2.143349523817    -0.322946903622     1.007825032230
         H            2.965656349278     0.877104523817     1.385711096378     1.007825032230
         H            4.317505349278    -0.003819476183     0.653262096378     1.007825032230
         H            2.966622349278    -0.887697476183     1.383983096378     1.007825032230
         H           -1.628204650722    -2.151677476183     0.065657096378     1.007825032230
         H           -1.642533650722     2.141751523817     0.079488096378     1.007825032230
         H           -3.566032250722    -1.019079876183     0.377928796378     1.007825032230

  Basis Set: AUG-CC-PVTZ
    Blend: AUG-CC-PVTZ
  Basis Set: (AUG-CC-PVTZ AUX)
    Blend: AUG-CC-PVTZ-JKFIT
	 Reference Energy          =    -383.7307630500131381 [Eh]
	 Singles Energy            =      -0.0000000000000000 [Eh]
	 Same-Spin Energy          =      -0.4151850652273365 [Eh]
	 Opposite-Spin Energy      =      -1.3256078961681665 [Eh]
	 Correlation Energy        =      -1.7407929613955031 [Eh]
	 Total Energy              =    -385.4715560114086657 [Eh]

	 ================> DF-SCS-MP2 Energies <==================
	-----------------------------------------------------------
	 SCS Same-Spin Scale       =       0.3333333333333333 [-]
	 SCS Opposite-Spin Scale   =       1.2000000000000000 [-]
	 SCS Same-Spin Energy      =      -0.1383950217424455 [Eh]
	 SCS Opposite-Spin Energy  =      -1.5907294754017998 [Eh]
	 SCS Correlation Energy    =      -1.7291244971442452 [Eh]
	 SCS Total Energy          =    -385.4598875471573933 [Eh]
	-----------------------------------------------------------

  Dipole Moment: [D]
     X:     0.3300      Y:    -1.4144      Z:    -0.0005     Total:     1.4524

*** Psi4 exiting successfully. Buy a developer a beer!
