                               Psi4 1.4a3.dev225

  ==> Input File <==

--------------------------------------------------------------------------
#psi4
#
memory 32 gb

molecule  {
0 1
  O        3.2216350    -0.1065060     0.2904990
  C       -0.9146420     0.0169590    -0.3639610
  C       -2.4121960     0.0318470    -0.5323860
  C       -0.1907600     1.2076380    -0.2374780
  C       -0.2138010    -1.1929940    -0.2539850
  C       -3.1651351    -0.0208797     0.8576411
  C        1.1888560     1.1991780    -0.0236810
  C        1.1619340    -1.2201410    -0.0407060
  C        1.8648900    -0.0185630     0.0807020
  H       -2.7091570     0.9353730    -1.0779940
  H       -2.7186560    -0.8212200    -1.1493620
  H       -0.7079800     2.1625600    -0.3214960
  H       -0.7531780    -2.1343060    -0.3521420
  H       -2.8726550    -0.9274190     1.3607640
  H       -4.2274440    -0.0080790     0.6778440
  H       -2.8630000     0.8390280     1.4320080
  H        1.7343360     2.1384520     0.0639930
  H        1.7070130    -2.1569100     0.0367280
  H        3.5799610     0.7963060     0.3524270
units angstrom
no_reorient  #important for SAPT in psi4, default
symmetry c1  #important for SAPT in psi4, default
}

set PROPERTIES_ORIGIN ["COM"]
properties('MP2/aug-cc-pvtz', properties = ['dipole'])
--------------------------------------------------------------------------

    Molecular point group: c1
  Charge       = 0
  Multiplicity = 1
  Basis Set: AUG-CC-PVTZ
    Blend: AUG-CC-PVTZ
  Basis Set: (AUG-CC-PVTZ AUX)
    Blend: AUG-CC-PVTZ-JKFIT

    Orbital Energies [Eh]
    ---------------------

    Doubly Occupied:

       1A    -20.589286     2A    -11.299628     3A    -11.238501
       4A    -11.236761     5A    -11.234886     6A    -11.231728
       7A    -11.229120     8A    -11.228702     9A    -11.213795
      10A     -1.397668    11A     -1.149651    12A     -1.052720
      13A     -1.016674    14A     -0.972432    15A     -0.864520
      16A     -0.842268    17A     -0.791062    18A     -0.727259
      19A     -0.670949    20A     -0.646145    21A     -0.612459
      22A     -0.596275    23A     -0.587254    24A     -0.585683
      25A     -0.570186    26A     -0.555745    27A     -0.516074
      28A     -0.502141    29A     -0.484251    30A     -0.481041
      31A     -0.463261    32A     -0.340762    33A     -0.304195

  @DF-RHF Final Energy:  -383.76457725478559

   => Energetics <=

    Nuclear Repulsion Energy =            417.4217251973008160
    One-Electron Energy =               -1347.9064411689359986
    Two-Electron Energy =                 546.7201387168495330
    Total Energy =                       -383.7645772547856495
  Basis Set: (AUG-CC-PVTZ AUX)
    Blend: AUG-CC-PVTZ-RI
    Molecular point group: c1

    Geometry (in Angstrom), charge = 0, multiplicity = 1:

       Center              X                  Y                   Z               Mass
    ------------   -----------------  -----------------  -----------------  -----------------
         O            3.144207323319    -0.099651163127     0.294504523163    15.994914619570
         C           -0.992069676681     0.023813836873    -0.359955476837    12.000000000000
         C           -2.489623676681     0.038701836873    -0.528380476837    12.000000000000
         C           -0.268187676681     1.214492836873    -0.233472476837    12.000000000000
         C           -0.291228676681    -1.186139163127    -0.249979476837    12.000000000000
         C           -3.242562776681    -0.014024863127     0.861646623163    12.000000000000
         C            1.111428323319     1.206032836873    -0.019675476837    12.000000000000
         C            1.084506323319    -1.213286163127    -0.036700476837    12.000000000000
         C            1.787462323319    -0.011708163127     0.084707523163    12.000000000000
         H           -2.786584676681     0.942227836873    -1.073988476837     1.007825032230
         H           -2.796083676681    -0.814365163127    -1.145356476837     1.007825032230
         H           -0.785407676681     2.169414836873    -0.317490476837     1.007825032230
         H           -0.830605676681    -2.127451163127    -0.348136476837     1.007825032230
         H           -2.950082676681    -0.920564163127     1.364769523163     1.007825032230
         H           -4.304871676681    -0.001224163127     0.681849523163     1.007825032230
         H           -2.940427676681     0.845882836873     1.436013523163     1.007825032230
         H            1.656908323319     2.145306836873     0.067998523163     1.007825032230
         H            1.629585323319    -2.150055163127     0.040733523163     1.007825032230
         H            3.502533323319     0.803160836873     0.356432523163     1.007825032230

  Basis Set: AUG-CC-PVTZ
    Blend: AUG-CC-PVTZ
  Basis Set: (AUG-CC-PVTZ AUX)
    Blend: AUG-CC-PVTZ-JKFIT
	 Reference Energy          =    -383.7645772547855927 [Eh]
	 Singles Energy            =      -0.0000000000000000 [Eh]
	 Same-Spin Energy          =      -0.4126018807525477 [Eh]
	 Opposite-Spin Energy      =      -1.3189212082271045 [Eh]
	 Correlation Energy        =      -1.7315230889796522 [Eh]
	 Total Energy              =    -385.4961003437652494 [Eh]

	 ================> DF-SCS-MP2 Energies <==================
	-----------------------------------------------------------
	 SCS Same-Spin Scale       =       0.3333333333333333 [-]
	 SCS Opposite-Spin Scale   =       1.2000000000000000 [-]
	 SCS Same-Spin Energy      =      -0.1375339602508492 [Eh]
	 SCS Opposite-Spin Energy  =      -1.5827054498725253 [Eh]
	 SCS Correlation Energy    =      -1.7202394101233744 [Eh]
	 SCS Total Energy          =    -385.4848166649089762 [Eh]
	-----------------------------------------------------------

  Dipole Moment: [D]
     X:    -0.4719      Y:     1.2741      Z:    -0.0047     Total:     1.3587

*** Psi4 exiting successfully. Buy a developer a beer!
