                               Psi4 1.3.2 release

  ==> Input File <==

--------------------------------------------------------------------------
#psi4
#
memory 32 gb

molecule  {
0 1
  O       -3.1363055     0.1422585     0.3160582
  C        0.9902420    -0.0039870    -0.3612050
  C        2.4872910    -0.0052090    -0.5397260
  C        0.2806140    -1.2015640    -0.2442060
  C        0.2798770     1.1950560    -0.2368630
  C        3.2312830    -0.0061060     0.7967240
  C       -1.0960700    -1.2065460    -0.0157640
  C       -1.1582792     1.2416372     0.0008486
  C       -1.7865290     0.0017960     0.1015840
  H        2.7838010    -0.8823900    -1.1265120
  H        2.7835740     0.8731460    -1.1246690
  H        0.8095070    -2.1483250    -0.3363770
  H        0.8092330     2.1418130    -0.3228610
  H        2.9650580     0.8755680     1.3857970
  H        4.3169070    -0.0053560     0.6533480
  H        2.9660240    -0.8892340     1.3840690
  H       -1.6288030    -2.1532140     0.0657430
  H       -1.6431320     2.1402150     0.0795740
  H       -3.4941530    -0.8345020     0.3676020
units angstrom
no_reorient  #important for SAPT in psi4, default
symmetry c1  #important for SAPT in psi4, default
}

set PROPERTIES_ORIGIN ["COM"]
properties('MP2/aug-cc-pvtz', properties = ['dipole'])
--------------------------------------------------------------------------

    Molecular point group: c1
  Charge       = 0
  Multiplicity = 1
  Basis Set: AUG-CC-PVTZ
    Blend: AUG-CC-PVTZ
  Basis Set: (AUG-CC-PVTZ AUX)
    Blend: AUG-CC-PVTZ-JKFIT

    Orbital Energies [Eh]
    ---------------------

    Doubly Occupied:

       1A    -20.594437     2A    -11.298950     3A    -11.242264
       4A    -11.241088     5A    -11.237115     6A    -11.231302
       7A    -11.227436     8A    -11.226860     9A    -11.215235
      10A     -1.388026    11A     -1.145320    12A     -1.056334
      13A     -1.012121    14A     -0.973812    15A     -0.856563
      16A     -0.847764    17A     -0.788838    18A     -0.712499
      19A     -0.674512    20A     -0.650801    21A     -0.608315
      22A     -0.602020    23A     -0.588246    24A     -0.584321
      25A     -0.558009    26A     -0.557285    27A     -0.522188
      28A     -0.502534    29A     -0.481466    30A     -0.477326
      31A     -0.464101    32A     -0.333707    33A     -0.307325

  @DF-RHF Final Energy:  -383.74801279626519

   => Energetics <=

    Nuclear Repulsion Energy =            417.1334899923501212
    One-Electron Energy =               -1347.3467667169677497
    Two-Electron Energy =                 546.4652639283524422
    Total Energy =                       -383.7480127962651295
  Basis Set: (AUG-CC-PVTZ AUX)
    Blend: AUG-CC-PVTZ-RI
    Molecular point group: c1

    Geometry (in Angstrom), charge = 0, multiplicity = 1:

       Center              X                  Y                   Z               Mass
    ------------   -----------------  -----------------  -----------------  -----------------
         O           -3.130798150988     0.129420657215     0.315191708425    15.994914619570
         C            0.995749349012    -0.016824842785    -0.362071491575    12.000000000000
         C            2.492798349012    -0.018046842785    -0.540592491575    12.000000000000
         C            0.286121349012    -1.214401842785    -0.245072491575    12.000000000000
         C            0.285384349012     1.182218157215    -0.237729491575    12.000000000000
         C            3.236790349012    -0.018943842785     0.795857508425    12.000000000000
         C           -1.090562650988    -1.219383842785    -0.016630491575    12.000000000000
         C           -1.152771850988     1.228799357215    -0.000017891575    12.000000000000
         C           -1.781021650988    -0.011041842785     0.100717508425    12.000000000000
         H            2.789308349012    -0.895227842785    -1.127378491575     1.007825032230
         H            2.789081349012     0.860308157215    -1.125535491575     1.007825032230
         H            0.815014349012    -2.161162842785    -0.337243491575     1.007825032230
         H            0.814740349012     2.128975157215    -0.323727491575     1.007825032230
         H            2.970565349012     0.862730157215     1.384930508425     1.007825032230
         H            4.322414349012    -0.018193842785     0.652481508425     1.007825032230
         H            2.971531349012    -0.902071842785     1.383202508425     1.007825032230
         H           -1.623295650988    -2.166051842785     0.064876508425     1.007825032230
         H           -1.637624650988     2.127377157215     0.078707508425     1.007825032230
         H           -3.488645650988    -0.847339842785     0.366735508425     1.007825032230

  Basis Set: AUG-CC-PVTZ
    Blend: AUG-CC-PVTZ
  Basis Set: (AUG-CC-PVTZ AUX)
    Blend: AUG-CC-PVTZ-JKFIT
	 Reference Energy          =    -383.7480127962651864 [Eh]
	 Singles Energy            =      -0.0000000000000000 [Eh]
	 Same-Spin Energy          =      -0.4139671851319766 [Eh]
	 Opposite-Spin Energy      =      -1.3224194712682704 [Eh]
	 Correlation Energy        =      -1.7363866564002470 [Eh]
	 Total Energy              =    -385.4843994526654569 [Eh]

	 ================> DF-SCS-MP2 Energies <==================
	-----------------------------------------------------------
	 SCS Same-Spin Scale       =       0.3333333333333333 [-]
	 SCS Opposite-Spin Scale   =       1.2000000000000000 [-]
	 SCS Same-Spin Energy      =      -0.1379890617106589 [Eh]
	 SCS Opposite-Spin Energy  =      -1.5869033655219245 [Eh]
	 SCS Correlation Energy    =      -1.7248924272325834 [Eh]
	 SCS Total Energy          =    -385.4729052234977758 [Eh]
	-----------------------------------------------------------

  Dipole Moment: [D]
     X:     0.4587      Y:    -1.3411      Z:    -0.0154     Total:     1.4175

*** Psi4 exiting successfully. Buy a developer a beer!
