                               Psi4 1.4a3.dev225

  ==> Input File <==

--------------------------------------------------------------------------
#psi4
#
memory 32 gb

molecule  {
0 1
  O        3.2216350    -0.1065060     0.2904990
  C       -0.9146420     0.0169590    -0.3639610
  C       -2.4121960     0.0318470    -0.5323860
  C       -0.1907600     1.2076380    -0.2374780
  C       -0.2138010    -1.1929940    -0.2539850
  C       -3.1413340    -0.0192130     0.8137010
  C        1.1888560     1.1991780    -0.0236810
  C        1.1619340    -1.2201410    -0.0407060
  C        1.8155783    -0.0153667     0.0730768
  H       -2.7091570     0.9353730    -1.0779940
  H       -2.7186560    -0.8212200    -1.1493620
  H       -0.7079800     2.1625600    -0.3214960
  H       -0.7531780    -2.1343060    -0.3521420
  H       -2.8726550    -0.9274190     1.3607640
  H       -4.2274440    -0.0080790     0.6778440
  H       -2.8630000     0.8390280     1.4320080
  H        1.7343360     2.1384520     0.0639930
  H        1.7070130    -2.1569100     0.0367280
  H        3.5799610     0.7963060     0.3524270
units angstrom
no_reorient  #important for SAPT in psi4, default
symmetry c1  #important for SAPT in psi4, default
}

set PROPERTIES_ORIGIN ["COM"]
properties('MP2/aug-cc-pvtz', properties = ['dipole'])
--------------------------------------------------------------------------

    Molecular point group: c1
  Charge       = 0
  Multiplicity = 1
  Basis Set: AUG-CC-PVTZ
    Blend: AUG-CC-PVTZ
  Basis Set: (AUG-CC-PVTZ AUX)
    Blend: AUG-CC-PVTZ-JKFIT

    Orbital Energies [Eh]
    ---------------------

    Doubly Occupied:

       1A    -20.579956     2A    -11.295525     3A    -11.240146
       4A    -11.238516     5A    -11.234927     6A    -11.234246
       7A    -11.229410     8A    -11.228895     9A    -11.216721
      10A     -1.373180    11A     -1.156526    12A     -1.061635
      13A     -1.021793    14A     -0.977045    15A     -0.860956
      16A     -0.845293    17A     -0.790241    18A     -0.717746
      19A     -0.670343    20A     -0.646385    21A     -0.612539
      22A     -0.597195    23A     -0.591861    24A     -0.575535
      25A     -0.567422    26A     -0.548053    27A     -0.522682
      28A     -0.504117    29A     -0.481689    30A     -0.480703
      31A     -0.470089    32A     -0.343159    33A     -0.311933

  @DF-RHF Final Energy:  -383.76298652026679

   => Energetics <=

    Nuclear Repulsion Energy =            418.4498320624305165
    One-Electron Energy =               -1349.9727096713506853
    Two-Electron Energy =                 547.7598910886533758
    Total Energy =                       -383.7629865202668498
  Basis Set: (AUG-CC-PVTZ AUX)
    Blend: AUG-CC-PVTZ-RI
    Molecular point group: c1

    Geometry (in Angstrom), charge = 0, multiplicity = 1:

       Center              X                  Y                   Z               Mass
    ------------   -----------------  -----------------  -----------------  -----------------
         O            3.146715058742    -0.100129204308     0.299573479967    15.994914619570
         C           -0.989561941258     0.023335795692    -0.354886520033    12.000000000000
         C           -2.487115941258     0.038223795692    -0.523311520033    12.000000000000
         C           -0.265679941258     1.214014795692    -0.228403520033    12.000000000000
         C           -0.288720941258    -1.186617204308    -0.244910520033    12.000000000000
         C           -3.216253941258    -0.012836204308     0.822775479967    12.000000000000
         C            1.113936058742     1.205554795692    -0.014606520033    12.000000000000
         C            1.087014058742    -1.213764204308    -0.031631520033    12.000000000000
         C            1.740658358742    -0.008989904308     0.082151279967    12.000000000000
         H           -2.784076941258     0.941749795692    -1.068919520033     1.007825032230
         H           -2.793575941258    -0.814843204308    -1.140287520033     1.007825032230
         H           -0.782899941258     2.168936795692    -0.312421520033     1.007825032230
         H           -0.828097941258    -2.127929204308    -0.343067520033     1.007825032230
         H           -2.947574941258    -0.921042204308     1.369838479967     1.007825032230
         H           -4.302363941258    -0.001702204308     0.686918479967     1.007825032230
         H           -2.937919941258     0.845404795692     1.441082479967     1.007825032230
         H            1.659416058742     2.144828795692     0.073067479967     1.007825032230
         H            1.632093058742    -2.150533204308     0.045802479967     1.007825032230
         H            3.505041058742     0.802682795692     0.361501479967     1.007825032230

  Basis Set: AUG-CC-PVTZ
    Blend: AUG-CC-PVTZ
  Basis Set: (AUG-CC-PVTZ AUX)
    Blend: AUG-CC-PVTZ-JKFIT
	 Reference Energy          =    -383.7629865202667929 [Eh]
	 Singles Energy            =      -0.0000000000000000 [Eh]
	 Same-Spin Energy          =      -0.4128325063288083 [Eh]
	 Opposite-Spin Energy      =      -1.3194795111507072 [Eh]
	 Correlation Energy        =      -1.7323120174795155 [Eh]
	 Total Energy              =    -385.4952985377462937 [Eh]

	 ================> DF-SCS-MP2 Energies <==================
	-----------------------------------------------------------
	 SCS Same-Spin Scale       =       0.3333333333333333 [-]
	 SCS Opposite-Spin Scale   =       1.2000000000000000 [-]
	 SCS Same-Spin Energy      =      -0.1376108354429361 [Eh]
	 SCS Opposite-Spin Energy  =      -1.5833754133808486 [Eh]
	 SCS Correlation Energy    =      -1.7209862488237848 [Eh]
	 SCS Total Energy          =    -385.4839727690905988 [Eh]
	-----------------------------------------------------------

  Dipole Moment: [D]
     X:    -0.8133      Y:     1.2722      Z:    -0.0540     Total:     1.5109

*** Psi4 exiting successfully. Buy a developer a beer!
