                               Psi4 1.3.2 release

  ==> Input File <==

--------------------------------------------------------------------------
#psi4
#
memory 32 gb

molecule  {
0 1
  O       -3.1426838     0.0465796     0.3171388
  C        0.9902420    -0.0039870    -0.3612050
  C        2.4872910    -0.0052090    -0.5397260
  C        0.2806140    -1.2015640    -0.2442060
  C        0.2798770     1.1950560    -0.2368630
  C        3.2312830    -0.0061060     0.7967240
  C       -1.0960700    -1.2065460    -0.0157640
  C       -1.0743904     1.1942327    -0.0124541
  C       -1.7865290     0.0017960     0.1015840
  H        2.7838010    -0.8823900    -1.1265120
  H        2.7835740     0.8731460    -1.1246690
  H        0.8095070    -2.1483250    -0.3363770
  H        0.8092330     2.1418130    -0.3228610
  H        2.9650580     0.8755680     1.3857970
  H        4.3169070    -0.0053560     0.6533480
  H        2.9660240    -0.8892340     1.3840690
  H       -1.6288030    -2.1532140     0.0657430
  H       -1.6431320     2.1402150     0.0795740
  H       -3.4941530    -0.8345020     0.3676020
units angstrom
no_reorient  #important for SAPT in psi4, default
symmetry c1  #important for SAPT in psi4, default
}

set PROPERTIES_ORIGIN ["COM"]
properties('MP2/aug-cc-pvtz', properties = ['dipole'])
--------------------------------------------------------------------------

    Molecular point group: c1
  Charge       = 0
  Multiplicity = 1
  Basis Set: AUG-CC-PVTZ
    Blend: AUG-CC-PVTZ
  Basis Set: (AUG-CC-PVTZ AUX)
    Blend: AUG-CC-PVTZ-JKFIT

    Orbital Energies [Eh]
    ---------------------

    Doubly Occupied:

       1A    -20.587469     2A    -11.299764     3A    -11.237221
       4A    -11.234283     5A    -11.233934     6A    -11.230865
       7A    -11.228742     8A    -11.226974     9A    -11.215286
      10A     -1.402693    11A     -1.153459    12A     -1.058635
      13A     -1.018449    14A     -0.976470    15A     -0.863849
      16A     -0.841267    17A     -0.792728    18A     -0.733958
      19A     -0.671964    20A     -0.646479    21A     -0.614706
      22A     -0.594739    23A     -0.588026    24A     -0.585210
      25A     -0.572289    26A     -0.554435    27A     -0.523756
      28A     -0.496587    29A     -0.480377    30A     -0.475829
      31A     -0.469853    32A     -0.342809    33A     -0.305425

  @DF-RHF Final Energy:  -383.76704700585242

   => Energetics <=

    Nuclear Repulsion Energy =            418.7655329441474805
    One-Electron Energy =               -1350.5481013132020962
    Two-Electron Energy =                 548.0155213632021969
    Total Energy =                       -383.7670470058524188
  Basis Set: (AUG-CC-PVTZ AUX)
    Blend: AUG-CC-PVTZ-RI
    Molecular point group: c1

    Geometry (in Angstrom), charge = 0, multiplicity = 1:

       Center              X                  Y                   Z               Mass
    ------------   -----------------  -----------------  -----------------  -----------------
         O           -3.144587131595     0.050938246201     0.317438398412    15.994914619570
         C            0.988338668405     0.000371646201    -0.360905401588    12.000000000000
         C            2.485387668405    -0.000850353799    -0.539426401588    12.000000000000
         C            0.278710668405    -1.197205353799    -0.243906401588    12.000000000000
         C            0.277973668405     1.199414646201    -0.236563401588    12.000000000000
         C            3.229379668405    -0.001747353799     0.797023598412    12.000000000000
         C           -1.097973331595    -1.202187353799    -0.015464401588    12.000000000000
         C           -1.076293731595     1.198591346201    -0.012154501588    12.000000000000
         C           -1.788432331595     0.006154646201     0.101883598412    12.000000000000
         H            2.781897668405    -0.878031353799    -1.126212401588     1.007825032230
         H            2.781670668405     0.877504646201    -1.124369401588     1.007825032230
         H            0.807603668405    -2.143966353799    -0.336077401588     1.007825032230
         H            0.807329668405     2.146171646201    -0.322561401588     1.007825032230
         H            2.963154668405     0.879926646201     1.386096598412     1.007825032230
         H            4.315003668405    -0.000997353799     0.653647598412     1.007825032230
         H            2.964120668405    -0.884875353799     1.384368598412     1.007825032230
         H           -1.630706331595    -2.148855353799     0.066042598412     1.007825032230
         H           -1.645035331595     2.144573646201     0.079873598412     1.007825032230
         H           -3.496056331595    -0.830143353799     0.367901598412     1.007825032230

  Basis Set: AUG-CC-PVTZ
    Blend: AUG-CC-PVTZ
  Basis Set: (AUG-CC-PVTZ AUX)
    Blend: AUG-CC-PVTZ-JKFIT
	 Reference Energy          =    -383.7670470058524188 [Eh]
	 Singles Energy            =      -0.0000000000000000 [Eh]
	 Same-Spin Energy          =      -0.4124449305925809 [Eh]
	 Opposite-Spin Energy      =      -1.3178349094344246 [Eh]
	 Correlation Energy        =      -1.7302798400270054 [Eh]
	 Total Energy              =    -385.4973268458793996 [Eh]

	 ================> DF-SCS-MP2 Energies <==================
	-----------------------------------------------------------
	 SCS Same-Spin Scale       =       0.3333333333333333 [-]
	 SCS Opposite-Spin Scale   =       1.2000000000000000 [-]
	 SCS Same-Spin Energy      =      -0.1374816435308603 [Eh]
	 SCS Opposite-Spin Energy  =      -1.5814018913213095 [Eh]
	 SCS Correlation Energy    =      -1.7188835348521698 [Eh]
	 SCS Total Energy          =    -385.4859305407046008 [Eh]
	-----------------------------------------------------------

  Dipole Moment: [D]
     X:     0.4726      Y:    -1.2507      Z:    -0.0203     Total:     1.3372

*** Psi4 exiting successfully. Buy a developer a beer!
