                               Psi4 1.3.2 release

  ==> Input File <==

--------------------------------------------------------------------------
#psi4
#
memory 32 gb

molecule  {
0 1
  O       -3.1417080     0.0705380     0.3169670
  C        0.9902420    -0.0039870    -0.3612050
  C        2.4872910    -0.0052090    -0.5397260
  C        0.2806140    -1.2015640    -0.2442060
  C        0.2798770     1.1950560    -0.2368630
  C        3.2312830    -0.0061060     0.7967240
  C       -1.0960700    -1.2065460    -0.0157640
  C       -1.0950530     1.2066380    -0.0091780
  C       -1.6878922    -0.0032074     0.0859073
  H        2.7838010    -0.8823900    -1.1265120
  H        2.7835740     0.8731460    -1.1246690
  H        0.8095070    -2.1483250    -0.3363770
  H        0.8092330     2.1418130    -0.3228610
  H        2.9650580     0.8755680     1.3857970
  H        4.3169070    -0.0053560     0.6533480
  H        2.9660240    -0.8892340     1.3840690
  H       -1.6288030    -2.1532140     0.0657430
  H       -1.6431320     2.1402150     0.0795740
  H       -3.4941530    -0.8345020     0.3676020
units angstrom
no_reorient  #important for SAPT in psi4, default
symmetry c1  #important for SAPT in psi4, default
}

set PROPERTIES_ORIGIN ["COM"]
properties('MP2/aug-cc-pvtz', properties = ['dipole'])
--------------------------------------------------------------------------

    Molecular point group: c1
  Charge       = 0
  Multiplicity = 1
  Basis Set: AUG-CC-PVTZ
    Blend: AUG-CC-PVTZ
  Basis Set: (AUG-CC-PVTZ AUX)
    Blend: AUG-CC-PVTZ-JKFIT

    Orbital Energies [Eh]
    ---------------------

    Doubly Occupied:

       1A    -20.570670     2A    -11.291714     3A    -11.241117
       4A    -11.239522     5A    -11.235589     6A    -11.234580
       7A    -11.229994     8A    -11.229414     9A    -11.217633
      10A     -1.352026    11A     -1.163963    12A     -1.065766
      13A     -1.027170    14A     -0.980117    15A     -0.861101
      16A     -0.849410    17A     -0.790857    18A     -0.709982
      19A     -0.670774    20A     -0.645888    21A     -0.612099
      22A     -0.604374    23A     -0.591622    24A     -0.571917
      25A     -0.562845    26A     -0.539722    27A     -0.521210
      28A     -0.509449    29A     -0.483655    30A     -0.479833
      31A     -0.472047    32A     -0.345315    33A     -0.318930

  @DF-RHF Final Energy:  -383.75460131239208

   => Energetics <=

    Nuclear Repulsion Energy =            419.0751532196194376
    One-Electron Energy =               -1351.2189005164354967
    Two-Electron Energy =                 548.3891459844239762
    Total Energy =                       -383.7546013123920829
  Basis Set: (AUG-CC-PVTZ AUX)
    Blend: AUG-CC-PVTZ-RI
    Molecular point group: c1

    Geometry (in Angstrom), charge = 0, multiplicity = 1:

       Center              X                  Y                   Z               Mass
    ------------   -----------------  -----------------  -----------------  -----------------
         O           -3.151404184661     0.071029822869     0.318508108996    15.994914619570
         C            0.980545815339    -0.003495177131    -0.359663891004    12.000000000000
         C            2.477594815339    -0.004717177131    -0.538184891004    12.000000000000
         C            0.270917815339    -1.201072177131    -0.242664891004    12.000000000000
         C            0.270180815339     1.195547822869    -0.235321891004    12.000000000000
         C            3.221586815339    -0.005614177131     0.798265108996    12.000000000000
         C           -1.105766184661    -1.206054177131    -0.014222891004    12.000000000000
         C           -1.104749184661     1.207129822869    -0.007636891004    12.000000000000
         C           -1.697588384661    -0.002715577131     0.087448408996    12.000000000000
         H            2.774104815339    -0.881898177131    -1.124970891004     1.007825032230
         H            2.773877815339     0.873637822869    -1.123127891004     1.007825032230
         H            0.799810815339    -2.147833177131    -0.334835891004     1.007825032230
         H            0.799536815339     2.142304822869    -0.321319891004     1.007825032230
         H            2.955361815339     0.876059822869     1.387338108996     1.007825032230
         H            4.307210815339    -0.004864177131     0.654889108996     1.007825032230
         H            2.956327815339    -0.888742177131     1.385610108996     1.007825032230
         H           -1.638499184661    -2.152722177131     0.067284108996     1.007825032230
         H           -1.652828184661     2.140706822869     0.081115108996     1.007825032230
         H           -3.503849184661    -0.834010177131     0.369143108996     1.007825032230

  Basis Set: AUG-CC-PVTZ
    Blend: AUG-CC-PVTZ
  Basis Set: (AUG-CC-PVTZ AUX)
    Blend: AUG-CC-PVTZ-JKFIT
	 Reference Energy          =    -383.7546013123920829 [Eh]
	 Singles Energy            =      -0.0000000000000000 [Eh]
	 Same-Spin Energy          =      -0.4130171970121802 [Eh]
	 Opposite-Spin Energy      =      -1.3200266068030007 [Eh]
	 Correlation Energy        =      -1.7330438038151810 [Eh]
	 Total Energy              =    -385.4876451162072613 [Eh]

	 ================> DF-SCS-MP2 Energies <==================
	-----------------------------------------------------------
	 SCS Same-Spin Scale       =       0.3333333333333333 [-]
	 SCS Opposite-Spin Scale   =       1.2000000000000000 [-]
	 SCS Same-Spin Energy      =      -0.1376723990040601 [Eh]
	 SCS Opposite-Spin Energy  =      -1.5840319281636008 [Eh]
	 SCS Correlation Energy    =      -1.7217043271676609 [Eh]
	 SCS Total Energy          =    -385.4763056395597687 [Eh]
	-----------------------------------------------------------

  Dipole Moment: [D]
     X:     1.1481      Y:    -1.2597      Z:    -0.1189     Total:     1.7085

*** Psi4 exiting successfully. Buy a developer a beer!
