                               Psi4 1.3.2 release

  ==> Input File <==

--------------------------------------------------------------------------
#psi4
#
memory 32 gb

molecule  {
0 1
  O       -3.1427106     0.0465800     0.3169706
  C        0.9902420    -0.0039870    -0.3612050
  C        2.4872910    -0.0052090    -0.5397260
  C        0.2806140    -1.2015640    -0.2442060
  C        0.2798770     1.1950560    -0.2368630
  C        3.2312830    -0.0061060     0.7967240
  C       -1.1170160    -1.2185839    -0.0125200
  C       -1.0950530     1.2066380    -0.0091780
  C       -1.7865290     0.0017960     0.1015840
  H        2.7838010    -0.8823900    -1.1265120
  H        2.7835740     0.8731460    -1.1246690
  H        0.8095070    -2.1483250    -0.3363770
  H        0.8092330     2.1418130    -0.3228610
  H        2.9650580     0.8755680     1.3857970
  H        4.3169070    -0.0053560     0.6533480
  H        2.9660240    -0.8892340     1.3840690
  H       -1.6288030    -2.1532140     0.0657430
  H       -1.6431320     2.1402150     0.0795740
  H       -3.4941530    -0.8345020     0.3676020
units angstrom
no_reorient  #important for SAPT in psi4, default
symmetry c1  #important for SAPT in psi4, default
}

set PROPERTIES_ORIGIN ["COM"]
properties('MP2/aug-cc-pvtz', properties = ['dipole'])
--------------------------------------------------------------------------

    Molecular point group: c1
  Charge       = 0
  Multiplicity = 1
  Basis Set: AUG-CC-PVTZ
    Blend: AUG-CC-PVTZ
  Basis Set: (AUG-CC-PVTZ AUX)
    Blend: AUG-CC-PVTZ-JKFIT

    Orbital Energies [Eh]
    ---------------------

    Doubly Occupied:

       1A    -20.585362     2A    -11.300228     3A    -11.240262
       4A    -11.237466     5A    -11.234190     6A    -11.231261
       7A    -11.229216     8A    -11.227302     9A    -11.215338
      10A     -1.401801    11A     -1.149598    12A     -1.058316
      13A     -1.015075    14A     -0.976522    15A     -0.862558
      16A     -0.844029    17A     -0.792943    18A     -0.732253
      19A     -0.670175    20A     -0.650245    21A     -0.615812
      22A     -0.596157    23A     -0.587924    24A     -0.585878
      25A     -0.570504    26A     -0.552143    27A     -0.523093
      28A     -0.499625    29A     -0.480409    30A     -0.478253
      31A     -0.466840    32A     -0.338497    33A     -0.306776

  @DF-RHF Final Energy:  -383.76687216013966

   => Energetics <=

    Nuclear Repulsion Energy =            418.0745167104849997
    One-Electron Energy =               -1349.1706747079201705
    Two-Electron Energy =                 547.3292858372955152
    Total Energy =                       -383.7668721601396555
  Basis Set: (AUG-CC-PVTZ AUX)
    Blend: AUG-CC-PVTZ-RI
    Molecular point group: c1

    Geometry (in Angstrom), charge = 0, multiplicity = 1:

       Center              X                  Y                   Z               Mass
    ------------   -----------------  -----------------  -----------------  -----------------
         O           -3.140520223826     0.050902477744     0.316651300267    15.994914619570
         C            0.992432376174     0.000335477744    -0.361524299733    12.000000000000
         C            2.489481376174    -0.000886522256    -0.540045299733    12.000000000000
         C            0.282804376174    -1.197241522256    -0.244525299733    12.000000000000
         C            0.282067376174     1.199378477744    -0.237182299733    12.000000000000
         C            3.233473376174    -0.001783522256     0.796404700267    12.000000000000
         C           -1.114825623826    -1.214261422256    -0.012839299733    12.000000000000
         C           -1.092862623826     1.210960477744    -0.009497299733    12.000000000000
         C           -1.784338623826     0.006118477744     0.101264700267    12.000000000000
         H            2.785991376174    -0.878067522256    -1.126831299733     1.007825032230
         H            2.785764376174     0.877468477744    -1.124988299733     1.007825032230
         H            0.811697376174    -2.144002522256    -0.336696299733     1.007825032230
         H            0.811423376174     2.146135477744    -0.323180299733     1.007825032230
         H            2.967248376174     0.879890477744     1.385477700267     1.007825032230
         H            4.319097376174    -0.001033522256     0.653028700267     1.007825032230
         H            2.968214376174    -0.884911522256     1.383749700267     1.007825032230
         H           -1.626612623826    -2.148891522256     0.065423700267     1.007825032230
         H           -1.640941623826     2.144537477744     0.079254700267     1.007825032230
         H           -3.491962623826    -0.830179522256     0.367282700267     1.007825032230

  Basis Set: AUG-CC-PVTZ
    Blend: AUG-CC-PVTZ
  Basis Set: (AUG-CC-PVTZ AUX)
    Blend: AUG-CC-PVTZ-JKFIT
	 Reference Energy          =    -383.7668721601396555 [Eh]
	 Singles Energy            =      -0.0000000000000000 [Eh]
	 Same-Spin Energy          =      -0.4123317161354139 [Eh]
	 Opposite-Spin Energy      =      -1.3179711562881944 [Eh]
	 Correlation Energy        =      -1.7303028724236083 [Eh]
	 Total Energy              =    -385.4971750325632911 [Eh]

	 ================> DF-SCS-MP2 Energies <==================
	-----------------------------------------------------------
	 SCS Same-Spin Scale       =       0.3333333333333333 [-]
	 SCS Opposite-Spin Scale   =       1.2000000000000000 [-]
	 SCS Same-Spin Energy      =      -0.1374439053784713 [Eh]
	 SCS Opposite-Spin Energy  =      -1.5815653875458333 [Eh]
	 SCS Correlation Energy    =      -1.7190092929243046 [Eh]
	 SCS Total Energy          =    -385.4858814530639393 [Eh]
	-----------------------------------------------------------

  Dipole Moment: [D]
     X:     0.4923      Y:    -1.2456      Z:    -0.0215     Total:     1.3396

*** Psi4 exiting successfully. Buy a developer a beer!
