                               Psi4 1.3.2 release

  ==> Input File <==

--------------------------------------------------------------------------
#psi4
#
memory 32 gb

molecule  {
0 1
  O       -3.1417080     0.0705380     0.3169670
  C        0.9902420    -0.0039870    -0.3612050
  C        2.4872910    -0.0052090    -0.5397260
  C        0.2806140    -1.2015640    -0.2442060
  C        0.2798770     1.1950560    -0.2368630
  C        3.2312830    -0.0061060     0.7967240
  C       -1.0960700    -1.2065460    -0.0157640
  C       -1.0950530     1.2066380    -0.0091780
  C       -1.7865290     0.0017960     0.1015840
  H        2.7838010    -0.8823900    -1.1265120
  H        2.7835740     0.8731460    -1.1246690
  H        0.8095070    -2.1483250    -0.3363770
  H        0.8092330     2.1418130    -0.3228610
  H        2.9650580     0.8755680     1.3857970
  H        4.3169070    -0.0053560     0.6533480
  H        2.9660240    -0.8892340     1.3840690
  H       -1.6288030    -2.1532140     0.0657430
  H       -1.6431320     2.1402150     0.0795740
  H       -3.5303918    -0.9275592     0.3728083
units angstrom
no_reorient  #important for SAPT in psi4, default
symmetry c1  #important for SAPT in psi4, default
}

set PROPERTIES_ORIGIN ["COM"]
properties('MP2/aug-cc-pvtz', properties = ['dipole'])
--------------------------------------------------------------------------

    Molecular point group: c1
  Charge       = 0
  Multiplicity = 1
  Basis Set: AUG-CC-PVTZ
    Blend: AUG-CC-PVTZ
  Basis Set: (AUG-CC-PVTZ AUX)
    Blend: AUG-CC-PVTZ-JKFIT

    Orbital Energies [Eh]
    ---------------------

    Doubly Occupied:

       1A    -20.596694     2A    -11.298610     3A    -11.237670
       4A    -11.236012     5A    -11.233920     6A    -11.230281
       7A    -11.227708     8A    -11.226692     9A    -11.214928
      10A     -1.380527    11A     -1.149661    12A     -1.056349
      13A     -1.016109    14A     -0.973126    15A     -0.858402
      16A     -0.841252    17A     -0.787905    18A     -0.714262
      19A     -0.670103    20A     -0.645817    21A     -0.608954
      22A     -0.595029    23A     -0.586213    24A     -0.583893
      25A     -0.567496    26A     -0.551072    27A     -0.522834
      28A     -0.496751    29A     -0.479552    30A     -0.477503
      31A     -0.467111    32A     -0.340078    33A     -0.304786

  @DF-RHF Final Energy:  -383.75322890168394

   => Energetics <=

    Nuclear Repulsion Energy =            417.7758947466784889
    One-Electron Energy =               -1348.7036495912088867
    Two-Electron Energy =                 547.1745259428465715
    Total Energy =                       -383.7532289016838831
  Basis Set: (AUG-CC-PVTZ AUX)
    Blend: AUG-CC-PVTZ-RI
    Molecular point group: c1

    Geometry (in Angstrom), charge = 0, multiplicity = 1:

       Center              X                  Y                   Z               Mass
    ------------   -----------------  -----------------  -----------------  -----------------
         O           -3.141408834984     0.071306251973     0.316924079946    15.994914619570
         C            0.990541165016    -0.003218748027    -0.361247920054    12.000000000000
         C            2.487590165016    -0.004440748027    -0.539768920054    12.000000000000
         C            0.280913165016    -1.200795748027    -0.244248920054    12.000000000000
         C            0.280176165016     1.195824251973    -0.236905920054    12.000000000000
         C            3.231582165016    -0.005337748027     0.796681079946    12.000000000000
         C           -1.095770834984    -1.205777748027    -0.015806920054    12.000000000000
         C           -1.094753834984     1.207406251973    -0.009220920054    12.000000000000
         C           -1.786229834984     0.002564251973     0.101541079946    12.000000000000
         H            2.784100165016    -0.881621748027    -1.126554920054     1.007825032230
         H            2.783873165016     0.873914251973    -1.124711920054     1.007825032230
         H            0.809806165016    -2.147556748027    -0.336419920054     1.007825032230
         H            0.809532165016     2.142581251973    -0.322903920054     1.007825032230
         H            2.965357165016     0.876336251973     1.385754079946     1.007825032230
         H            4.317206165016    -0.004587748027     0.653305079946     1.007825032230
         H            2.966323165016    -0.888465748027     1.384026079946     1.007825032230
         H           -1.628503834984    -2.152445748027     0.065700079946     1.007825032230
         H           -1.642832834984     2.140983251973     0.079531079946     1.007825032230
         H           -3.530092634984    -0.926790948027     0.372765379946     1.007825032230

  Basis Set: AUG-CC-PVTZ
    Blend: AUG-CC-PVTZ
  Basis Set: (AUG-CC-PVTZ AUX)
    Blend: AUG-CC-PVTZ-JKFIT
	 Reference Energy          =    -383.7532289016839400 [Eh]
	 Singles Energy            =      -0.0000000000000000 [Eh]
	 Same-Spin Energy          =      -0.4139916325513701 [Eh]
	 Opposite-Spin Energy      =      -1.3220307506167668 [Eh]
	 Correlation Energy        =      -1.7360223831681370 [Eh]
	 Total Energy              =    -385.4892512848520596 [Eh]

	 ================> DF-SCS-MP2 Energies <==================
	-----------------------------------------------------------
	 SCS Same-Spin Scale       =       0.3333333333333333 [-]
	 SCS Opposite-Spin Scale   =       1.2000000000000000 [-]
	 SCS Same-Spin Energy      =      -0.1379972108504567 [Eh]
	 SCS Opposite-Spin Energy  =      -1.5864369007401200 [Eh]
	 SCS Correlation Energy    =      -1.7244341115905768 [Eh]
	 SCS Total Energy          =    -385.4776630132745368 [Eh]
	-----------------------------------------------------------

  Dipole Moment: [D]
     X:     0.3890      Y:    -1.3462      Z:    -0.0083     Total:     1.4013

*** Psi4 exiting successfully. Buy a developer a beer!
