                               Psi4 1.3.2 release

  ==> Input File <==

--------------------------------------------------------------------------
#psi4
#
memory 32 gb

molecule  {
0 1
  O       -3.1417080     0.0705380     0.3169670
  C        0.9902420    -0.0039870    -0.3612050
  C        2.4872910    -0.0052090    -0.5397260
  C        0.2806140    -1.2015640    -0.2442060
  C        0.2798770     1.1950560    -0.2368630
  C        3.2312830    -0.0061060     0.7967240
  C       -1.0960700    -1.2065460    -0.0157640
  C       -1.0950530     1.2066380    -0.0091780
  C       -1.7231239     0.0367924     0.0915097
  H        2.7838010    -0.8823900    -1.1265120
  H        2.7835740     0.8731460    -1.1246690
  H        0.8095070    -2.1483250    -0.3363770
  H        0.8092330     2.1418130    -0.3228610
  H        2.9650580     0.8755680     1.3857970
  H        4.3169070    -0.0053560     0.6533480
  H        2.9660240    -0.8892340     1.3840690
  H       -1.5791830    -2.1801209     0.0575979
  H       -1.6431320     2.1402150     0.0795740
  H       -3.4941530    -0.8345020     0.3676020
units angstrom
no_reorient  #important for SAPT in psi4, default
symmetry c1  #important for SAPT in psi4, default
}

set PROPERTIES_ORIGIN ["COM"]
properties('MP2/aug-cc-pvtz', properties = ['dipole'])
--------------------------------------------------------------------------

    Molecular point group: c1
  Charge       = 0
  Multiplicity = 1
  Basis Set: AUG-CC-PVTZ
    Blend: AUG-CC-PVTZ
  Basis Set: (AUG-CC-PVTZ AUX)
    Blend: AUG-CC-PVTZ-JKFIT

    Orbital Energies [Eh]
    ---------------------

    Doubly Occupied:

       1A    -20.575840     2A    -11.294915     3A    -11.239646
       4A    -11.238581     5A    -11.238099     6A    -11.233706
       7A    -11.228869     8A    -11.224738     9A    -11.216801
      10A     -1.366312    11A     -1.159431    12A     -1.063661
      13A     -1.023761    14A     -0.978329    15A     -0.863023
      16A     -0.843479    17A     -0.791125    18A     -0.718393
      19A     -0.667453    20A     -0.648555    21A     -0.614396
      22A     -0.601043    23A     -0.589480    24A     -0.574832
      25A     -0.567367    26A     -0.543121    27A     -0.522583
      28A     -0.504933    29A     -0.482034    30A     -0.478816
      31A     -0.470867    32A     -0.344094    33A     -0.314245

  @DF-RHF Final Energy:  -383.75885784746782

   => Energetics <=

    Nuclear Repulsion Energy =            418.7875536212593488
    One-Electron Energy =               -1350.6477689166301843
    Two-Electron Energy =                 548.1013574479029558
    Total Energy =                       -383.7588578474678798
  Basis Set: (AUG-CC-PVTZ AUX)
    Blend: AUG-CC-PVTZ-RI
    Molecular point group: c1

    Geometry (in Angstrom), charge = 0, multiplicity = 1:

       Center              X                  Y                   Z               Mass
    ------------   -----------------  -----------------  -----------------  -----------------
         O           -3.148350506794     0.067319915348     0.318024628746    15.994914619570
         C            0.983599493206    -0.007205084652    -0.360147371254    12.000000000000
         C            2.480648493206    -0.008427084652    -0.538668371254    12.000000000000
         C            0.273971493206    -1.204782084652    -0.243148371254    12.000000000000
         C            0.273234493206     1.191837915348    -0.235805371254    12.000000000000
         C            3.224640493206    -0.009324084652     0.797781628746    12.000000000000
         C           -1.102712506794    -1.209764084652    -0.014706371254    12.000000000000
         C           -1.101695506794     1.203419915348    -0.008120371254    12.000000000000
         C           -1.729766406794     0.033574315348     0.092567328746    12.000000000000
         H            2.777158493206    -0.885608084652    -1.125454371254     1.007825032230
         H            2.776931493206     0.869927915348    -1.123611371254     1.007825032230
         H            0.802864493206    -2.151543084652    -0.335319371254     1.007825032230
         H            0.802590493206     2.138594915348    -0.321803371254     1.007825032230
         H            2.958415493206     0.872349915348     1.386854628746     1.007825032230
         H            4.310264493206    -0.008574084652     0.654405628746     1.007825032230
         H            2.959381493206    -0.892452084652     1.385126628746     1.007825032230
         H           -1.585825506794    -2.183338984652     0.058655528746     1.007825032230
         H           -1.649774506794     2.136996915348     0.080631628746     1.007825032230
         H           -3.500795506794    -0.837720084652     0.368659628746     1.007825032230

  Basis Set: AUG-CC-PVTZ
    Blend: AUG-CC-PVTZ
  Basis Set: (AUG-CC-PVTZ AUX)
    Blend: AUG-CC-PVTZ-JKFIT
	 Reference Energy          =    -383.7588578474678229 [Eh]
	 Singles Energy            =      -0.0000000000000000 [Eh]
	 Same-Spin Energy          =      -0.4127562416243409 [Eh]
	 Opposite-Spin Energy      =      -1.3193227267461729 [Eh]
	 Correlation Energy        =      -1.7320789683705138 [Eh]
	 Total Energy              =    -385.4909368158383245 [Eh]

	 ================> DF-SCS-MP2 Energies <==================
	-----------------------------------------------------------
	 SCS Same-Spin Scale       =       0.3333333333333333 [-]
	 SCS Opposite-Spin Scale   =       1.2000000000000000 [-]
	 SCS Same-Spin Energy      =      -0.1375854138747803 [Eh]
	 SCS Opposite-Spin Energy  =      -1.5831872720954074 [Eh]
	 SCS Correlation Energy    =      -1.7207726859701877 [Eh]
	 SCS Total Energy          =    -385.4796305334380122 [Eh]
	-----------------------------------------------------------

  Dipole Moment: [D]
     X:     0.9347      Y:    -1.2651      Z:    -0.0883     Total:     1.5755

*** Psi4 exiting successfully. Buy a developer a beer!
