                               Psi4 1.3.2 release

  ==> Input File <==

--------------------------------------------------------------------------
#psi4
#
memory 32 gb

molecule  {
0 1
  O       -3.1417080     0.0705380     0.3169670
  C        0.9902420    -0.0039870    -0.3612050
  C        2.4871723    -0.0183585    -0.5401467
  C        0.2806140    -1.2015640    -0.2442060
  C        0.2694841     1.1887298    -0.2358331
  C        3.2312830    -0.0061060     0.7967240
  C       -1.0960700    -1.2065460    -0.0157640
  C       -1.0950530     1.2066380    -0.0091780
  C       -1.7865290     0.0017960     0.1015840
  H        2.7838010    -0.8823900    -1.1265120
  H        2.7835740     0.8731460    -1.1246690
  H        0.8095070    -2.1483250    -0.3363770
  H        0.8092330     2.1418130    -0.3228610
  H        2.9650580     0.8755680     1.3857970
  H        4.3169070    -0.0053560     0.6533480
  H        2.9660240    -0.8892340     1.3840690
  H       -1.6288030    -2.1532140     0.0657430
  H       -1.6431320     2.1402150     0.0795740
  H       -3.4941530    -0.8345020     0.3676020
units angstrom
no_reorient  #important for SAPT in psi4, default
symmetry c1  #important for SAPT in psi4, default
}

set PROPERTIES_ORIGIN ["COM"]
properties('MP2/aug-cc-pvtz', properties = ['dipole'])
--------------------------------------------------------------------------

    Molecular point group: c1
  Charge       = 0
  Multiplicity = 1
  Basis Set: AUG-CC-PVTZ
    Blend: AUG-CC-PVTZ
  Basis Set: (AUG-CC-PVTZ AUX)
    Blend: AUG-CC-PVTZ-JKFIT

    Orbital Energies [Eh]
    ---------------------

    Doubly Occupied:

       1A    -20.589487     2A    -11.299451     3A    -11.237789
       4A    -11.236303     5A    -11.234144     6A    -11.230717
       7A    -11.227344     8A    -11.227265     9A    -11.215332
      10A     -1.398641    11A     -1.151982    12A     -1.058181
      13A     -1.017596    14A     -0.975592    15A     -0.862099
      16A     -0.841715    17A     -0.792470    18A     -0.727849
      19A     -0.671957    20A     -0.647318    21A     -0.612721
      22A     -0.595254    23A     -0.587799    24A     -0.585046
      25A     -0.570786    26A     -0.555351    27A     -0.523451
      28A     -0.497202    29A     -0.481401    30A     -0.476683
      31A     -0.468689    32A     -0.341610    33A     -0.305530

  @DF-RHF Final Energy:  -383.76647727835791

   => Energetics <=

    Nuclear Repulsion Energy =            418.4763205244702817
    One-Electron Energy =               -1349.9960898007921060
    Two-Electron Energy =                 547.7532919979638564
    Total Energy =                       -383.7664772783579110
  Basis Set: (AUG-CC-PVTZ AUX)
    Blend: AUG-CC-PVTZ-RI
    Molecular point group: c1

    Geometry (in Angstrom), charge = 0, multiplicity = 1:

       Center              X                  Y                   Z               Mass
    ------------   -----------------  -----------------  -----------------  -----------------
         O           -3.140674711065     0.072452474605     0.316907177292    15.994914619570
         C            0.991275288935    -0.002072525395    -0.361264822708    12.000000000000
         C            2.488205588935    -0.016444025395    -0.540206522708    12.000000000000
         C            0.281647288935    -1.199649525395    -0.244265822708    12.000000000000
         C            0.270517388935     1.190644274605    -0.235892922708    12.000000000000
         C            3.232316288935    -0.004191525395     0.796664177292    12.000000000000
         C           -1.095036711065    -1.204631525395    -0.015823822708    12.000000000000
         C           -1.094019711065     1.208552474605    -0.009237822708    12.000000000000
         C           -1.785495711065     0.003710474605     0.101524177292    12.000000000000
         H            2.784834288935    -0.880475525395    -1.126571822708     1.007825032230
         H            2.784607288935     0.875060474605    -1.124728822708     1.007825032230
         H            0.810540288935    -2.146410525395    -0.336436822708     1.007825032230
         H            0.810266288935     2.143727474605    -0.322920822708     1.007825032230
         H            2.966091288935     0.877482474605     1.385737177292     1.007825032230
         H            4.317940288935    -0.003441525395     0.653288177292     1.007825032230
         H            2.967057288935    -0.887319525395     1.384009177292     1.007825032230
         H           -1.627769711065    -2.151299525395     0.065683177292     1.007825032230
         H           -1.642098711065     2.142129474605     0.079514177292     1.007825032230
         H           -3.493119711065    -0.832587525395     0.367542177292     1.007825032230

  Basis Set: AUG-CC-PVTZ
    Blend: AUG-CC-PVTZ
  Basis Set: (AUG-CC-PVTZ AUX)
    Blend: AUG-CC-PVTZ-JKFIT
	 Reference Energy          =    -383.7664772783579110 [Eh]
	 Singles Energy            =      -0.0000000000000000 [Eh]
	 Same-Spin Energy          =      -0.4127464194892084 [Eh]
	 Opposite-Spin Energy      =      -1.3186775609753563 [Eh]
	 Correlation Energy        =      -1.7314239804645646 [Eh]
	 Total Energy              =    -385.4979012588224805 [Eh]

	 ================> DF-SCS-MP2 Energies <==================
	-----------------------------------------------------------
	 SCS Same-Spin Scale       =       0.3333333333333333 [-]
	 SCS Opposite-Spin Scale   =       1.2000000000000000 [-]
	 SCS Same-Spin Energy      =      -0.1375821398297361 [Eh]
	 SCS Opposite-Spin Energy  =      -1.5824130731704276 [Eh]
	 SCS Correlation Energy    =      -1.7199952130001637 [Eh]
	 SCS Total Energy          =    -385.4864724913580858 [Eh]
	-----------------------------------------------------------

  Dipole Moment: [D]
     X:     0.4616      Y:    -1.2804      Z:    -0.0167     Total:     1.3611

*** Psi4 exiting successfully. Buy a developer a beer!
