                               Psi4 1.3.2 release

  ==> Input File <==

--------------------------------------------------------------------------
#psi4
#
memory 32 gb

molecule  {
0 1
  O       -3.1417080     0.0705380     0.3169670
  C        0.9902420    -0.0039870    -0.3612050
  C        2.4872910    -0.0052090    -0.5397260
  C        0.2806140    -1.2015640    -0.2442060
  C        0.2798770     1.1950560    -0.2368630
  C        3.2312830    -0.0061060     0.7967240
  C       -1.0960700    -1.2065460    -0.0157640
  C       -1.0950530     1.2066380    -0.0091780
  C       -1.7969171    -0.0043615     0.1032325
  H        2.7838010    -0.8823900    -1.1265120
  H        2.7835740     0.8731460    -1.1246690
  H        0.8095070    -2.1483250    -0.3363770
  H        0.8092330     2.1418130    -0.3228610
  H        2.9650580     0.8755680     1.3857970
  H        4.3169070    -0.0053560     0.6533480
  H        2.9660240    -0.8892340     1.3840690
  H       -1.6369347    -2.1484752     0.0670794
  H       -1.6431320     2.1402150     0.0795740
  H       -3.4941530    -0.8345020     0.3676020
units angstrom
no_reorient  #important for SAPT in psi4, default
symmetry c1  #important for SAPT in psi4, default
}

set PROPERTIES_ORIGIN ["COM"]
properties('MP2/aug-cc-pvtz', properties = ['dipole'])
--------------------------------------------------------------------------

    Molecular point group: c1
  Charge       = 0
  Multiplicity = 1
  Basis Set: AUG-CC-PVTZ
    Blend: AUG-CC-PVTZ
  Basis Set: (AUG-CC-PVTZ AUX)
    Blend: AUG-CC-PVTZ-JKFIT

    Orbital Energies [Eh]
    ---------------------

    Doubly Occupied:

       1A    -20.591669     2A    -11.300188     3A    -11.237936
       4A    -11.235963     5A    -11.234109     6A    -11.230458
       7A    -11.228664     8A    -11.226757     9A    -11.214980
      10A     -1.404286    11A     -1.149849    12A     -1.057144
      13A     -1.015634    14A     -0.975168    15A     -0.861629
      16A     -0.842762    17A     -0.791725    18A     -0.730002
      19A     -0.673205    20A     -0.646549    21A     -0.612735
      22A     -0.596475    23A     -0.589893    24A     -0.584991
      25A     -0.569349    26A     -0.557214    27A     -0.523320
      28A     -0.496752    29A     -0.479895    30A     -0.477246
      31A     -0.467661    32A     -0.340062    33A     -0.304348

  @DF-RHF Final Energy:  -383.76655132763369

   => Energetics <=

    Nuclear Repulsion Energy =            418.2579751232227636
    One-Electron Energy =               -1349.5518113147313670
    Two-Electron Energy =                 547.5272848638749110
    Total Energy =                       -383.7665513276336924
  Basis Set: (AUG-CC-PVTZ AUX)
    Blend: AUG-CC-PVTZ-RI
    Molecular point group: c1

    Geometry (in Angstrom), charge = 0, multiplicity = 1:

       Center              X                  Y                   Z               Mass
    ------------   -----------------  -----------------  -----------------  -----------------
         O           -3.140619716744     0.071104149759     0.316793979134    15.994914619570
         C            0.991330283256    -0.003420850241    -0.361378020866    12.000000000000
         C            2.488379283256    -0.004642850241    -0.539899020866    12.000000000000
         C            0.281702283256    -1.200997850241    -0.244379020866    12.000000000000
         C            0.280965283256     1.195622149759    -0.237036020866    12.000000000000
         C            3.232371283256    -0.005539850241     0.796550979134    12.000000000000
         C           -1.094981716744    -1.205979850241    -0.015937020866    12.000000000000
         C           -1.093964716744     1.207204149759    -0.009351020866    12.000000000000
         C           -1.795828816744    -0.003795350241     0.103059479134    12.000000000000
         H            2.784889283256    -0.881823850241    -1.126685020866     1.007825032230
         H            2.784662283256     0.873712149759    -1.124842020866     1.007825032230
         H            0.810595283256    -2.147758850241    -0.336550020866     1.007825032230
         H            0.810321283256     2.142379149759    -0.323034020866     1.007825032230
         H            2.966146283256     0.876134149759     1.385623979134     1.007825032230
         H            4.317995283256    -0.004789850241     0.653174979134     1.007825032230
         H            2.967112283256    -0.888667850241     1.383895979134     1.007825032230
         H           -1.635846416744    -2.147909050241     0.066906379134     1.007825032230
         H           -1.642043716744     2.140781149759     0.079400979134     1.007825032230
         H           -3.493064716744    -0.833935850241     0.367428979134     1.007825032230

  Basis Set: AUG-CC-PVTZ
    Blend: AUG-CC-PVTZ
  Basis Set: (AUG-CC-PVTZ AUX)
    Blend: AUG-CC-PVTZ-JKFIT
	 Reference Energy          =    -383.7665513276336924 [Eh]
	 Singles Energy            =      -0.0000000000000000 [Eh]
	 Same-Spin Energy          =      -0.4127736349734925 [Eh]
	 Opposite-Spin Energy      =      -1.3187193694612811 [Eh]
	 Correlation Energy        =      -1.7314930044347736 [Eh]
	 Total Energy              =    -385.4980443320684458 [Eh]

	 ================> DF-SCS-MP2 Energies <==================
	-----------------------------------------------------------
	 SCS Same-Spin Scale       =       0.3333333333333333 [-]
	 SCS Opposite-Spin Scale   =       1.2000000000000000 [-]
	 SCS Same-Spin Energy      =      -0.1375912116578308 [Eh]
	 SCS Opposite-Spin Energy  =      -1.5824632433535373 [Eh]
	 SCS Correlation Energy    =      -1.7200544550113681 [Eh]
	 SCS Total Energy          =    -385.4866057826450856 [Eh]
	-----------------------------------------------------------

  Dipole Moment: [D]
     X:     0.3859      Y:    -1.2719      Z:    -0.0068     Total:     1.3291

*** Psi4 exiting successfully. Buy a developer a beer!
