                               Psi4 1.3.2 release

  ==> Input File <==

--------------------------------------------------------------------------
#psi4
#
memory 32 gb

molecule  {
0 1
  O       -3.1417080     0.0705380     0.3169670
  C        0.9902420    -0.0039870    -0.3612050
  C        2.4871254    -0.0315116    -0.5389955
  C        0.3015229    -1.2139165    -0.2463660
  C        0.2798770     1.1950560    -0.2368630
  C        3.2312830    -0.0061060     0.7967240
  C       -1.0960700    -1.2065460    -0.0157640
  C       -1.0950530     1.2066380    -0.0091780
  C       -1.7865290     0.0017960     0.1015840
  H        2.7838010    -0.8823900    -1.1265120
  H        2.7835740     0.8731460    -1.1246690
  H        0.8095070    -2.1483250    -0.3363770
  H        0.8092330     2.1418130    -0.3228610
  H        2.9650580     0.8755680     1.3857970
  H        4.3169070    -0.0053560     0.6533480
  H        2.9660240    -0.8892340     1.3840690
  H       -1.6288030    -2.1532140     0.0657430
  H       -1.6431320     2.1402150     0.0795740
  H       -3.4941530    -0.8345020     0.3676020
units angstrom
no_reorient  #important for SAPT in psi4, default
symmetry c1  #important for SAPT in psi4, default
}

set PROPERTIES_ORIGIN ["COM"]
properties('MP2/aug-cc-pvtz', properties = ['dipole'])
--------------------------------------------------------------------------

    Molecular point group: c1
  Charge       = 0
  Multiplicity = 1
  Basis Set: AUG-CC-PVTZ
    Blend: AUG-CC-PVTZ
  Basis Set: (AUG-CC-PVTZ AUX)
    Blend: AUG-CC-PVTZ-JKFIT

    Orbital Energies [Eh]
    ---------------------

    Doubly Occupied:

       1A    -20.589253     2A    -11.299292     3A    -11.238216
       4A    -11.237066     5A    -11.236230     6A    -11.231572
       7A    -11.229296     8A    -11.226683     9A    -11.215174
      10A     -1.398424    11A     -1.149495    12A     -1.057875
      13A     -1.014843    14A     -0.975752    15A     -0.861789
      16A     -0.844046    17A     -0.791237    18A     -0.728659
      19A     -0.669866    20A     -0.648377    21A     -0.616634
      22A     -0.595136    23A     -0.588027    24A     -0.585525
      25A     -0.570019    26A     -0.554626    27A     -0.522966
      28A     -0.500436    29A     -0.482734    30A     -0.473983
      31A     -0.466287    32A     -0.338368    33A     -0.306669

  @DF-RHF Final Energy:  -383.76479784017442

   => Energetics <=

    Nuclear Repulsion Energy =            418.0285983456534495
    One-Electron Energy =               -1349.0976857199432288
    Two-Electron Energy =                 547.3042895341153553
    Total Energy =                       -383.7647978401744240
  Basis Set: (AUG-CC-PVTZ AUX)
    Blend: AUG-CC-PVTZ-RI
    Molecular point group: c1

    Geometry (in Angstrom), charge = 0, multiplicity = 1:

       Center              X                  Y                   Z               Mass
    ------------   -----------------  -----------------  -----------------  -----------------
         O           -3.143747120961     0.074337842286     0.317107584974    15.994914619570
         C            0.988202879039    -0.000187157714    -0.361064415026    12.000000000000
         C            2.485086279039    -0.027711757714    -0.538854915026    12.000000000000
         C            0.299483779039    -1.210116657714    -0.246225415026    12.000000000000
         C            0.277837879039     1.198855842286    -0.236722415026    12.000000000000
         C            3.229243879039    -0.002306157714     0.796864584974    12.000000000000
         C           -1.098109120961    -1.202746157714    -0.015623415026    12.000000000000
         C           -1.097092120961     1.210437842286    -0.009037415026    12.000000000000
         C           -1.788568120961     0.005595842286     0.101724584974    12.000000000000
         H            2.781761879039    -0.878590157714    -1.126371415026     1.007825032230
         H            2.781534879039     0.876945842286    -1.124528415026     1.007825032230
         H            0.807467879039    -2.144525157714    -0.336236415026     1.007825032230
         H            0.807193879039     2.145612842286    -0.322720415026     1.007825032230
         H            2.963018879039     0.879367842286     1.385937584974     1.007825032230
         H            4.314867879039    -0.001556157714     0.653488584974     1.007825032230
         H            2.963984879039    -0.885434157714     1.384209584974     1.007825032230
         H           -1.630842120961    -2.149414157714     0.065883584974     1.007825032230
         H           -1.645171120961     2.144014842286     0.079714584974     1.007825032230
         H           -3.496192120961    -0.830702157714     0.367742584974     1.007825032230

  Basis Set: AUG-CC-PVTZ
    Blend: AUG-CC-PVTZ
  Basis Set: (AUG-CC-PVTZ AUX)
    Blend: AUG-CC-PVTZ-JKFIT
	 Reference Energy          =    -383.7647978401744240 [Eh]
	 Singles Energy            =      -0.0000000000000000 [Eh]
	 Same-Spin Energy          =      -0.4127765134562804 [Eh]
	 Opposite-Spin Energy      =      -1.3189867196761103 [Eh]
	 Correlation Energy        =      -1.7317632331323907 [Eh]
	 Total Energy              =    -385.4965610733067933 [Eh]

	 ================> DF-SCS-MP2 Energies <==================
	-----------------------------------------------------------
	 SCS Same-Spin Scale       =       0.3333333333333333 [-]
	 SCS Opposite-Spin Scale   =       1.2000000000000000 [-]
	 SCS Same-Spin Energy      =      -0.1375921711520934 [Eh]
	 SCS Opposite-Spin Energy  =      -1.5827840636113322 [Eh]
	 SCS Correlation Energy    =      -1.7203762347634255 [Eh]
	 SCS Total Energy          =    -385.4851740749378450 [Eh]
	-----------------------------------------------------------

  Dipole Moment: [D]
     X:     0.4668      Y:    -1.2837      Z:    -0.0200     Total:     1.3661

*** Psi4 exiting successfully. Buy a developer a beer!
