                               Psi4 1.3.2 release

  ==> Input File <==

--------------------------------------------------------------------------
#psi4
#
memory 32 gb

molecule  {
0 1
  O       -3.1417080     0.0705380     0.3169670
  C        0.9902420    -0.0039870    -0.3612050
  C        2.4872910    -0.0052090    -0.5397260
  C        0.3013211    -1.2139333    -0.2477625
  C        0.3006219     1.2074592    -0.2403514
  C        3.2312830    -0.0061060     0.7967240
  C       -1.0960700    -1.2065460    -0.0157640
  C       -1.0950530     1.2066380    -0.0091780
  C       -1.7865290     0.0017960     0.1015840
  H        2.7838010    -0.8823900    -1.1265120
  H        2.7835740     0.8731460    -1.1246690
  H        0.8095070    -2.1483250    -0.3363770
  H        0.8092330     2.1418130    -0.3228610
  H        2.9650580     0.8755680     1.3857970
  H        4.3169070    -0.0053560     0.6533480
  H        2.9660240    -0.8892340     1.3840690
  H       -1.6288030    -2.1532140     0.0657430
  H       -1.6431320     2.1402150     0.0795740
  H       -3.4941530    -0.8345020     0.3676020
units angstrom
no_reorient  #important for SAPT in psi4, default
symmetry c1  #important for SAPT in psi4, default
}

set PROPERTIES_ORIGIN ["COM"]
properties('MP2/aug-cc-pvtz', properties = ['dipole'])
--------------------------------------------------------------------------

    Molecular point group: c1
  Charge       = 0
  Multiplicity = 1
  Basis Set: AUG-CC-PVTZ
    Blend: AUG-CC-PVTZ
  Basis Set: (AUG-CC-PVTZ AUX)
    Blend: AUG-CC-PVTZ-JKFIT

    Orbital Energies [Eh]
    ---------------------

    Doubly Occupied:

       1A    -20.589079     2A    -11.299099     3A    -11.238955
       4A    -11.237324     5A    -11.237116     6A    -11.232053
       7A    -11.231064     8A    -11.225994     9A    -11.215014
      10A     -1.398267    11A     -1.147838    12A     -1.057348
      13A     -1.013249    14A     -0.975782    15A     -0.861061
      16A     -0.846072    17A     -0.789244    18A     -0.730118
      19A     -0.670413    20A     -0.647672    21A     -0.616778
      22A     -0.596692    23A     -0.589217    24A     -0.586194
      25A     -0.567376    26A     -0.554234    27A     -0.522402
      28A     -0.502985    29A     -0.479924    30A     -0.475960
      31A     -0.465511    32A     -0.336167    33A     -0.307305

  @DF-RHF Final Energy:  -383.76447223334230

   => Energetics <=

    Nuclear Repulsion Energy =            417.7169602395146057
    One-Electron Energy =               -1348.4758535402456801
    Two-Electron Energy =                 546.9944210673887710
    Total Energy =                       -383.7644722333423033
  Basis Set: (AUG-CC-PVTZ AUX)
    Blend: AUG-CC-PVTZ-RI
    Molecular point group: c1

    Geometry (in Angstrom), charge = 0, multiplicity = 1:

       Center              X                  Y                   Z               Mass
    ------------   -----------------  -----------------  -----------------  -----------------
         O           -3.145782821437     0.070534647700     0.317659588356    15.994914619570
         C            0.986167178563    -0.003990352300    -0.360512411644    12.000000000000
         C            2.483216178563    -0.005212352300    -0.539033411644    12.000000000000
         C            0.297246278563    -1.213936652300    -0.247069911644    12.000000000000
         C            0.296547078563     1.207455847700    -0.239658811644    12.000000000000
         C            3.227208178563    -0.006109352300     0.797416588356    12.000000000000
         C           -1.100144821437    -1.206549352300    -0.015071411644    12.000000000000
         C           -1.099127821437     1.206634647700    -0.008485411644    12.000000000000
         C           -1.790603821437     0.001792647700     0.102276588356    12.000000000000
         H            2.779726178563    -0.882393352300    -1.125819411644     1.007825032230
         H            2.779499178563     0.873142647700    -1.123976411644     1.007825032230
         H            0.805432178563    -2.148328352300    -0.335684411644     1.007825032230
         H            0.805158178563     2.141809647700    -0.322168411644     1.007825032230
         H            2.960983178563     0.875564647700     1.386489588356     1.007825032230
         H            4.312832178563    -0.005359352300     0.654040588356     1.007825032230
         H            2.961949178563    -0.889237352300     1.384761588356     1.007825032230
         H           -1.632877821437    -2.153217352300     0.066435588356     1.007825032230
         H           -1.647206821437     2.140211647700     0.080266588356     1.007825032230
         H           -3.498227821437    -0.834505352300     0.368294588356     1.007825032230

  Basis Set: AUG-CC-PVTZ
    Blend: AUG-CC-PVTZ
  Basis Set: (AUG-CC-PVTZ AUX)
    Blend: AUG-CC-PVTZ-JKFIT
	 Reference Energy          =    -383.7644722333423033 [Eh]
	 Singles Energy            =      -0.0000000000000000 [Eh]
	 Same-Spin Energy          =      -0.4127990347232364 [Eh]
	 Opposite-Spin Energy      =      -1.3191530349126541 [Eh]
	 Correlation Energy        =      -1.7319520696358905 [Eh]
	 Total Energy              =    -385.4964243029781983 [Eh]

	 ================> DF-SCS-MP2 Energies <==================
	-----------------------------------------------------------
	 SCS Same-Spin Scale       =       0.3333333333333333 [-]
	 SCS Opposite-Spin Scale   =       1.2000000000000000 [-]
	 SCS Same-Spin Energy      =      -0.1375996782410788 [Eh]
	 SCS Opposite-Spin Energy  =      -1.5829836418951848 [Eh]
	 SCS Correlation Energy    =      -1.7205833201362637 [Eh]
	 SCS Total Energy          =    -385.4850555534785599 [Eh]
	-----------------------------------------------------------

  Dipole Moment: [D]
     X:     0.4717      Y:    -1.2695      Z:    -0.0232     Total:     1.3545

*** Psi4 exiting successfully. Buy a developer a beer!
