                               Psi4 1.3.2 release

  ==> Input File <==

--------------------------------------------------------------------------
#psi4
#
memory 32 gb

molecule  {
0 1
  O       -3.1417080     0.0705380     0.3169670
  C        0.9873544    -0.0039793    -0.3873593
  C        2.4872910    -0.0052090    -0.5397260
  C        0.2806140    -1.2015640    -0.2442060
  C        0.2798770     1.1950560    -0.2368630
  C        3.2544939    -0.0061228     0.7835360
  C       -1.0960700    -1.2065460    -0.0157640
  C       -1.0950530     1.2066380    -0.0091780
  C       -1.7865290     0.0017960     0.1015840
  H        2.7838010    -0.8823900    -1.1265120
  H        2.7835740     0.8731460    -1.1246690
  H        0.8095070    -2.1483250    -0.3363770
  H        0.8092330     2.1418130    -0.3228610
  H        2.9650580     0.8755680     1.3857970
  H        4.3169070    -0.0053560     0.6533480
  H        2.9660240    -0.8892340     1.3840690
  H       -1.6288030    -2.1532140     0.0657430
  H       -1.6431320     2.1402150     0.0795740
  H       -3.4941530    -0.8345020     0.3676020
units angstrom
no_reorient  #important for SAPT in psi4, default
symmetry c1  #important for SAPT in psi4, default
}

set PROPERTIES_ORIGIN ["COM"]
properties('MP2/aug-cc-pvtz', properties = ['dipole'])
--------------------------------------------------------------------------

    Molecular point group: c1
  Charge       = 0
  Multiplicity = 1
  Basis Set: AUG-CC-PVTZ
    Blend: AUG-CC-PVTZ
  Basis Set: (AUG-CC-PVTZ AUX)
    Blend: AUG-CC-PVTZ-JKFIT

    Orbital Energies [Eh]
    ---------------------

    Doubly Occupied:

       1A    -20.589732     2A    -11.299833     3A    -11.238600
       4A    -11.236776     5A    -11.234787     6A    -11.231370
       7A    -11.228243     8A    -11.226910     9A    -11.215663
      10A     -1.398873    11A     -1.150976    12A     -1.057554
      13A     -1.016826    14A     -0.976149    15A     -0.862343
      16A     -0.842809    17A     -0.791176    18A     -0.728702
      19A     -0.672044    20A     -0.646468    21A     -0.612462
      22A     -0.596107    23A     -0.588039    24A     -0.585843
      25A     -0.572031    26A     -0.555851    27A     -0.521817
      28A     -0.496545    29A     -0.483379    30A     -0.475089
      31A     -0.467613    32A     -0.340565    33A     -0.306290

  @DF-RHF Final Energy:  -383.76553598630551

   => Energetics <=

    Nuclear Repulsion Energy =            418.0674598522209067
    One-Electron Energy =               -1349.1710581268930582
    Two-Electron Energy =                 547.3380622883665865
    Total Energy =                       -383.7655359863055082
  Basis Set: (AUG-CC-PVTZ AUX)
    Blend: AUG-CC-PVTZ-RI
    Molecular point group: c1

    Geometry (in Angstrom), charge = 0, multiplicity = 1:

       Center              X                  Y                   Z               Mass
    ------------   -----------------  -----------------  -----------------  -----------------
         O           -3.143705834246     0.070538874674     0.320834477778    15.994914619570
         C            0.985356565754    -0.003978425326    -0.383491822222    12.000000000000
         C            2.485293165754    -0.005208125326    -0.535858522222    12.000000000000
         C            0.278616165754    -1.201563125326    -0.240338522222    12.000000000000
         C            0.277879165754     1.195056874674    -0.232995522222    12.000000000000
         C            3.252496065754    -0.006121925326     0.787403477778    12.000000000000
         C           -1.098067834246    -1.206545125326    -0.011896522222    12.000000000000
         C           -1.097050834246     1.206638874674    -0.005310522222    12.000000000000
         C           -1.788526834246     0.001796874674     0.105451477778    12.000000000000
         H            2.781803165754    -0.882389125326    -1.122644522222     1.007825032230
         H            2.781576165754     0.873146874674    -1.120801522222     1.007825032230
         H            0.807509165754    -2.148324125326    -0.332509522222     1.007825032230
         H            0.807235165754     2.141813874674    -0.318993522222     1.007825032230
         H            2.963060165754     0.875568874674     1.389664477778     1.007825032230
         H            4.314909165754    -0.005355125326     0.657215477778     1.007825032230
         H            2.964026165754    -0.889233125326     1.387936477778     1.007825032230
         H           -1.630800834246    -2.153213125326     0.069610477778     1.007825032230
         H           -1.645129834246     2.140215874674     0.083441477778     1.007825032230
         H           -3.496150834246    -0.834501125326     0.371469477778     1.007825032230

  Basis Set: AUG-CC-PVTZ
    Blend: AUG-CC-PVTZ
  Basis Set: (AUG-CC-PVTZ AUX)
    Blend: AUG-CC-PVTZ-JKFIT
	 Reference Energy          =    -383.7655359863055082 [Eh]
	 Singles Energy            =      -0.0000000000000000 [Eh]
	 Same-Spin Energy          =      -0.4127400119936798 [Eh]
	 Opposite-Spin Energy      =      -1.3187468161625366 [Eh]
	 Correlation Energy        =      -1.7314868281562164 [Eh]
	 Total Energy              =    -385.4970228144617295 [Eh]

	 ================> DF-SCS-MP2 Energies <==================
	-----------------------------------------------------------
	 SCS Same-Spin Scale       =       0.3333333333333333 [-]
	 SCS Opposite-Spin Scale   =       1.2000000000000000 [-]
	 SCS Same-Spin Energy      =      -0.1375800039978933 [Eh]
	 SCS Opposite-Spin Energy  =      -1.5824961793950438 [Eh]
	 SCS Correlation Energy    =      -1.7200761833929370 [Eh]
	 SCS Total Energy          =    -385.4856121696984701 [Eh]
	-----------------------------------------------------------

  Dipole Moment: [D]
     X:     0.4516      Y:    -1.2725      Z:    -0.0060     Total:     1.3503

*** Psi4 exiting successfully. Buy a developer a beer!
