                               Psi4 1.3.2 release

  ==> Input File <==

--------------------------------------------------------------------------
#psi4
#
memory 32 gb

molecule  {
0 1
  O       -3.1417080     0.0705380     0.3169670
  C        0.9902420    -0.0039870    -0.3612050
  C        2.4872028     0.0079429    -0.5400709
  C        0.2702402    -1.1952507    -0.2431393
  C        0.2798770     1.1950560    -0.2368630
  C        3.2312830    -0.0061060     0.7967240
  C       -1.0960700    -1.2065460    -0.0157640
  C       -1.0950530     1.2066380    -0.0091780
  C       -1.7865290     0.0017960     0.1015840
  H        2.7838010    -0.8823900    -1.1265120
  H        2.7835740     0.8731460    -1.1246690
  H        0.8095070    -2.1483250    -0.3363770
  H        0.8092330     2.1418130    -0.3228610
  H        2.9650580     0.8755680     1.3857970
  H        4.3169070    -0.0053560     0.6533480
  H        2.9660240    -0.8892340     1.3840690
  H       -1.6288030    -2.1532140     0.0657430
  H       -1.6431320     2.1402150     0.0795740
  H       -3.4941530    -0.8345020     0.3676020
units angstrom
no_reorient  #important for SAPT in psi4, default
symmetry c1  #important for SAPT in psi4, default
}

set PROPERTIES_ORIGIN ["COM"]
properties('MP2/aug-cc-pvtz', properties = ['dipole'])
--------------------------------------------------------------------------

    Molecular point group: c1
  Charge       = 0
  Multiplicity = 1
  Basis Set: AUG-CC-PVTZ
    Blend: AUG-CC-PVTZ
  Basis Set: (AUG-CC-PVTZ AUX)
    Blend: AUG-CC-PVTZ-JKFIT

    Orbital Energies [Eh]
    ---------------------

    Doubly Occupied:

       1A    -20.589465     2A    -11.299375     3A    -11.238153
       4A    -11.235967     5A    -11.233872     6A    -11.230691
       7A    -11.227597     8A    -11.227338     9A    -11.215328
      10A     -1.398624    11A     -1.152000    12A     -1.058166
      13A     -1.017641    14A     -0.975621    15A     -0.861761
      16A     -0.842147    17A     -0.791640    18A     -0.728492
      19A     -0.673393    20A     -0.646151    21A     -0.611395
      22A     -0.596624    23A     -0.587624    24A     -0.585645
      25A     -0.569314    26A     -0.555774    27A     -0.523804
      28A     -0.496796    29A     -0.482526    30A     -0.475922
      31A     -0.468744    32A     -0.341566    33A     -0.305455

  @DF-RHF Final Energy:  -383.76647768511037

   => Energetics <=

    Nuclear Repulsion Energy =            418.4759895182077685
    One-Electron Energy =               -1349.9957118848619757
    Two-Electron Energy =                 547.7532446815438334
    Total Energy =                       -383.7664776851103170
  Basis Set: (AUG-CC-PVTZ AUX)
    Blend: AUG-CC-PVTZ-RI
    Molecular point group: c1

    Geometry (in Angstrom), charge = 0, multiplicity = 1:

       Center              X                  Y                   Z               Mass
    ------------   -----------------  -----------------  -----------------  -----------------
         O           -3.140679586830     0.068624517820     0.316896108520    15.994914619570
         C            0.991270413170    -0.005900482180    -0.361275891480    12.000000000000
         C            2.488231213170     0.006029417820    -0.540141791480    12.000000000000
         C            0.271268613170    -1.197164182180    -0.243210191480    12.000000000000
         C            0.280905413170     1.193142517820    -0.236933891480    12.000000000000
         C            3.232311413170    -0.008019482180     0.796653108520    12.000000000000
         C           -1.095041586830    -1.208459482180    -0.015834891480    12.000000000000
         C           -1.094024586830     1.204724517820    -0.009248891480    12.000000000000
         C           -1.785500586830    -0.000117482180     0.101513108520    12.000000000000
         H            2.784829413170    -0.884303482180    -1.126582891480     1.007825032230
         H            2.784602413170     0.871232517820    -1.124739891480     1.007825032230
         H            0.810535413170    -2.150238482180    -0.336447891480     1.007825032230
         H            0.810261413170     2.139899517820    -0.322931891480     1.007825032230
         H            2.966086413170     0.873654517820     1.385726108520     1.007825032230
         H            4.317935413170    -0.007269482180     0.653277108520     1.007825032230
         H            2.967052413170    -0.891147482180     1.383998108520     1.007825032230
         H           -1.627774586830    -2.155127482180     0.065672108520     1.007825032230
         H           -1.642103586830     2.138301517820     0.079503108520     1.007825032230
         H           -3.493124586830    -0.836415482180     0.367531108520     1.007825032230

  Basis Set: AUG-CC-PVTZ
    Blend: AUG-CC-PVTZ
  Basis Set: (AUG-CC-PVTZ AUX)
    Blend: AUG-CC-PVTZ-JKFIT
	 Reference Energy          =    -383.7664776851103738 [Eh]
	 Singles Energy            =      -0.0000000000000000 [Eh]
	 Same-Spin Energy          =      -0.4127542307414631 [Eh]
	 Opposite-Spin Energy      =      -1.3186798779983946 [Eh]
	 Correlation Energy        =      -1.7314341087398577 [Eh]
	 Total Energy              =    -385.4979117938502213 [Eh]

	 ================> DF-SCS-MP2 Energies <==================
	-----------------------------------------------------------
	 SCS Same-Spin Scale       =       0.3333333333333333 [-]
	 SCS Opposite-Spin Scale   =       1.2000000000000000 [-]
	 SCS Same-Spin Energy      =      -0.1375847435804877 [Eh]
	 SCS Opposite-Spin Energy  =      -1.5824158535980735 [Eh]
	 SCS Correlation Energy    =      -1.7200005971785612 [Eh]
	 SCS Total Energy          =    -385.4864782822889424 [Eh]
	-----------------------------------------------------------

  Dipole Moment: [D]
     X:     0.4617      Y:    -1.2659      Z:    -0.0165     Total:     1.3475

*** Psi4 exiting successfully. Buy a developer a beer!
