                               Psi4 1.3.2 release

  ==> Input File <==

--------------------------------------------------------------------------
#psi4
#
memory 32 gb

molecule  {
0 1
  O       -3.1417080     0.0705380     0.3169670
  C        1.0107907     0.0087810    -0.3645351
  C        2.4872910    -0.0052090    -0.5397260
  C        0.2806140    -1.2015640    -0.2442060
  C        0.2798770     1.1950560    -0.2368630
  C        3.2312830    -0.0061060     0.7967240
  C       -1.0960700    -1.2065460    -0.0157640
  C       -1.0946221     1.2309585    -0.0091126
  C       -1.7865290     0.0017960     0.1015840
  H        2.7838010    -0.8823900    -1.1265120
  H        2.7835740     0.8731460    -1.1246690
  H        0.8095070    -2.1483250    -0.3363770
  H        0.8092330     2.1418130    -0.3228610
  H        2.9650580     0.8755680     1.3857970
  H        4.3169070    -0.0053560     0.6533480
  H        2.9660240    -0.8892340     1.3840690
  H       -1.6288030    -2.1532140     0.0657430
  H       -1.6431320     2.1402150     0.0795740
  H       -3.4941530    -0.8345020     0.3676020
units angstrom
no_reorient  #important for SAPT in psi4, default
symmetry c1  #important for SAPT in psi4, default
}

set PROPERTIES_ORIGIN ["COM"]
properties('MP2/aug-cc-pvtz', properties = ['dipole'])
--------------------------------------------------------------------------

    Molecular point group: c1
  Charge       = 0
  Multiplicity = 1
  Basis Set: AUG-CC-PVTZ
    Blend: AUG-CC-PVTZ
  Basis Set: (AUG-CC-PVTZ AUX)
    Blend: AUG-CC-PVTZ-JKFIT

    Orbital Energies [Eh]
    ---------------------

    Doubly Occupied:

       1A    -20.590036     2A    -11.302323     3A    -11.240907
       4A    -11.236394     5A    -11.234719     6A    -11.232147
       7A    -11.228700     8A    -11.226414     9A    -11.215459
      10A     -1.398925    11A     -1.148004    12A     -1.059557
      13A     -1.016231    14A     -0.973252    15A     -0.863137
      16A     -0.841353    17A     -0.792914    18A     -0.726962
      19A     -0.672062    20A     -0.651065    21A     -0.611877
      22A     -0.596243    23A     -0.587207    24A     -0.585664
      25A     -0.570250    26A     -0.555137    27A     -0.524456
      28A     -0.497140    29A     -0.486171    30A     -0.475265
      31A     -0.465799    32A     -0.340881    33A     -0.302206

  @DF-RHF Final Energy:  -383.76449594789125

   => Energetics <=

    Nuclear Repulsion Energy =            417.7745321559638683
    One-Electron Energy =               -1348.5803424040720984
    Two-Electron Energy =                 547.0413143002169818
    Total Energy =                       -383.7644959478911915
  Basis Set: (AUG-CC-PVTZ AUX)
    Blend: AUG-CC-PVTZ-RI
    Molecular point group: c1

    Geometry (in Angstrom), charge = 0, multiplicity = 1:

       Center              X                  Y                   Z               Mass
    ------------   -----------------  -----------------  -----------------  -----------------
         O           -3.143770349653     0.066892117418     0.317287988259    15.994914619570
         C            1.008728350347     0.005135117418    -0.364214111741    12.000000000000
         C            2.485228650347    -0.008854882582    -0.539405011741    12.000000000000
         C            0.278551650347    -1.205209882582    -0.243885011741    12.000000000000
         C            0.277814650347     1.191410117418    -0.236542011741    12.000000000000
         C            3.229220650347    -0.009751882582     0.797044988259    12.000000000000
         C           -1.098132349653    -1.210191882582    -0.015443011741    12.000000000000
         C           -1.096684449653     1.227312617418    -0.008791611741    12.000000000000
         C           -1.788591349653    -0.001849882582     0.101904988259    12.000000000000
         H            2.781738650347    -0.886035882582    -1.126191011741     1.007825032230
         H            2.781511650347     0.869500117418    -1.124348011741     1.007825032230
         H            0.807444650347    -2.151970882582    -0.336056011741     1.007825032230
         H            0.807170650347     2.138167117418    -0.322540011741     1.007825032230
         H            2.962995650347     0.871922117418     1.386117988259     1.007825032230
         H            4.314844650347    -0.009001882582     0.653668988259     1.007825032230
         H            2.963961650347    -0.892879882582     1.384389988259     1.007825032230
         H           -1.630865349653    -2.156859882582     0.066063988259     1.007825032230
         H           -1.645194349653     2.136569117418     0.079894988259     1.007825032230
         H           -3.496215349653    -0.838147882582     0.367922988259     1.007825032230

  Basis Set: AUG-CC-PVTZ
    Blend: AUG-CC-PVTZ
  Basis Set: (AUG-CC-PVTZ AUX)
    Blend: AUG-CC-PVTZ-JKFIT
	 Reference Energy          =    -383.7644959478912483 [Eh]
	 Singles Energy            =      -0.0000000000000000 [Eh]
	 Same-Spin Energy          =      -0.4129623772742858 [Eh]
	 Opposite-Spin Energy      =      -1.3192602437676235 [Eh]
	 Correlation Energy        =      -1.7322226210419092 [Eh]
	 Total Energy              =    -385.4967185689331473 [Eh]

	 ================> DF-SCS-MP2 Energies <==================
	-----------------------------------------------------------
	 SCS Same-Spin Scale       =       0.3333333333333333 [-]
	 SCS Opposite-Spin Scale   =       1.2000000000000000 [-]
	 SCS Same-Spin Energy      =      -0.1376541257580952 [Eh]
	 SCS Opposite-Spin Energy  =      -1.5831122925211483 [Eh]
	 SCS Correlation Energy    =      -1.7207664182792435 [Eh]
	 SCS Total Energy          =    -385.4852623661705024 [Eh]
	-----------------------------------------------------------

  Dipole Moment: [D]
     X:     0.4564      Y:    -1.2804      Z:    -0.0133     Total:     1.3594

*** Psi4 exiting successfully. Buy a developer a beer!
