                               Psi4 1.3.2 release

  ==> Input File <==

--------------------------------------------------------------------------
#psi4
#
memory 32 gb

molecule  {
0 1
  O       -3.1417080     0.0705380     0.3169670
  C        0.9902420    -0.0039870    -0.3612050
  C        2.4872910    -0.0052090    -0.5397260
  C        0.2806140    -1.2015640    -0.2442060
  C        0.2798770     1.1950560    -0.2368630
  C        3.2312830    -0.0061060     0.7967240
  C       -1.0960700    -1.2065460    -0.0157640
  C       -1.0950530     1.2066380    -0.0091780
  C       -1.7968825     0.0079530     0.1032547
  H        2.7838010    -0.8823900    -1.1265120
  H        2.7835740     0.8731460    -1.1246690
  H        0.8095070    -2.1483250    -0.3363770
  H        0.8092330     2.1418130    -0.3228610
  H        2.9650580     0.8755680     1.3857970
  H        4.3169070    -0.0053560     0.6533480
  H        2.9660240    -0.8892340     1.3840690
  H       -1.6288030    -2.1532140     0.0657430
  H       -1.6511547     2.1353343     0.0808637
  H       -3.4941530    -0.8345020     0.3676020
units angstrom
no_reorient  #important for SAPT in psi4, default
symmetry c1  #important for SAPT in psi4, default
}

set PROPERTIES_ORIGIN ["COM"]
properties('MP2/aug-cc-pvtz', properties = ['dipole'])
--------------------------------------------------------------------------

    Molecular point group: c1
  Charge       = 0
  Multiplicity = 1
  Basis Set: AUG-CC-PVTZ
    Blend: AUG-CC-PVTZ
  Basis Set: (AUG-CC-PVTZ AUX)
    Blend: AUG-CC-PVTZ-JKFIT

    Orbital Energies [Eh]
    ---------------------

    Doubly Occupied:

       1A    -20.591292     2A    -11.300243     3A    -11.237918
       4A    -11.236187     5A    -11.235118     6A    -11.230392
       7A    -11.227423     8A    -11.226743     9A    -11.214968
      10A     -1.404067    11A     -1.149840    12A     -1.057156
      13A     -1.015718    14A     -0.975160    15A     -0.862175
      16A     -0.841951    17A     -0.791669    18A     -0.730851
      19A     -0.672302    20A     -0.647467    21A     -0.613136
      22A     -0.596422    23A     -0.589939    24A     -0.584768
      25A     -0.570050    26A     -0.556090    27A     -0.523303
      28A     -0.496575    29A     -0.479901    30A     -0.477079
      31A     -0.467588    32A     -0.339995    33A     -0.304338

  @DF-RHF Final Energy:  -383.76658829967971

   => Energetics <=

    Nuclear Repulsion Energy =            418.2628634776397121
    One-Electron Energy =               -1349.5632554013832305
    Two-Electron Energy =                 547.5338036240638075
    Total Energy =                       -383.7665882996797109
  Basis Set: (AUG-CC-PVTZ AUX)
    Blend: AUG-CC-PVTZ-RI
    Molecular point group: c1

    Geometry (in Angstrom), charge = 0, multiplicity = 1:

       Center              X                  Y                   Z               Mass
    ------------   -----------------  -----------------  -----------------  -----------------
         O           -3.140624017877     0.069973031162     0.316792182387    15.994914619570
         C            0.991325982123    -0.004551968838    -0.361379817613    12.000000000000
         C            2.488374982123    -0.005773968838    -0.539900817613    12.000000000000
         C            0.281697982123    -1.202128968838    -0.244380817613    12.000000000000
         C            0.280960982123     1.194491031162    -0.237037817613    12.000000000000
         C            3.232366982123    -0.006670968838     0.796549182387    12.000000000000
         C           -1.094986017877    -1.207110968838    -0.015938817613    12.000000000000
         C           -1.093969017877     1.206073031162    -0.009352817613    12.000000000000
         C           -1.795798517877     0.007388031162     0.103079882387    12.000000000000
         H            2.784884982123    -0.882954968838    -1.126686817613     1.007825032230
         H            2.784657982123     0.872581031162    -1.124843817613     1.007825032230
         H            0.810590982123    -2.148889968838    -0.336551817613     1.007825032230
         H            0.810316982123     2.141248031162    -0.323035817613     1.007825032230
         H            2.966141982123     0.875003031162     1.385622182387     1.007825032230
         H            4.317990982123    -0.005920968838     0.653173182387     1.007825032230
         H            2.967107982123    -0.889798968838     1.383894182387     1.007825032230
         H           -1.627719017877    -2.153778968838     0.065568182387     1.007825032230
         H           -1.650070717877     2.134769331162     0.080688882387     1.007825032230
         H           -3.493069017877    -0.835066968838     0.367427182387     1.007825032230

  Basis Set: AUG-CC-PVTZ
    Blend: AUG-CC-PVTZ
  Basis Set: (AUG-CC-PVTZ AUX)
    Blend: AUG-CC-PVTZ-JKFIT
	 Reference Energy          =    -383.7665882996797109 [Eh]
	 Singles Energy            =      -0.0000000000000000 [Eh]
	 Same-Spin Energy          =      -0.4127618880185493 [Eh]
	 Opposite-Spin Energy      =      -1.3186540313516328 [Eh]
	 Correlation Energy        =      -1.7314159193701821 [Eh]
	 Total Energy              =    -385.4980042190499034 [Eh]

	 ================> DF-SCS-MP2 Energies <==================
	-----------------------------------------------------------
	 SCS Same-Spin Scale       =       0.3333333333333333 [-]
	 SCS Opposite-Spin Scale   =       1.2000000000000000 [-]
	 SCS Same-Spin Energy      =      -0.1375872960061831 [Eh]
	 SCS Opposite-Spin Energy  =      -1.5823848376219594 [Eh]
	 SCS Correlation Energy    =      -1.7199721336281424 [Eh]
	 SCS Total Energy          =    -385.4865604333078295 [Eh]
	-----------------------------------------------------------

  Dipole Moment: [D]
     X:     0.3859      Y:    -1.2749      Z:    -0.0068     Total:     1.3321

*** Psi4 exiting successfully. Buy a developer a beer!
