                               Psi4 1.3.2 release

  ==> Input File <==

--------------------------------------------------------------------------
#psi4
#
memory 32 gb

molecule  {
0 1
  O       -3.1417080     0.0705380     0.3169670
  C        0.9798861    -0.0102343    -0.3595257
  C        2.4872910    -0.0052090    -0.5397260
  C        0.2806140    -1.2015640    -0.2442060
  C        0.2798770     1.1950560    -0.2368630
  C        3.2312830    -0.0061060     0.7967240
  C       -1.0960700    -1.2065460    -0.0157640
  C       -1.0951114     1.1944760    -0.0092367
  C       -1.7865290     0.0017960     0.1015840
  H        2.7838010    -0.8823900    -1.1265120
  H        2.7835740     0.8731460    -1.1246690
  H        0.8095070    -2.1483250    -0.3363770
  H        0.8092330     2.1418130    -0.3228610
  H        2.9650580     0.8755680     1.3857970
  H        4.3169070    -0.0053560     0.6533480
  H        2.9660240    -0.8892340     1.3840690
  H       -1.6288030    -2.1532140     0.0657430
  H       -1.6431320     2.1402150     0.0795740
  H       -3.4941530    -0.8345020     0.3676020
units angstrom
no_reorient  #important for SAPT in psi4, default
symmetry c1  #important for SAPT in psi4, default
}

set PROPERTIES_ORIGIN ["COM"]
properties('MP2/aug-cc-pvtz', properties = ['dipole'])
--------------------------------------------------------------------------

    Molecular point group: c1
  Charge       = 0
  Multiplicity = 1
  Basis Set: AUG-CC-PVTZ
    Blend: AUG-CC-PVTZ
  Basis Set: (AUG-CC-PVTZ AUX)
    Blend: AUG-CC-PVTZ-JKFIT

    Orbital Energies [Eh]
    ---------------------

    Doubly Occupied:

       1A    -20.589086     2A    -11.297845     3A    -11.236817
       4A    -11.236326     5A    -11.234641     6A    -11.230341
       7A    -11.227892     8A    -11.227360     9A    -11.215136
      10A     -1.398379    11A     -1.152801    12A     -1.057320
      13A     -1.017040    14A     -0.976849    15A     -0.861141
      16A     -0.843436    17A     -0.790607    18A     -0.729298
      19A     -0.672339    20A     -0.644762    21A     -0.613796
      22A     -0.596107    23A     -0.588183    24A     -0.585712
      25A     -0.568907    26A     -0.555477    27A     -0.522905
      28A     -0.498590    29A     -0.480118    30A     -0.475539
      31A     -0.469428    32A     -0.340416    33A     -0.307601

  @DF-RHF Final Energy:  -383.76662210646242

   => Energetics <=

    Nuclear Repulsion Energy =            418.6055581199588005
    One-Electron Energy =               -1350.2599628181178559
    Two-Electron Energy =                 547.8877825916966913
    Total Energy =                       -383.7666221064623642
  Basis Set: (AUG-CC-PVTZ AUX)
    Blend: AUG-CC-PVTZ-RI
    Molecular point group: c1

    Geometry (in Angstrom), charge = 0, multiplicity = 1:

       Center              X                  Y                   Z               Mass
    ------------   -----------------  -----------------  -----------------  -----------------
         O           -3.140684275821     0.072347645668     0.316807754949    15.994914619570
         C            0.980909824179    -0.008424654332    -0.359684945051    12.000000000000
         C            2.488314724179    -0.003399354332    -0.539885245051    12.000000000000
         C            0.281637724179    -1.199754354332    -0.244365245051    12.000000000000
         C            0.280900724179     1.196865645668    -0.237022245051    12.000000000000
         C            3.232306724179    -0.004296354332     0.796564754949    12.000000000000
         C           -1.095046275821    -1.204736354332    -0.015923245051    12.000000000000
         C           -1.094087675821     1.196285645668    -0.009395945051    12.000000000000
         C           -1.785505275821     0.003605645668     0.101424754949    12.000000000000
         H            2.784824724179    -0.880580354332    -1.126671245051     1.007825032230
         H            2.784597724179     0.874955645668    -1.124828245051     1.007825032230
         H            0.810530724179    -2.146515354332    -0.336536245051     1.007825032230
         H            0.810256724179     2.143622645668    -0.323020245051     1.007825032230
         H            2.966081724179     0.877377645668     1.385637754949     1.007825032230
         H            4.317930724179    -0.003546354332     0.653188754949     1.007825032230
         H            2.967047724179    -0.887424354332     1.383909754949     1.007825032230
         H           -1.627779275821    -2.151404354332     0.065583754949     1.007825032230
         H           -1.642108275821     2.142024645668     0.079414754949     1.007825032230
         H           -3.493129275821    -0.832692354332     0.367442754949     1.007825032230

  Basis Set: AUG-CC-PVTZ
    Blend: AUG-CC-PVTZ
  Basis Set: (AUG-CC-PVTZ AUX)
    Blend: AUG-CC-PVTZ-JKFIT
	 Reference Energy          =    -383.7666221064624210 [Eh]
	 Singles Energy            =      -0.0000000000000000 [Eh]
	 Same-Spin Energy          =      -0.4126791993173788 [Eh]
	 Opposite-Spin Energy      =      -1.3185543059490044 [Eh]
	 Correlation Energy        =      -1.7312335052663832 [Eh]
	 Total Energy              =    -385.4978556117288235 [Eh]

	 ================> DF-SCS-MP2 Energies <==================
	-----------------------------------------------------------
	 SCS Same-Spin Scale       =       0.3333333333333333 [-]
	 SCS Opposite-Spin Scale   =       1.2000000000000000 [-]
	 SCS Same-Spin Energy      =      -0.1375597331057929 [Eh]
	 SCS Opposite-Spin Energy  =      -1.5822651671388053 [Eh]
	 SCS Correlation Energy    =      -1.7198249002445982 [Eh]
	 SCS Total Energy          =    -385.4864470067070101 [Eh]
	-----------------------------------------------------------

  Dipole Moment: [D]
     X:     0.4689      Y:    -1.2692      Z:    -0.0210     Total:     1.3532

*** Psi4 exiting successfully. Buy a developer a beer!
