                               Psi4 1.3.2 release

  ==> Input File <==

--------------------------------------------------------------------------
#psi4
#
memory 32 gb

molecule  {
0 1
  O       -3.1417080     0.0705380     0.3169670
  C        0.9902420    -0.0039870    -0.3612050
  C        2.4872910    -0.0052090    -0.5397260
  C        0.2806140    -1.2015640    -0.2442060
  C        0.2798770     1.1950560    -0.2368630
  C        3.2312830    -0.0061060     0.7967240
  C       -1.0960700    -1.2065460    -0.0157640
  C       -1.0950530     1.2066380    -0.0091780
  C       -1.7897672    -0.0460500     0.1018188
  H        2.7838010    -0.8823900    -1.1265120
  H        2.7835740     0.8731460    -1.1246690
  H        0.8095070    -2.1483250    -0.3363770
  H        0.8092330     2.1418130    -0.3228610
  H        2.9650580     0.8755680     1.3857970
  H        4.3169070    -0.0053560     0.6533480
  H        2.9660240    -0.8892340     1.3840690
  H       -1.6288030    -2.1532140     0.0657430
  H       -1.6431320     2.1402150     0.0795740
  H       -3.4627536    -0.8463756     0.3625517
units angstrom
no_reorient  #important for SAPT in psi4, default
symmetry c1  #important for SAPT in psi4, default
}

set PROPERTIES_ORIGIN ["COM"]
properties('MP2/aug-cc-pvtz', properties = ['dipole'])
--------------------------------------------------------------------------

    Molecular point group: c1
  Charge       = 0
  Multiplicity = 1
  Basis Set: AUG-CC-PVTZ
    Blend: AUG-CC-PVTZ
  Basis Set: (AUG-CC-PVTZ AUX)
    Blend: AUG-CC-PVTZ-JKFIT

    Orbital Energies [Eh]
    ---------------------

    Doubly Occupied:

       1A    -20.592045     2A    -11.298997     3A    -11.237937
       4A    -11.236027     5A    -11.232927     6A    -11.231379
       7A    -11.230529     8A    -11.227215     9A    -11.215378
      10A     -1.402101    11A     -1.151237    12A     -1.058652
      13A     -1.016518    14A     -0.975305    15A     -0.860237
      16A     -0.844988    17A     -0.791041    18A     -0.725106
      19A     -0.675803    20A     -0.644906    21A     -0.611738
      22A     -0.597228    23A     -0.588471    24A     -0.586034
      25A     -0.567468    26A     -0.560493    27A     -0.523600
      28A     -0.498046    29A     -0.480440    30A     -0.477569
      31A     -0.468649    32A     -0.341960    33A     -0.305275

  @DF-RHF Final Energy:  -383.76302929755542

   => Energetics <=

    Nuclear Repulsion Energy =            418.3649727253170454
    One-Electron Energy =               -1349.7454055492548832
    Two-Electron Energy =                 547.6174035263823043
    Total Energy =                       -383.7630292975554767
  Basis Set: (AUG-CC-PVTZ AUX)
    Blend: AUG-CC-PVTZ-RI
    Molecular point group: c1

    Geometry (in Angstrom), charge = 0, multiplicity = 1:

       Center              X                  Y                   Z               Mass
    ------------   -----------------  -----------------  -----------------  -----------------
         O           -3.141648929284     0.075339350778     0.316985676270    15.994914619570
         C            0.990301070716     0.000814350778    -0.361186323730    12.000000000000
         C            2.487350070716    -0.000407649222    -0.539707323730    12.000000000000
         C            0.280673070716    -1.196762649222    -0.244187323730    12.000000000000
         C            0.279936070716     1.199857350778    -0.236844323730    12.000000000000
         C            3.231342070716    -0.001304649222     0.796742676270    12.000000000000
         C           -1.096010929284    -1.201744649222    -0.015745323730    12.000000000000
         C           -1.094993929284     1.211439350778    -0.009159323730    12.000000000000
         C           -1.789708129284    -0.041248649222     0.101837476270    12.000000000000
         H            2.783860070716    -0.877588649222    -1.126493323730     1.007825032230
         H            2.783633070716     0.877947350778    -1.124650323730     1.007825032230
         H            0.809566070716    -2.143523649222    -0.336358323730     1.007825032230
         H            0.809292070716     2.146614350778    -0.322842323730     1.007825032230
         H            2.965117070716     0.880369350778     1.385815676270     1.007825032230
         H            4.316966070716    -0.000554649222     0.653366676270     1.007825032230
         H            2.966083070716    -0.884432649222     1.384087676270     1.007825032230
         H           -1.628743929284    -2.148412649222     0.065761676270     1.007825032230
         H           -1.643072929284     2.145016350778     0.079592676270     1.007825032230
         H           -3.462694529284    -0.841574249222     0.362570376270     1.007825032230

  Basis Set: AUG-CC-PVTZ
    Blend: AUG-CC-PVTZ
  Basis Set: (AUG-CC-PVTZ AUX)
    Blend: AUG-CC-PVTZ-JKFIT
	 Reference Energy          =    -383.7630292975554198 [Eh]
	 Singles Energy            =      -0.0000000000000000 [Eh]
	 Same-Spin Energy          =      -0.4128100357110989 [Eh]
	 Opposite-Spin Energy      =      -1.3192687305872222 [Eh]
	 Correlation Energy        =      -1.7320787662983210 [Eh]
	 Total Energy              =    -385.4951080638537633 [Eh]

	 ================> DF-SCS-MP2 Energies <==================
	-----------------------------------------------------------
	 SCS Same-Spin Scale       =       0.3333333333333333 [-]
	 SCS Opposite-Spin Scale   =       1.2000000000000000 [-]
	 SCS Same-Spin Energy      =      -0.1376033452370330 [Eh]
	 SCS Opposite-Spin Energy  =      -1.5831224767046665 [Eh]
	 SCS Correlation Energy    =      -1.7207258219416994 [Eh]
	 SCS Total Energy          =    -385.4837551194971184 [Eh]
	-----------------------------------------------------------

  Dipole Moment: [D]
     X:     0.4946      Y:    -1.2783      Z:    -0.0229     Total:     1.3709

*** Psi4 exiting successfully. Buy a developer a beer!
