                               Psi4 1.3.2 release

  ==> Input File <==

--------------------------------------------------------------------------
#psi4
#
memory 32 gb

molecule  {
0 1
  O       -3.1417080     0.0705380     0.3169670
  C        1.0310382    -0.0298165    -0.3679910
  C        2.4872910    -0.0052090    -0.5397260
  C        0.2806140    -1.2015640    -0.2442060
  C        0.2798770     1.1950560    -0.2368630
  C        3.2312830    -0.0061060     0.7967240
  C       -1.0950648    -1.2552455    -0.0159615
  C       -1.0950530     1.2066380    -0.0091780
  C       -1.7865290     0.0017960     0.1015840
  H        2.7838010    -0.8823900    -1.1265120
  H        2.7835740     0.8731460    -1.1246690
  H        0.8095070    -2.1483250    -0.3363770
  H        0.8092330     2.1418130    -0.3228610
  H        2.9650580     0.8755680     1.3857970
  H        4.3169070    -0.0053560     0.6533480
  H        2.9660240    -0.8892340     1.3840690
  H       -1.6288030    -2.1532140     0.0657430
  H       -1.6431320     2.1402150     0.0795740
  H       -3.4941530    -0.8345020     0.3676020
units angstrom
no_reorient  #important for SAPT in psi4, default
symmetry c1  #important for SAPT in psi4, default
}

set PROPERTIES_ORIGIN ["COM"]
properties('MP2/aug-cc-pvtz', properties = ['dipole'])
--------------------------------------------------------------------------

    Molecular point group: c1
  Charge       = 0
  Multiplicity = 1
  Basis Set: AUG-CC-PVTZ
    Blend: AUG-CC-PVTZ
  Basis Set: (AUG-CC-PVTZ AUX)
    Blend: AUG-CC-PVTZ-JKFIT

    Orbital Energies [Eh]
    ---------------------

    Doubly Occupied:

       1A    -20.590769     2A    -11.305565     3A    -11.242085
       4A    -11.238556     5A    -11.235151     6A    -11.233152
       7A    -11.228076     8A    -11.225673     9A    -11.215656
      10A     -1.399392    11A     -1.145335    12A     -1.061333
      13A     -1.016348    14A     -0.970662    15A     -0.866182
      16A     -0.841131    17A     -0.789293    18A     -0.727226
      19A     -0.672691    20A     -0.653410    21A     -0.615141
      22A     -0.597485    23A     -0.587214    24A     -0.585334
      25A     -0.569574    26A     -0.553241    27A     -0.526744
      28A     -0.497575    29A     -0.490965    30A     -0.469984
      31A     -0.463428    32A     -0.340966    33A     -0.299106

  @DF-RHF Final Energy:  -383.75905105669739

   => Energetics <=

    Nuclear Repulsion Energy =            417.2505692977356375
    One-Electron Energy =               -1347.5103541167657113
    Two-Electron Energy =                 546.5007337623327430
    Total Energy =                       -383.7590510566973308
  Basis Set: (AUG-CC-PVTZ AUX)
    Blend: AUG-CC-PVTZ-RI
    Molecular point group: c1

    Geometry (in Angstrom), charge = 0, multiplicity = 1:

       Center              X                  Y                   Z               Mass
    ------------   -----------------  -----------------  -----------------  -----------------
         O           -3.145817168052     0.077864307748     0.317653552632    15.994914619570
         C            1.026929031948    -0.022490192252    -0.367304447368    12.000000000000
         C            2.483181831948     0.002117307748    -0.539039447368    12.000000000000
         C            0.276504831948    -1.194237692252    -0.243519447368    12.000000000000
         C            0.275767831948     1.202382307748    -0.236176447368    12.000000000000
         C            3.227173831948     0.001220307748     0.797410552632    12.000000000000
         C           -1.099173968052    -1.247919192252    -0.015274947368    12.000000000000
         C           -1.099162168052     1.213964307748    -0.008491447368    12.000000000000
         C           -1.790638168052     0.009122307748     0.102270552632    12.000000000000
         H            2.779691831948    -0.875063692252    -1.125825447368     1.007825032230
         H            2.779464831948     0.880472307748    -1.123982447368     1.007825032230
         H            0.805397831948    -2.140998692252    -0.335690447368     1.007825032230
         H            0.805123831948     2.149139307748    -0.322174447368     1.007825032230
         H            2.960948831948     0.882894307748     1.386483552632     1.007825032230
         H            4.312797831948     0.001970307748     0.654034552632     1.007825032230
         H            2.961914831948    -0.881907692252     1.384755552632     1.007825032230
         H           -1.632912168052    -2.145887692252     0.066429552632     1.007825032230
         H           -1.647241168052     2.147541307748     0.080260552632     1.007825032230
         H           -3.498262168052    -0.827175692252     0.368288552632     1.007825032230

  Basis Set: AUG-CC-PVTZ
    Blend: AUG-CC-PVTZ
  Basis Set: (AUG-CC-PVTZ AUX)
    Blend: AUG-CC-PVTZ-JKFIT
	 Reference Energy          =    -383.7590510566973876 [Eh]
	 Singles Energy            =      -0.0000000000000000 [Eh]
	 Same-Spin Energy          =      -0.4132275042976482 [Eh]
	 Opposite-Spin Energy      =      -1.3199677575111739 [Eh]
	 Correlation Energy        =      -1.7331952618088220 [Eh]
	 Total Energy              =    -385.4922463185062043 [Eh]

	 ================> DF-SCS-MP2 Energies <==================
	-----------------------------------------------------------
	 SCS Same-Spin Scale       =       0.3333333333333333 [-]
	 SCS Opposite-Spin Scale   =       1.2000000000000000 [-]
	 SCS Same-Spin Energy      =      -0.1377425014325494 [Eh]
	 SCS Opposite-Spin Energy  =      -1.5839613090134086 [Eh]
	 SCS Correlation Energy    =      -1.7217038104459581 [Eh]
	 SCS Total Energy          =    -385.4807548671433324 [Eh]
	-----------------------------------------------------------

  Dipole Moment: [D]
     X:     0.4446      Y:    -1.2535      Z:    -0.0071     Total:     1.3301

*** Psi4 exiting successfully. Buy a developer a beer!
