                               Psi4 1.3.2 release

  ==> Input File <==

--------------------------------------------------------------------------
#psi4
#
memory 32 gb

molecule  {
0 1
  O       -3.1417080     0.0705380     0.3169670
  C        0.9902420    -0.0039870    -0.3612050
  C        2.4872910    -0.0052090    -0.5397260
  C        0.2806140    -1.2015640    -0.2442060
  C        0.2798770     1.1950560    -0.2368630
  C        3.2799232    -0.0061646     0.8840975
  C       -1.0960700    -1.2065460    -0.0157640
  C       -1.0950530     1.2066380    -0.0091780
  C       -1.7865290     0.0017960     0.1015840
  H        2.7838010    -0.8823900    -1.1265120
  H        2.7835740     0.8731460    -1.1246690
  H        0.8095070    -2.1483250    -0.3363770
  H        0.8092330     2.1418130    -0.3228610
  H        2.9650580     0.8755680     1.3857970
  H        4.3169070    -0.0053560     0.6533480
  H        2.9660240    -0.8892340     1.3840690
  H       -1.6288030    -2.1532140     0.0657430
  H       -1.6431320     2.1402150     0.0795740
  H       -3.4941530    -0.8345020     0.3676020
units angstrom
no_reorient  #important for SAPT in psi4, default
symmetry c1  #important for SAPT in psi4, default
}

set PROPERTIES_ORIGIN ["COM"]
properties('MP2/aug-cc-pvtz', properties = ['dipole'])
--------------------------------------------------------------------------

    Molecular point group: c1
  Charge       = 0
  Multiplicity = 1
  Basis Set: AUG-CC-PVTZ
    Blend: AUG-CC-PVTZ
  Basis Set: (AUG-CC-PVTZ AUX)
    Blend: AUG-CC-PVTZ-JKFIT

    Orbital Energies [Eh]
    ---------------------

    Doubly Occupied:

       1A    -20.589155     2A    -11.298981     3A    -11.237709
       4A    -11.235890     5A    -11.234530     6A    -11.231038
       7A    -11.230268     8A    -11.228019     9A    -11.212592
      10A     -1.398321    11A     -1.149972    12A     -1.049162
      13A     -1.016451    14A     -0.971367    15A     -0.867602
      16A     -0.842818    17A     -0.791301    18A     -0.728191
      19A     -0.670973    20A     -0.645139    21A     -0.612515
      22A     -0.597447    23A     -0.587476    24A     -0.585721
      25A     -0.573380    26A     -0.557308    27A     -0.510781
      28A     -0.505791    29A     -0.485789    30A     -0.482548
      31A     -0.457432    32A     -0.340365    33A     -0.303784

  @DF-RHF Final Energy:  -383.75989289956402

   => Energetics <=

    Nuclear Repulsion Energy =            416.9837593193040561
    One-Electron Energy =               -1347.0276757369304050
    Two-Electron Energy =                 546.2840235180624404
    Total Energy =                       -383.7598928995639653
  Basis Set: (AUG-CC-PVTZ AUX)
    Blend: AUG-CC-PVTZ-RI
    Molecular point group: c1

    Geometry (in Angstrom), charge = 0, multiplicity = 1:

       Center              X                  Y                   Z               Mass
    ------------   -----------------  -----------------  -----------------  -----------------
         O           -3.146489433738     0.070543740608     0.308378098845    15.994914619570
         C            0.985460566262    -0.003981259392    -0.369793901155    12.000000000000
         C            2.482509566262    -0.005203259392    -0.548314901155    12.000000000000
         C            0.275832566262    -1.201558259392    -0.252794901155    12.000000000000
         C            0.275095566262     1.195061740608    -0.245451901155    12.000000000000
         C            3.275141766262    -0.006158859392     0.875508598845    12.000000000000
         C           -1.100851433738    -1.206540259392    -0.024352901155    12.000000000000
         C           -1.099834433738     1.206643740608    -0.017766901155    12.000000000000
         C           -1.791310433738     0.001801740608     0.092995098845    12.000000000000
         H            2.779019566262    -0.882384259392    -1.135100901155     1.007825032230
         H            2.778792566262     0.873151740608    -1.133257901155     1.007825032230
         H            0.804725566262    -2.148319259392    -0.344965901155     1.007825032230
         H            0.804451566262     2.141818740608    -0.331449901155     1.007825032230
         H            2.960276566262     0.875573740608     1.377208098845     1.007825032230
         H            4.312125566262    -0.005350259392     0.644759098845     1.007825032230
         H            2.961242566262    -0.889228259392     1.375480098845     1.007825032230
         H           -1.633584433738    -2.153208259392     0.057154098845     1.007825032230
         H           -1.647913433738     2.140220740608     0.070985098845     1.007825032230
         H           -3.498934433738    -0.834496259392     0.359013098845     1.007825032230

  Basis Set: AUG-CC-PVTZ
    Blend: AUG-CC-PVTZ
  Basis Set: (AUG-CC-PVTZ AUX)
    Blend: AUG-CC-PVTZ-JKFIT
	 Reference Energy          =    -383.7598928995640222 [Eh]
	 Singles Energy            =      -0.0000000000000000 [Eh]
	 Same-Spin Energy          =      -0.4125063811961147 [Eh]
	 Opposite-Spin Energy      =      -1.3188411469474985 [Eh]
	 Correlation Energy        =      -1.7313475281436133 [Eh]
	 Total Energy              =    -385.4912404277076234 [Eh]

	 ================> DF-SCS-MP2 Energies <==================
	-----------------------------------------------------------
	 SCS Same-Spin Scale       =       0.3333333333333333 [-]
	 SCS Opposite-Spin Scale   =       1.2000000000000000 [-]
	 SCS Same-Spin Energy      =      -0.1375021270653716 [Eh]
	 SCS Opposite-Spin Energy  =      -1.5826093763369982 [Eh]
	 SCS Correlation Energy    =      -1.7201115034023697 [Eh]
	 SCS Total Energy          =    -385.4800044029664150 [Eh]
	-----------------------------------------------------------

  Dipole Moment: [D]
     X:     0.4764      Y:    -1.2725      Z:    -0.0254     Total:     1.3590

*** Psi4 exiting successfully. Buy a developer a beer!
