                               Psi4 1.3.2 release

  ==> Input File <==

--------------------------------------------------------------------------
#psi4
#
memory 32 gb

molecule  {
0 1
  O       -3.1417080     0.0705380     0.3169670
  C        0.9935856    -0.0039951    -0.3351051
  C        2.4872910    -0.0052090    -0.5397260
  C        0.2806140    -1.2015640    -0.2442060
  C        0.2798770     1.1950560    -0.2368630
  C        3.2078454    -0.0060889     0.8095049
  C       -1.0960700    -1.2065460    -0.0157640
  C       -1.0950530     1.2066380    -0.0091780
  C       -1.7865290     0.0017960     0.1015840
  H        2.7838010    -0.8823900    -1.1265120
  H        2.7835740     0.8731460    -1.1246690
  H        0.8095070    -2.1483250    -0.3363770
  H        0.8092330     2.1418130    -0.3228610
  H        2.9650580     0.8755680     1.3857970
  H        4.3169070    -0.0053560     0.6533480
  H        2.9660240    -0.8892340     1.3840690
  H       -1.6288030    -2.1532140     0.0657430
  H       -1.6431320     2.1402150     0.0795740
  H       -3.4941530    -0.8345020     0.3676020
units angstrom
no_reorient  #important for SAPT in psi4, default
symmetry c1  #important for SAPT in psi4, default
}

set PROPERTIES_ORIGIN ["COM"]
properties('MP2/aug-cc-pvtz', properties = ['dipole'])
--------------------------------------------------------------------------

    Molecular point group: c1
  Charge       = 0
  Multiplicity = 1
  Basis Set: AUG-CC-PVTZ
    Blend: AUG-CC-PVTZ
  Basis Set: (AUG-CC-PVTZ AUX)
    Blend: AUG-CC-PVTZ-JKFIT

    Orbital Energies [Eh]
    ---------------------

    Doubly Occupied:

       1A    -20.589131     2A    -11.298964     3A    -11.237869
       4A    -11.236044     5A    -11.234586     6A    -11.230706
       7A    -11.228073     8A    -11.227305     9A    -11.215089
      10A     -1.398308    11A     -1.151187    12A     -1.058571
      13A     -1.016608    14A     -0.975203    15A     -0.861256
      16A     -0.842674    17A     -0.791718    18A     -0.728360
      19A     -0.672340    20A     -0.647138    21A     -0.613831
      22A     -0.596614    23A     -0.587516    24A     -0.585691
      25A     -0.568040    26A     -0.554163    27A     -0.524642
      28A     -0.499957    29A     -0.480596    30A     -0.477300
      31A     -0.466794    32A     -0.340370    33A     -0.305393

  @DF-RHF Final Energy:  -383.76570159760394

   => Energetics <=

    Nuclear Repulsion Energy =            418.5661954424803639
    One-Electron Energy =               -1350.1797163987566819
    Two-Electron Energy =                 547.8478193586722682
    Total Energy =                       -383.7657015976039929
  Basis Set: (AUG-CC-PVTZ AUX)
    Blend: AUG-CC-PVTZ-RI
    Molecular point group: c1

    Geometry (in Angstrom), charge = 0, multiplicity = 1:

       Center              X                  Y                   Z               Mass
    ------------   -----------------  -----------------  -----------------  -----------------
         O           -3.139732744827     0.070537095413     0.313145013837    15.994914619570
         C            0.995560855173    -0.003996004587    -0.338927086163    12.000000000000
         C            2.489266255173    -0.005209904587    -0.543547986163    12.000000000000
         C            0.282589255173    -1.201564904587    -0.248027986163    12.000000000000
         C            0.281852255173     1.195055095413    -0.240684986163    12.000000000000
         C            3.209820655173    -0.006089804587     0.805682913837    12.000000000000
         C           -1.094094744827    -1.206546904587    -0.019585986163    12.000000000000
         C           -1.093077744827     1.206637095413    -0.012999986163    12.000000000000
         C           -1.784553744827     0.001795095413     0.097762013837    12.000000000000
         H            2.785776255173    -0.882390904587    -1.130333986163     1.007825032230
         H            2.785549255173     0.873145095413    -1.128490986163     1.007825032230
         H            0.811482255173    -2.148325904587    -0.340198986163     1.007825032230
         H            0.811208255173     2.141812095413    -0.326682986163     1.007825032230
         H            2.967033255173     0.875567095413     1.381975013837     1.007825032230
         H            4.318882255173    -0.005356904587     0.649526013837     1.007825032230
         H            2.967999255173    -0.889234904587     1.380247013837     1.007825032230
         H           -1.626827744827    -2.153214904587     0.061921013837     1.007825032230
         H           -1.641156744827     2.140214095413     0.075752013837     1.007825032230
         H           -3.492177744827    -0.834502904587     0.363780013837     1.007825032230

  Basis Set: AUG-CC-PVTZ
    Blend: AUG-CC-PVTZ
  Basis Set: (AUG-CC-PVTZ AUX)
    Blend: AUG-CC-PVTZ-JKFIT
	 Reference Energy          =    -383.7657015976039361 [Eh]
	 Singles Energy            =      -0.0000000000000000 [Eh]
	 Same-Spin Energy          =      -0.4128174271271922 [Eh]
	 Opposite-Spin Energy      =      -1.3188842927256679 [Eh]
	 Correlation Energy        =      -1.7317017198528601 [Eh]
	 Total Energy              =    -385.4974033174568149 [Eh]

	 ================> DF-SCS-MP2 Energies <==================
	-----------------------------------------------------------
	 SCS Same-Spin Scale       =       0.3333333333333333 [-]
	 SCS Opposite-Spin Scale   =       1.2000000000000000 [-]
	 SCS Same-Spin Energy      =      -0.1376058090423974 [Eh]
	 SCS Opposite-Spin Energy  =      -1.5826611512708013 [Eh]
	 SCS Correlation Energy    =      -1.7202669603131988 [Eh]
	 SCS Total Energy          =    -385.4859685579171469 [Eh]
	-----------------------------------------------------------

  Dipole Moment: [D]
     X:     0.4684      Y:    -1.2723      Z:    -0.0318     Total:     1.3561

*** Psi4 exiting successfully. Buy a developer a beer!
