                               Psi4 1.3.2 release

  ==> Input File <==

--------------------------------------------------------------------------
#psi4
#
memory 32 gb

molecule  {
0 1
  O       -3.1417080     0.0705380     0.3169670
  C        0.9972961     0.0629396    -0.3199585
  C        2.4872910    -0.0052090    -0.5397260
  C        0.2806140    -1.2015640    -0.2442060
  C        0.2798770     1.1950560    -0.2368630
  C        3.2312830    -0.0061060     0.7967240
  C       -1.0960700    -1.2065460    -0.0157640
  C       -1.0950530     1.2066380    -0.0091780
  C       -1.7865290     0.0017960     0.1015840
  H        2.8383286    -0.8650456    -1.1220800
  H        2.7835740     0.8731460    -1.1246690
  H        0.8095070    -2.1483250    -0.3363770
  H        0.8092330     2.1418130    -0.3228610
  H        2.9650580     0.8755680     1.3857970
  H        4.3169070    -0.0053560     0.6533480
  H        2.9660240    -0.8892340     1.3840690
  H       -1.6288030    -2.1532140     0.0657430
  H       -1.6431320     2.1402150     0.0795740
  H       -3.4941530    -0.8345020     0.3676020
units angstrom
no_reorient  #important for SAPT in psi4, default
symmetry c1  #important for SAPT in psi4, default
}

set PROPERTIES_ORIGIN ["COM"]
properties('MP2/aug-cc-pvtz', properties = ['dipole'])
--------------------------------------------------------------------------

    Molecular point group: c1
  Charge       = 0
  Multiplicity = 1
  Basis Set: AUG-CC-PVTZ
    Blend: AUG-CC-PVTZ
  Basis Set: (AUG-CC-PVTZ AUX)
    Blend: AUG-CC-PVTZ-JKFIT

    Orbital Energies [Eh]
    ---------------------

    Doubly Occupied:

       1A    -20.589382     2A    -11.299049     3A    -11.244991
       4A    -11.236686     5A    -11.231847     6A    -11.228953
       7A    -11.227305     8A    -11.226254     9A    -11.214282
      10A     -1.398513    11A     -1.151717    12A     -1.058670
      13A     -1.017407    14A     -0.976126    15A     -0.859989
      16A     -0.841482    17A     -0.793889    18A     -0.728617
      19A     -0.669946    20A     -0.649596    21A     -0.614677
      22A     -0.593458    23A     -0.588491    24A     -0.586620
      25A     -0.572101    26A     -0.553652    27A     -0.521740
      28A     -0.496958    29A     -0.489480    30A     -0.469592
      31A     -0.465017    32A     -0.343072    33A     -0.304286

  @DF-RHF Final Energy:  -383.75980234020187

   => Energetics <=

    Nuclear Repulsion Energy =            418.3622631247141044
    One-Electron Energy =               -1349.7564465945733900
    Two-Electron Energy =                 547.6343811296574131
    Total Energy =                       -383.7598023402018725
  Basis Set: (AUG-CC-PVTZ AUX)
    Blend: AUG-CC-PVTZ-RI
    Molecular point group: c1

    Geometry (in Angstrom), charge = 0, multiplicity = 1:

       Center              X                  Y                   Z               Mass
    ------------   -----------------  -----------------  -----------------  -----------------
         O           -3.142851624233     0.063815787574     0.312875871306    15.994914619570
         C            0.996152475767     0.056217387574    -0.324049628694    12.000000000000
         C            2.486147375767    -0.011931212426    -0.543817128694    12.000000000000
         C            0.279470375767    -1.208286212426    -0.248297128694    12.000000000000
         C            0.278733375767     1.188333787574    -0.240954128694    12.000000000000
         C            3.230139375767    -0.012828212426     0.792632871306    12.000000000000
         C           -1.097213624233    -1.213268212426    -0.019855128694    12.000000000000
         C           -1.096196624233     1.199915787574    -0.013269128694    12.000000000000
         C           -1.787672624233    -0.004926212426     0.097492871306    12.000000000000
         H            2.837184975767    -0.871767812426    -1.126171128694     1.007825032230
         H            2.782430375767     0.866423787574    -1.128760128694     1.007825032230
         H            0.808363375767    -2.155047212426    -0.340468128694     1.007825032230
         H            0.808089375767     2.135090787574    -0.326952128694     1.007825032230
         H            2.963914375767     0.868845787574     1.381705871306     1.007825032230
         H            4.315763375767    -0.012078212426     0.649256871306     1.007825032230
         H            2.964880375767    -0.895956212426     1.379977871306     1.007825032230
         H           -1.629946624233    -2.159936212426     0.061651871306     1.007825032230
         H           -1.644275624233     2.133492787574     0.075482871306     1.007825032230
         H           -3.495296624233    -0.841224212426     0.363510871306     1.007825032230

  Basis Set: AUG-CC-PVTZ
    Blend: AUG-CC-PVTZ
  Basis Set: (AUG-CC-PVTZ AUX)
    Blend: AUG-CC-PVTZ-JKFIT
	 Reference Energy          =    -383.7598023402018725 [Eh]
	 Singles Energy            =      -0.0000000000000000 [Eh]
	 Same-Spin Energy          =      -0.4127381208020060 [Eh]
	 Opposite-Spin Energy      =      -1.3191342281489014 [Eh]
	 Correlation Energy        =      -1.7318723489509074 [Eh]
	 Total Energy              =    -385.4916746891527737 [Eh]

	 ================> DF-SCS-MP2 Energies <==================
	-----------------------------------------------------------
	 SCS Same-Spin Scale       =       0.3333333333333333 [-]
	 SCS Opposite-Spin Scale   =       1.2000000000000000 [-]
	 SCS Same-Spin Energy      =      -0.1375793736006687 [Eh]
	 SCS Opposite-Spin Energy  =      -1.5829610737786817 [Eh]
	 SCS Correlation Energy    =      -1.7205404473793504 [Eh]
	 SCS Total Energy          =    -385.4803427875812076 [Eh]
	-----------------------------------------------------------

  Dipole Moment: [D]
     X:     0.4727      Y:    -1.3314      Z:    -0.0510     Total:     1.4137

*** Psi4 exiting successfully. Buy a developer a beer!
