                               Psi4 1.3.2 release

  ==> Input File <==

--------------------------------------------------------------------------
#psi4
#
memory 32 gb

molecule  {
0 1
  O       -3.1417080     0.0705380     0.3169670
  C        0.9902420    -0.0039870    -0.3612050
  C        2.4872910    -0.0052090    -0.5397260
  C        0.2806140    -1.2015640    -0.2442060
  C        0.2798770     1.1950560    -0.2368630
  C        3.1826428    -0.0060474     0.7093505
  C       -1.0960700    -1.2065460    -0.0157640
  C       -1.0950530     1.2066380    -0.0091780
  C       -1.7865290     0.0017960     0.1015840
  H        2.7838010    -0.8823900    -1.1265120
  H        2.7835740     0.8731460    -1.1246690
  H        0.8095070    -2.1483250    -0.3363770
  H        0.8092330     2.1418130    -0.3228610
  H        2.9650580     0.8755680     1.3857970
  H        4.3169070    -0.0053560     0.6533480
  H        2.9660240    -0.8892340     1.3840690
  H       -1.6288030    -2.1532140     0.0657430
  H       -1.6431320     2.1402150     0.0795740
  H       -3.4941530    -0.8345020     0.3676020
units angstrom
no_reorient  #important for SAPT in psi4, default
symmetry c1  #important for SAPT in psi4, default
}

set PROPERTIES_ORIGIN ["COM"]
properties('MP2/aug-cc-pvtz', properties = ['dipole'])
--------------------------------------------------------------------------

    Molecular point group: c1
  Charge       = 0
  Multiplicity = 1
  Basis Set: AUG-CC-PVTZ
    Blend: AUG-CC-PVTZ
  Basis Set: (AUG-CC-PVTZ AUX)
    Blend: AUG-CC-PVTZ-JKFIT

    Orbital Energies [Eh]
    ---------------------

    Doubly Occupied:

       1A    -20.589699     2A    -11.299789     3A    -11.238741
       4A    -11.236914     5A    -11.234927     6A    -11.231379
       7A    -11.228388     8A    -11.223096     9A    -11.220914
      10A     -1.398855    11A     -1.153077    12A     -1.071368
      13A     -1.017101    14A     -0.981066    15A     -0.855364
      16A     -0.842157    17A     -0.791110    18A     -0.728965
      19A     -0.674070    20A     -0.649428    21A     -0.614724
      22A     -0.597494    23A     -0.589184    24A     -0.586100
      25A     -0.576525    26A     -0.558565    27A     -0.531681
      28A     -0.493325    29A     -0.473053    30A     -0.466424
      31A     -0.465376    32A     -0.340673    33A     -0.307424

  @DF-RHF Final Energy:  -383.75495806963266

   => Energetics <=

    Nuclear Repulsion Energy =            419.7525078706398176
    One-Electron Energy =               -1352.4810213412365556
    Two-Electron Energy =                 548.9735554009639600
    Total Energy =                       -383.7549580696327212
  Basis Set: (AUG-CC-PVTZ AUX)
    Blend: AUG-CC-PVTZ-RI
    Molecular point group: c1

    Geometry (in Angstrom), charge = 0, multiplicity = 1:

       Center              X                  Y                   Z               Mass
    ------------   -----------------  -----------------  -----------------  -----------------
         O           -3.136926604753     0.070532219648     0.325556026533    15.994914619570
         C            0.995023395247    -0.003992780352    -0.352615973467    12.000000000000
         C            2.492072395247    -0.005214780352    -0.531136973467    12.000000000000
         C            0.285395395247    -1.201569780352    -0.235616973467    12.000000000000
         C            0.284658395247     1.195050219648    -0.228273973467    12.000000000000
         C            3.187424195247    -0.006053180352     0.717939526533    12.000000000000
         C           -1.091288604753    -1.206551780352    -0.007174973467    12.000000000000
         C           -1.090271604753     1.206632219648    -0.000588973467    12.000000000000
         C           -1.781747604753     0.001790219648     0.110173026533    12.000000000000
         H            2.788582395247    -0.882395780352    -1.117922973467     1.007825032230
         H            2.788355395247     0.873140219648    -1.116079973467     1.007825032230
         H            0.814288395247    -2.148330780352    -0.327787973467     1.007825032230
         H            0.814014395247     2.141807219648    -0.314271973467     1.007825032230
         H            2.969839395247     0.875562219648     1.394386026533     1.007825032230
         H            4.321688395247    -0.005361780352     0.661937026533     1.007825032230
         H            2.970805395247    -0.889239780352     1.392658026533     1.007825032230
         H           -1.624021604753    -2.153219780352     0.074332026533     1.007825032230
         H           -1.638350604753     2.140209219648     0.088163026533     1.007825032230
         H           -3.489371604753    -0.834507780352     0.376191026533     1.007825032230

  Basis Set: AUG-CC-PVTZ
    Blend: AUG-CC-PVTZ
  Basis Set: (AUG-CC-PVTZ AUX)
    Blend: AUG-CC-PVTZ-JKFIT
	 Reference Energy          =    -383.7549580696326643 [Eh]
	 Singles Energy            =      -0.0000000000000000 [Eh]
	 Same-Spin Energy          =      -0.4136974686330356 [Eh]
	 Opposite-Spin Energy      =      -1.3198543409938885 [Eh]
	 Correlation Energy        =      -1.7335518096269242 [Eh]
	 Total Energy              =    -385.4885098792595954 [Eh]

	 ================> DF-SCS-MP2 Energies <==================
	-----------------------------------------------------------
	 SCS Same-Spin Scale       =       0.3333333333333333 [-]
	 SCS Opposite-Spin Scale   =       1.2000000000000000 [-]
	 SCS Same-Spin Energy      =      -0.1378991562110119 [Eh]
	 SCS Opposite-Spin Energy  =      -1.5838252091926661 [Eh]
	 SCS Correlation Energy    =      -1.7217243654036780 [Eh]
	 SCS Total Energy          =    -385.4766824350363663 [Eh]
	-----------------------------------------------------------

  Dipole Moment: [D]
     X:     0.4290      Y:    -1.2722      Z:    -0.0340     Total:     1.3430

*** Psi4 exiting successfully. Buy a developer a beer!
