                               Psi4 1.4a3.dev225

  ==> Input File <==

--------------------------------------------------------------------------
#psi4
#
memory 32 gb

molecule  {
0 1
  O        3.2216350    -0.1065060     0.2904990
  C       -0.9146420     0.0169590    -0.3639610
  C       -2.4121960     0.0318470    -0.5323860
  C       -0.1907600     1.2076380    -0.2374780
  C       -0.2138010    -1.1929940    -0.2539850
  C       -3.1413340    -0.0192130     0.8137010
  C        1.1888560     1.1991780    -0.0236810
  C        1.1619340    -1.2201410    -0.0407060
  C        1.8648900    -0.0185630     0.0807020
  H       -2.7091570     0.9353730    -1.0779940
  H       -2.7186560    -0.8212200    -1.1493620
  H       -0.7079800     2.1625600    -0.3214960
  H       -0.7531780    -2.1343060    -0.3521420
  H       -2.8726550    -0.9274190     1.3607640
  H       -4.2274440    -0.0080790     0.6778440
  H       -2.8630000     0.8390280     1.4320080
  H        1.7343360     2.1384520     0.0639930
  H        1.7070130    -2.1569100     0.0367280
  H        3.5873242     0.8148577     0.3536995
units angstrom
no_reorient  #important for SAPT in psi4, default
symmetry c1  #important for SAPT in psi4, default
}

set PROPERTIES_ORIGIN ["COM"]
properties('MP2/aug-cc-pvtz', properties = ['dipole'])
--------------------------------------------------------------------------

    Molecular point group: c1
  Charge       = 0
  Multiplicity = 1
  Basis Set: AUG-CC-PVTZ
    Blend: AUG-CC-PVTZ
  Basis Set: (AUG-CC-PVTZ AUX)
    Blend: AUG-CC-PVTZ-JKFIT

    Orbital Energies [Eh]
    ---------------------

    Doubly Occupied:

       1A    -20.591026     2A    -11.299665     3A    -11.238640
       4A    -11.236926     5A    -11.234805     6A    -11.231634
       7A    -11.228676     8A    -11.227298     9A    -11.215407
      10A     -1.393688    11A     -1.149981    12A     -1.057258
      13A     -1.016688    14A     -0.974118    15A     -0.860696
      16A     -0.841894    17A     -0.790297    18A     -0.724525
      19A     -0.671233    20A     -0.646858    21A     -0.612026
      22A     -0.595714    23A     -0.587146    24A     -0.585345
      25A     -0.568370    26A     -0.554764    27A     -0.522799
      28A     -0.497963    29A     -0.480360    30A     -0.478113
      31A     -0.467420    32A     -0.340742    33A     -0.304935

  @DF-RHF Final Energy:  -383.76460859161648

   => Energetics <=

    Nuclear Repulsion Energy =            417.9839731121019213
    One-Electron Energy =               -1349.0431397263350846
    Two-Electron Energy =                 547.2945580226166840
    Total Energy =                       -383.7646085916164793
  Basis Set: (AUG-CC-PVTZ AUX)
    Blend: AUG-CC-PVTZ-RI
    Molecular point group: c1

    Geometry (in Angstrom), charge = 0, multiplicity = 1:

       Center              X                  Y                   Z               Mass
    ------------   -----------------  -----------------  -----------------  -----------------
         O            3.141806844742    -0.099968163736     0.298813404176    15.994914619570
         C           -0.994470155258     0.023496836264    -0.355646595824    12.000000000000
         C           -2.492024155258     0.038384836264    -0.524071595824    12.000000000000
         C           -0.270588155258     1.214175836264    -0.229163595824    12.000000000000
         C           -0.293629155258    -1.186456163736    -0.245670595824    12.000000000000
         C           -3.221162155258    -0.012675163736     0.822015404176    12.000000000000
         C            1.109027844742     1.205715836264    -0.015366595824    12.000000000000
         C            1.082105844742    -1.213603163736    -0.032391595824    12.000000000000
         C            1.785061844742    -0.012025163736     0.089016404176    12.000000000000
         H           -2.788985155258     0.941910836264    -1.069679595824     1.007825032230
         H           -2.798484155258    -0.814682163736    -1.141047595824     1.007825032230
         H           -0.787808155258     2.169097836264    -0.313181595824     1.007825032230
         H           -0.833006155258    -2.127768163736    -0.343827595824     1.007825032230
         H           -2.952483155258    -0.920881163736     1.369078404176     1.007825032230
         H           -4.307272155258    -0.001541163736     0.686158404176     1.007825032230
         H           -2.942828155258     0.845565836264     1.440322404176     1.007825032230
         H            1.654507844742     2.144989836264     0.072307404176     1.007825032230
         H            1.627184844742    -2.150372163736     0.045042404176     1.007825032230
         H            3.507496044742     0.821395536264     0.362013904176     1.007825032230

  Basis Set: AUG-CC-PVTZ
    Blend: AUG-CC-PVTZ
  Basis Set: (AUG-CC-PVTZ AUX)
    Blend: AUG-CC-PVTZ-JKFIT
	 Reference Energy          =    -383.7646085916164793 [Eh]
	 Singles Energy            =      -0.0000000000000000 [Eh]
	 Same-Spin Energy          =      -0.4130469025743957 [Eh]
	 Opposite-Spin Energy      =      -1.3196326747857974 [Eh]
	 Correlation Energy        =      -1.7326795773601931 [Eh]
	 Total Energy              =    -385.4972881689766950 [Eh]

	 ================> DF-SCS-MP2 Energies <==================
	-----------------------------------------------------------
	 SCS Same-Spin Scale       =       0.3333333333333333 [-]
	 SCS Opposite-Spin Scale   =       1.2000000000000000 [-]
	 SCS Same-Spin Energy      =      -0.1376823008581319 [Eh]
	 SCS Opposite-Spin Energy  =      -1.5835592097429567 [Eh]
	 SCS Correlation Energy    =      -1.7212415106010885 [Eh]
	 SCS Total Energy          =    -385.4858501022175687 [Eh]
	-----------------------------------------------------------

  Dipole Moment: [D]
     X:    -0.4467      Y:     1.2886      Z:    -0.0015     Total:     1.3639

*** Psi4 exiting successfully. Buy a developer a beer!
