                               Psi4 1.4a3.dev225

  ==> Input File <==

--------------------------------------------------------------------------
#psi4
#
memory 32 gb

molecule  {
0 1
  O        3.2216350    -0.1065060     0.2904990
  C       -0.9146420     0.0169590    -0.3639610
  C       -2.4320697     0.0320446    -0.5346211
  C       -0.1907600     1.2076380    -0.2374780
  C       -0.2138010    -1.1929940    -0.2539850
  C       -3.1413340    -0.0192130     0.8137010
  C        1.1888560     1.1991780    -0.0236810
  C        1.1619340    -1.2201410    -0.0407060
  C        1.8648900    -0.0185630     0.0807020
  H       -2.7091570     0.9353730    -1.0779940
  H       -2.7186560    -0.8212200    -1.1493620
  H       -0.7079800     2.1625600    -0.3214960
  H       -0.7531780    -2.1343060    -0.3521420
  H       -2.8726550    -0.9274190     1.3607640
  H       -4.2274440    -0.0080790     0.6778440
  H       -2.8630000     0.8390280     1.4320080
  H        1.7343360     2.1384520     0.0639930
  H        1.7070130    -2.1569100     0.0367280
  H        3.5799610     0.7963060     0.3524270
units angstrom
no_reorient  #important for SAPT in psi4, default
symmetry c1  #important for SAPT in psi4, default
}

set PROPERTIES_ORIGIN ["COM"]
properties('MP2/aug-cc-pvtz', properties = ['dipole'])
--------------------------------------------------------------------------

    Molecular point group: c1
  Charge       = 0
  Multiplicity = 1
  Basis Set: AUG-CC-PVTZ
    Blend: AUG-CC-PVTZ
  Basis Set: (AUG-CC-PVTZ AUX)
    Blend: AUG-CC-PVTZ-JKFIT

    Orbital Energies [Eh]
    ---------------------

    Doubly Occupied:

       1A    -20.589238     2A    -11.299591     3A    -11.238565
       4A    -11.236829     5A    -11.234810     6A    -11.232409
       7A    -11.228617     8A    -11.227270     9A    -11.215196
      10A     -1.397620    11A     -1.149368    12A     -1.056778
      13A     -1.016575    14A     -0.975464    15A     -0.860382
      16A     -0.841780    17A     -0.791694    18A     -0.727207
      19A     -0.671138    20A     -0.645768    21A     -0.613389
      22A     -0.596388    23A     -0.587224    24A     -0.585618
      25A     -0.568907    26A     -0.555335    27A     -0.524978
      28A     -0.498563    29A     -0.480224    30A     -0.475336
      31A     -0.468469    32A     -0.340638    33A     -0.305324

  @DF-RHF Final Energy:  -383.76607205887717

   => Energetics <=

    Nuclear Repulsion Energy =            417.8356514384008733
    One-Electron Energy =               -1348.7300576008917687
    Two-Electron Energy =                 547.1283341036137244
    Total Energy =                       -383.7660720588771710
  Basis Set: (AUG-CC-PVTZ AUX)
    Blend: AUG-CC-PVTZ-RI
    Molecular point group: c1

    Geometry (in Angstrom), charge = 0, multiplicity = 1:

       Center              X                  Y                   Z               Mass
    ------------   -----------------  -----------------  -----------------  -----------------
         O            3.143821253211    -0.099834426991     0.299043623957    15.994914619570
         C           -0.992455746789     0.023630573009    -0.355416376043    12.000000000000
         C           -2.509883446789     0.038716173009    -0.526076476043    12.000000000000
         C           -0.268573746789     1.214309573009    -0.228933376043    12.000000000000
         C           -0.291614746789    -1.186322426991    -0.245440376043    12.000000000000
         C           -3.219147746789    -0.012541426991     0.822245623957    12.000000000000
         C            1.111042253211     1.205849573009    -0.015136376043    12.000000000000
         C            1.084120253211    -1.213469426991    -0.032161376043    12.000000000000
         C            1.787076253211    -0.011891426991     0.089246623957    12.000000000000
         H           -2.786970746789     0.942044573009    -1.069449376043     1.007825032230
         H           -2.796469746789    -0.814548426991    -1.140817376043     1.007825032230
         H           -0.785793746789     2.169231573009    -0.312951376043     1.007825032230
         H           -0.830991746789    -2.127634426991    -0.343597376043     1.007825032230
         H           -2.950468746789    -0.920747426991     1.369308623957     1.007825032230
         H           -4.305257746789    -0.001407426991     0.686388623957     1.007825032230
         H           -2.940813746789     0.845699573009     1.440552623957     1.007825032230
         H            1.656522253211     2.145123573009     0.072537623957     1.007825032230
         H            1.629199253211    -2.150238426991     0.045272623957     1.007825032230
         H            3.502147253211     0.802977573009     0.360971623957     1.007825032230

  Basis Set: AUG-CC-PVTZ
    Blend: AUG-CC-PVTZ
  Basis Set: (AUG-CC-PVTZ AUX)
    Blend: AUG-CC-PVTZ-JKFIT
	 Reference Energy          =    -383.7660720588771710 [Eh]
	 Singles Energy            =      -0.0000000000000000 [Eh]
	 Same-Spin Energy          =      -0.4126842811463619 [Eh]
	 Opposite-Spin Energy      =      -1.3188907392787310 [Eh]
	 Correlation Energy        =      -1.7315750204250930 [Eh]
	 Total Energy              =    -385.4976470793022827 [Eh]

	 ================> DF-SCS-MP2 Energies <==================
	-----------------------------------------------------------
	 SCS Same-Spin Scale       =       0.3333333333333333 [-]
	 SCS Opposite-Spin Scale   =       1.2000000000000000 [-]
	 SCS Same-Spin Energy      =      -0.1375614270487873 [Eh]
	 SCS Opposite-Spin Energy  =      -1.5826688871344772 [Eh]
	 SCS Correlation Energy    =      -1.7202303141832644 [Eh]
	 SCS Total Energy          =    -385.4863023730604255 [Eh]
	-----------------------------------------------------------

  Dipole Moment: [D]
     X:    -0.4762      Y:     1.2739      Z:    -0.0041     Total:     1.3600

*** Psi4 exiting successfully. Buy a developer a beer!
