                               Psi4 1.3.2 release

  ==> Input File <==

--------------------------------------------------------------------------
#psi4
#
memory 32 gb

molecule  {
0 1
  O       -3.1417080     0.0705380     0.3169670
  C        0.9902420    -0.0039870    -0.3612050
  C        2.4862543     0.0473892    -0.5410237
  C        0.2394510    -1.1757685    -0.2399935
  C        0.2798770     1.1950560    -0.2368630
  C        3.2312830    -0.0061060     0.7967240
  C       -1.0960700    -1.2065460    -0.0157640
  C       -1.0950530     1.2066380    -0.0091780
  C       -1.7865290     0.0017960     0.1015840
  H        2.7838010    -0.8823900    -1.1265120
  H        2.7835740     0.8731460    -1.1246690
  H        0.8095070    -2.1483250    -0.3363770
  H        0.8092330     2.1418130    -0.3228610
  H        2.9650580     0.8755680     1.3857970
  H        4.3169070    -0.0053560     0.6533480
  H        2.9660240    -0.8892340     1.3840690
  H       -1.6288030    -2.1532140     0.0657430
  H       -1.6431320     2.1402150     0.0795740
  H       -3.4941530    -0.8345020     0.3676020
units angstrom
no_reorient  #important for SAPT in psi4, default
symmetry c1  #important for SAPT in psi4, default
}

set PROPERTIES_ORIGIN ["COM"]
properties('MP2/aug-cc-pvtz', properties = ['dipole'])
--------------------------------------------------------------------------

    Molecular point group: c1
  Charge       = 0
  Multiplicity = 1
  Basis Set: AUG-CC-PVTZ
    Blend: AUG-CC-PVTZ
  Basis Set: (AUG-CC-PVTZ AUX)
    Blend: AUG-CC-PVTZ-JKFIT

    Orbital Energies [Eh]
    ---------------------

    Doubly Occupied:

       1A    -20.589749     2A    -11.299565     3A    -11.238347
       4A    -11.235016     5A    -11.231452     6A    -11.230276
       7A    -11.228507     8A    -11.226042     9A    -11.215777
      10A     -1.398903    11A     -1.155072    12A     -1.059085
      13A     -1.020361    14A     -0.975543    15A     -0.862299
      16A     -0.840508    17A     -0.792796    18A     -0.728646
      19A     -0.677134    20A     -0.644893    21A     -0.607604
      22A     -0.598825    23A     -0.587771    24A     -0.583618
      25A     -0.568891    26A     -0.557063    27A     -0.525995
      28A     -0.494569    29A     -0.487482    30A     -0.472489
      31A     -0.465656    32A     -0.344953    33A     -0.304323

  @DF-RHF Final Energy:  -383.76065260366613

   => Energetics <=

    Nuclear Repulsion Energy =            418.9505590075343662
    One-Electron Energy =               -1350.9240080926354040
    Two-Electron Energy =                 548.2127964814349070
    Total Energy =                       -383.7606526036661307
  Basis Set: (AUG-CC-PVTZ AUX)
    Blend: AUG-CC-PVTZ-RI
    Molecular point group: c1

    Geometry (in Angstrom), charge = 0, multiplicity = 1:

       Center              X                  Y                   Z               Mass
    ------------   -----------------  -----------------  -----------------  -----------------
         O           -3.137559716871     0.062831745916     0.316680532885    15.994914619570
         C            0.994390283129    -0.011693254084    -0.361491467115    12.000000000000
         C            2.490402583129     0.039682945916    -0.541310167115    12.000000000000
         C            0.243599283129    -1.183474754084    -0.240279967115    12.000000000000
         C            0.284025283129     1.187349745916    -0.237149467115    12.000000000000
         C            3.235431283129    -0.013812254084     0.796437532885    12.000000000000
         C           -1.091921716871    -1.214252254084    -0.016050467115    12.000000000000
         C           -1.090904716871     1.198931745916    -0.009464467115    12.000000000000
         C           -1.782380716871    -0.005910254084     0.101297532885    12.000000000000
         H            2.787949283129    -0.890096254084    -1.126798467115     1.007825032230
         H            2.787722283129     0.865439745916    -1.124955467115     1.007825032230
         H            0.813655283129    -2.156031254084    -0.336663467115     1.007825032230
         H            0.813381283129     2.134106745916    -0.323147467115     1.007825032230
         H            2.969206283129     0.867861745916     1.385510532885     1.007825032230
         H            4.321055283129    -0.013062254084     0.653061532885     1.007825032230
         H            2.970172283129    -0.896940254084     1.383782532885     1.007825032230
         H           -1.624654716871    -2.160920254084     0.065456532885     1.007825032230
         H           -1.638983716871     2.132508745916     0.079287532885     1.007825032230
         H           -3.490004716871    -0.842208254084     0.367315532885     1.007825032230

  Basis Set: AUG-CC-PVTZ
    Blend: AUG-CC-PVTZ
  Basis Set: (AUG-CC-PVTZ AUX)
    Blend: AUG-CC-PVTZ-JKFIT
	 Reference Energy          =    -383.7606526036661307 [Eh]
	 Singles Energy            =      -0.0000000000000000 [Eh]
	 Same-Spin Energy          =      -0.4128562941547563 [Eh]
	 Opposite-Spin Energy      =      -1.3188149135116753 [Eh]
	 Correlation Energy        =      -1.7316712076664316 [Eh]
	 Total Energy              =    -385.4923238113325397 [Eh]

	 ================> DF-SCS-MP2 Energies <==================
	-----------------------------------------------------------
	 SCS Same-Spin Scale       =       0.3333333333333333 [-]
	 SCS Opposite-Spin Scale   =       1.2000000000000000 [-]
	 SCS Same-Spin Energy      =      -0.1376187647182521 [Eh]
	 SCS Opposite-Spin Energy  =      -1.5825778962140105 [Eh]
	 SCS Correlation Energy    =      -1.7201966609322625 [Eh]
	 SCS Total Energy          =    -385.4808492645984188 [Eh]
	-----------------------------------------------------------

  Dipole Moment: [D]
     X:     0.4489      Y:    -1.2426      Z:    -0.0066     Total:     1.3212

*** Psi4 exiting successfully. Buy a developer a beer!
