                               Psi4 1.3.2 release

  ==> Input File <==

--------------------------------------------------------------------------
#psi4
#
memory 32 gb

molecule  {
0 1
  O       -3.1417080     0.0705380     0.3169670
  C        0.9872913    -0.0709170    -0.4029408
  C        2.4872910    -0.0052090    -0.5397260
  C        0.2806140    -1.2015640    -0.2442060
  C        0.2798770     1.1950560    -0.2368630
  C        3.2312830    -0.0061060     0.7967240
  C       -1.0960700    -1.2065460    -0.0157640
  C       -1.0950530     1.2066380    -0.0091780
  C       -1.7865290     0.0017960     0.1015840
  H        2.7284607    -0.8973301    -1.1293357
  H        2.7835740     0.8731460    -1.1246690
  H        0.8095070    -2.1483250    -0.3363770
  H        0.8092330     2.1418130    -0.3228610
  H        2.9650580     0.8755680     1.3857970
  H        4.3169070    -0.0053560     0.6533480
  H        2.9660240    -0.8892340     1.3840690
  H       -1.6288030    -2.1532140     0.0657430
  H       -1.6431320     2.1402150     0.0795740
  H       -3.4941530    -0.8345020     0.3676020
units angstrom
no_reorient  #important for SAPT in psi4, default
symmetry c1  #important for SAPT in psi4, default
}

set PROPERTIES_ORIGIN ["COM"]
properties('MP2/aug-cc-pvtz', properties = ['dipole'])
--------------------------------------------------------------------------

    Molecular point group: c1
  Charge       = 0
  Multiplicity = 1
  Basis Set: AUG-CC-PVTZ
    Blend: AUG-CC-PVTZ
  Basis Set: (AUG-CC-PVTZ AUX)
    Blend: AUG-CC-PVTZ-JKFIT

    Orbital Energies [Eh]
    ---------------------

    Doubly Occupied:

       1A    -20.589792     2A    -11.300173     3A    -11.242693
       4A    -11.232806     5A    -11.231145     6A    -11.229647
       7A    -11.229600     8A    -11.227266     9A    -11.216393
      10A     -1.398905    11A     -1.151310    12A     -1.058404
      13A     -1.017213    14A     -0.974831    15A     -0.863671
      16A     -0.844961    17A     -0.787446    18A     -0.728243
      19A     -0.674707    20A     -0.643737    21A     -0.611116
      22A     -0.600760    23A     -0.587612    24A     -0.583615
      25A     -0.567306    26A     -0.556810    27A     -0.526186
      28A     -0.499014    29A     -0.489425    30A     -0.468996
      31A     -0.463059    32A     -0.341554    33A     -0.305761

  @DF-RHF Final Energy:  -383.75969783180818

   => Energetics <=

    Nuclear Repulsion Energy =            418.2623906239571170
    One-Electron Energy =               -1349.5558679312055119
    Two-Electron Energy =                 547.5337794754402694
    Total Energy =                       -383.7596978318081256
  Basis Set: (AUG-CC-PVTZ AUX)
    Blend: AUG-CC-PVTZ-RI
    Molecular point group: c1

    Geometry (in Angstrom), charge = 0, multiplicity = 1:

       Center              X                  Y                   Z               Mass
    ------------   -----------------  -----------------  -----------------  -----------------
         O           -3.140961075889     0.077240657225     0.321093075116    15.994914619570
         C            0.988038224111    -0.064214342775    -0.398814724884    12.000000000000
         C            2.488037924111     0.001493657225    -0.535599924884    12.000000000000
         C            0.281360924111    -1.194861342775    -0.240079924884    12.000000000000
         C            0.280623924111     1.201758657225    -0.232736924884    12.000000000000
         C            3.232029924111     0.000596657225     0.800850075116    12.000000000000
         C           -1.095323075889    -1.199843342775    -0.011637924884    12.000000000000
         C           -1.094306075889     1.213340657225    -0.005051924884    12.000000000000
         C           -1.785782075889     0.008498657225     0.105710075116    12.000000000000
         H            2.729207624111    -0.890627442775    -1.125209624884     1.007825032230
         H            2.784320924111     0.879848657225    -1.120542924884     1.007825032230
         H            0.810253924111    -2.141622342775    -0.332250924884     1.007825032230
         H            0.809979924111     2.148515657225    -0.318734924884     1.007825032230
         H            2.965804924111     0.882270657225     1.389923075116     1.007825032230
         H            4.317653924111     0.001346657225     0.657474075116     1.007825032230
         H            2.966770924111    -0.882531342775     1.388195075116     1.007825032230
         H           -1.628056075889    -2.146511342775     0.069869075116     1.007825032230
         H           -1.642385075889     2.146917657225     0.083700075116     1.007825032230
         H           -3.493406075889    -0.827799342775     0.371728075116     1.007825032230

  Basis Set: AUG-CC-PVTZ
    Blend: AUG-CC-PVTZ
  Basis Set: (AUG-CC-PVTZ AUX)
    Blend: AUG-CC-PVTZ-JKFIT
	 Reference Energy          =    -383.7596978318081824 [Eh]
	 Singles Energy            =      -0.0000000000000000 [Eh]
	 Same-Spin Energy          =      -0.4125987660289799 [Eh]
	 Opposite-Spin Energy      =      -1.3190452264588122 [Eh]
	 Correlation Energy        =      -1.7316439924877920 [Eh]
	 Total Energy              =    -385.4913418242960006 [Eh]

	 ================> DF-SCS-MP2 Energies <==================
	-----------------------------------------------------------
	 SCS Same-Spin Scale       =       0.3333333333333333 [-]
	 SCS Opposite-Spin Scale   =       1.2000000000000000 [-]
	 SCS Same-Spin Energy      =      -0.1375329220096600 [Eh]
	 SCS Opposite-Spin Energy  =      -1.5828542717505745 [Eh]
	 SCS Correlation Energy    =      -1.7203871937602344 [Eh]
	 SCS Total Energy          =    -385.4800850255684281 [Eh]
	-----------------------------------------------------------

  Dipole Moment: [D]
     X:     0.4500      Y:    -1.2124      Z:     0.0180     Total:     1.2933

*** Psi4 exiting successfully. Buy a developer a beer!
