                               Psi4 1.3.2 release

  ==> Input File <==

--------------------------------------------------------------------------
#psi4
#
memory 32 gb

molecule  {
0 1
  O       -3.1417080     0.0705380     0.3169670
  C        0.9902420    -0.0039870    -0.3612050
  C        2.4866258     0.0473798    -0.5379076
  C        0.2806140    -1.2015640    -0.2442060
  C        0.3219815     1.2194428    -0.2410763
  C        3.2312830    -0.0061060     0.7967240
  C       -1.0960700    -1.2065460    -0.0157640
  C       -1.0950530     1.2066380    -0.0091780
  C       -1.7865290     0.0017960     0.1015840
  H        2.7838010    -0.8823900    -1.1265120
  H        2.7835740     0.8731460    -1.1246690
  H        0.8095070    -2.1483250    -0.3363770
  H        0.8092330     2.1418130    -0.3228610
  H        2.9650580     0.8755680     1.3857970
  H        4.3169070    -0.0053560     0.6533480
  H        2.9660240    -0.8892340     1.3840690
  H       -1.6288030    -2.1532140     0.0657430
  H       -1.6431320     2.1402150     0.0795740
  H       -3.4941530    -0.8345020     0.3676020
units angstrom
no_reorient  #important for SAPT in psi4, default
symmetry c1  #important for SAPT in psi4, default
}

set PROPERTIES_ORIGIN ["COM"]
properties('MP2/aug-cc-pvtz', properties = ['dipole'])
--------------------------------------------------------------------------

    Molecular point group: c1
  Charge       = 0
  Multiplicity = 1
  Basis Set: AUG-CC-PVTZ
    Blend: AUG-CC-PVTZ
  Basis Set: (AUG-CC-PVTZ AUX)
    Blend: AUG-CC-PVTZ-JKFIT

    Orbital Energies [Eh]
    ---------------------

    Doubly Occupied:

       1A    -20.589069     2A    -11.298983     3A    -11.239706
       4A    -11.236942     5A    -11.236608     6A    -11.232310
       7A    -11.231626     8A    -11.226526     9A    -11.215224
      10A     -1.398267    11A     -1.148186    12A     -1.057939
      13A     -1.013190    14A     -0.975979    15A     -0.860604
      16A     -0.847223    17A     -0.788222    18A     -0.731360
      19A     -0.673426    20A     -0.647498    21A     -0.612921
      22A     -0.600301    23A     -0.588498    24A     -0.586396
      25A     -0.565439    26A     -0.555359    27A     -0.524782
      28A     -0.501365    29A     -0.487367    30A     -0.469050
      31A     -0.462659    32A     -0.336241    33A     -0.307172

  @DF-RHF Final Energy:  -383.75948858079971

   => Energetics <=

    Nuclear Repulsion Energy =            417.7444943167405995
    One-Electron Energy =               -1348.5150897769935909
    Two-Electron Energy =                 547.0111068794532230
    Total Energy =                       -383.7594885807997116
  Basis Set: (AUG-CC-PVTZ AUX)
    Blend: AUG-CC-PVTZ-RI
    Molecular point group: c1

    Geometry (in Angstrom), charge = 0, multiplicity = 1:

       Center              X                  Y                   Z               Mass
    ------------   -----------------  -----------------  -----------------  -----------------
         O           -3.145781573006     0.062971147561     0.317202485438    15.994914619570
         C            0.986168426994    -0.011553852439    -0.360969514562    12.000000000000
         C            2.482552226994     0.039812947561    -0.537672114562    12.000000000000
         C            0.276540426994    -1.209130852439    -0.243970514562    12.000000000000
         C            0.317907926994     1.211875947561    -0.240840814562    12.000000000000
         C            3.227209426994    -0.013672852439     0.796959485438    12.000000000000
         C           -1.100143573006    -1.214112852439    -0.015528514562    12.000000000000
         C           -1.099126573006     1.199071147561    -0.008942514562    12.000000000000
         C           -1.790602573006    -0.005770852439     0.101819485438    12.000000000000
         H            2.779727426994    -0.889956852439    -1.126276514562     1.007825032230
         H            2.779500426994     0.865579147561    -1.124433514562     1.007825032230
         H            0.805433426994    -2.155891852439    -0.336141514562     1.007825032230
         H            0.805159426994     2.134246147561    -0.322625514562     1.007825032230
         H            2.960984426994     0.868001147561     1.386032485438     1.007825032230
         H            4.312833426994    -0.012922852439     0.653583485438     1.007825032230
         H            2.961950426994    -0.896800852439     1.384304485438     1.007825032230
         H           -1.632876573006    -2.160780852439     0.065978485438     1.007825032230
         H           -1.647205573006     2.132648147561     0.079809485438     1.007825032230
         H           -3.498226573006    -0.842068852439     0.367837485438     1.007825032230

  Basis Set: AUG-CC-PVTZ
    Blend: AUG-CC-PVTZ
  Basis Set: (AUG-CC-PVTZ AUX)
    Blend: AUG-CC-PVTZ-JKFIT
	 Reference Energy          =    -383.7594885807997116 [Eh]
	 Singles Energy            =      -0.0000000000000000 [Eh]
	 Same-Spin Energy          =      -0.4128935253644940 [Eh]
	 Opposite-Spin Energy      =      -1.3194447658370696 [Eh]
	 Correlation Energy        =      -1.7323382912015637 [Eh]
	 Total Energy              =    -385.4918268720012975 [Eh]

	 ================> DF-SCS-MP2 Energies <==================
	-----------------------------------------------------------
	 SCS Same-Spin Scale       =       0.3333333333333333 [-]
	 SCS Opposite-Spin Scale   =       1.2000000000000000 [-]
	 SCS Same-Spin Energy      =      -0.1376311751214980 [Eh]
	 SCS Opposite-Spin Energy  =      -1.5833337190044834 [Eh]
	 SCS Correlation Energy    =      -1.7209648941259814 [Eh]
	 SCS Total Energy          =    -385.4804534749256959 [Eh]
	-----------------------------------------------------------

  Dipole Moment: [D]
     X:     0.4664      Y:    -1.2462      Z:    -0.0182     Total:     1.3307

*** Psi4 exiting successfully. Buy a developer a beer!
