                               Psi4 1.3.2 release

  ==> Input File <==

--------------------------------------------------------------------------
#psi4
#
memory 32 gb

molecule  {
0 1
  O       -3.1410653     0.0825098     0.3168565
  C        0.9902420    -0.0039870    -0.3612050
  C        2.4872910    -0.0052090    -0.5397260
  C        0.2806140    -1.2015640    -0.2442060
  C        0.2798770     1.1950560    -0.2368630
  C        3.2312830    -0.0061060     0.7967240
  C       -1.0960700    -1.2065460    -0.0157640
  C       -1.1054637     1.2127032    -0.0075272
  C       -1.7865290     0.0017960     0.1015840
  H        2.7838010    -0.8823900    -1.1265120
  H        2.7835740     0.8731460    -1.1246690
  H        0.8095070    -2.1483250    -0.3363770
  H        0.8092330     2.1418130    -0.3228610
  H        2.9650580     0.8755680     1.3857970
  H        4.3169070    -0.0053560     0.6533480
  H        2.9660240    -0.8892340     1.3840690
  H       -1.6288030    -2.1532140     0.0657430
  H       -1.6431320     2.1402150     0.0795740
  H       -3.4941530    -0.8345020     0.3676020
units angstrom
no_reorient  #important for SAPT in psi4, default
symmetry c1  #important for SAPT in psi4, default
}

set PROPERTIES_ORIGIN ["COM"]
properties('MP2/aug-cc-pvtz', properties = ['dipole'])
--------------------------------------------------------------------------

    Molecular point group: c1
  Charge       = 0
  Multiplicity = 1
  Basis Set: AUG-CC-PVTZ
    Blend: AUG-CC-PVTZ
  Basis Set: (AUG-CC-PVTZ AUX)
    Blend: AUG-CC-PVTZ-JKFIT

    Orbital Energies [Eh]
    ---------------------

    Doubly Occupied:

       1A    -20.590299     2A    -11.299179     3A    -11.238614
       4A    -11.237339     5A    -11.235057     6A    -11.230977
       7A    -11.227875     8A    -11.227112     9A    -11.215231
      10A     -1.396593    11A     -1.150009    12A     -1.057700
      13A     -1.015885    14A     -0.975292    15A     -0.860716
      16A     -0.843532    17A     -0.790844    18A     -0.725789
      19A     -0.672389    20A     -0.647171    21A     -0.612141
      22A     -0.596987    23A     -0.587893    24A     -0.585580
      25A     -0.567858    26A     -0.555793    27A     -0.523148
      28A     -0.498905    29A     -0.479762    30A     -0.478838
      31A     -0.467431    32A     -0.339323    33A     -0.306080

  @DF-RHF Final Energy:  -383.76544822334625

   => Energetics <=

    Nuclear Repulsion Energy =            418.1112902446973294
    One-Electron Energy =               -1349.2787920943403606
    Two-Electron Energy =                 547.4020536262967198
    Total Energy =                       -383.7654482233463114
  Basis Set: (AUG-CC-PVTZ AUX)
    Blend: AUG-CC-PVTZ-RI
    Molecular point group: c1

    Geometry (in Angstrom), charge = 0, multiplicity = 1:

       Center              X                  Y                   Z               Mass
    ------------   -----------------  -----------------  -----------------  -----------------
         O           -3.140126140939     0.080344928263     0.316708764752    15.994914619570
         C            0.991181159061    -0.006151871737    -0.361352735248    12.000000000000
         C            2.488230159061    -0.007373871737    -0.539873735248    12.000000000000
         C            0.281553159061    -1.203728871737    -0.244353735248    12.000000000000
         C            0.280816159061     1.192891128263    -0.237010735248    12.000000000000
         C            3.232222159061    -0.008270871737     0.796576264752    12.000000000000
         C           -1.095130840939    -1.208710871737    -0.015911735248    12.000000000000
         C           -1.104524540939     1.210538328263    -0.007674935248    12.000000000000
         C           -1.785589840939    -0.000368871737     0.101436264752    12.000000000000
         H            2.784740159061    -0.884554871737    -1.126659735248     1.007825032230
         H            2.784513159061     0.870981128263    -1.124816735248     1.007825032230
         H            0.810446159061    -2.150489871737    -0.336524735248     1.007825032230
         H            0.810172159061     2.139648128263    -0.323008735248     1.007825032230
         H            2.965997159061     0.873403128263     1.385649264752     1.007825032230
         H            4.317846159061    -0.007520871737     0.653200264752     1.007825032230
         H            2.966963159061    -0.891398871737     1.383921264752     1.007825032230
         H           -1.627863840939    -2.155378871737     0.065595264752     1.007825032230
         H           -1.642192840939     2.138050128263     0.079426264752     1.007825032230
         H           -3.493213840939    -0.836666871737     0.367454264752     1.007825032230

  Basis Set: AUG-CC-PVTZ
    Blend: AUG-CC-PVTZ
  Basis Set: (AUG-CC-PVTZ AUX)
    Blend: AUG-CC-PVTZ-JKFIT
	 Reference Energy          =    -383.7654482233462545 [Eh]
	 Singles Energy            =      -0.0000000000000000 [Eh]
	 Same-Spin Energy          =      -0.4129186202803717 [Eh]
	 Opposite-Spin Energy      =      -1.3192433912413106 [Eh]
	 Correlation Energy        =      -1.7321620115216825 [Eh]
	 Total Energy              =    -385.4976102348679206 [Eh]

	 ================> DF-SCS-MP2 Energies <==================
	-----------------------------------------------------------
	 SCS Same-Spin Scale       =       0.3333333333333333 [-]
	 SCS Opposite-Spin Scale   =       1.2000000000000000 [-]
	 SCS Same-Spin Energy      =      -0.1376395400934572 [Eh]
	 SCS Opposite-Spin Energy  =      -1.5830920694895727 [Eh]
	 SCS Correlation Energy    =      -1.7207316095830301 [Eh]
	 SCS Total Energy          =    -385.4861798329292810 [Eh]
	-----------------------------------------------------------

  Dipole Moment: [D]
     X:     0.4613      Y:    -1.2836      Z:    -0.0176     Total:     1.3640

*** Psi4 exiting successfully. Buy a developer a beer!
