                               Psi4 1.3.2 release

  ==> Input File <==

--------------------------------------------------------------------------
#psi4
#
memory 32 gb

molecule  {
0 1
  O       -3.1433000     0.0226084     0.3169086
  C        0.9902420    -0.0039870    -0.3612050
  C        2.4872910    -0.0052090    -0.5397260
  C        0.2806140    -1.2015640    -0.2442060
  C        0.2798770     1.1950560    -0.2368630
  C        3.2312830    -0.0061060     0.7967240
  C       -1.1381659    -1.2302501    -0.0092412
  C       -1.0950530     1.2066380    -0.0091780
  C       -1.7865290     0.0017960     0.1015840
  H        2.7838010    -0.8823900    -1.1265120
  H        2.7835740     0.8731460    -1.1246690
  H        0.8095070    -2.1483250    -0.3363770
  H        0.8092330     2.1418130    -0.3228610
  H        2.9650580     0.8755680     1.3857970
  H        4.3169070    -0.0053560     0.6533480
  H        2.9660240    -0.8892340     1.3840690
  H       -1.6288030    -2.1532140     0.0657430
  H       -1.6431320     2.1402150     0.0795740
  H       -3.4941530    -0.8345020     0.3676020
units angstrom
no_reorient  #important for SAPT in psi4, default
symmetry c1  #important for SAPT in psi4, default
}

set PROPERTIES_ORIGIN ["COM"]
properties('MP2/aug-cc-pvtz', properties = ['dipole'])
--------------------------------------------------------------------------

    Molecular point group: c1
  Charge       = 0
  Multiplicity = 1
  Basis Set: AUG-CC-PVTZ
    Blend: AUG-CC-PVTZ
  Basis Set: (AUG-CC-PVTZ AUX)
    Blend: AUG-CC-PVTZ-JKFIT

    Orbital Energies [Eh]
    ---------------------

    Doubly Occupied:

       1A    -20.581197     2A    -11.301270     3A    -11.242360
       4A    -11.238651     5A    -11.233753     6A    -11.231619
       7A    -11.230334     8A    -11.227562     9A    -11.215450
      10A     -1.405334    11A     -1.148318    12A     -1.058720
      13A     -1.013549    14A     -0.977455    15A     -0.863721
      16A     -0.845243    17A     -0.794850    18A     -0.735912
      19A     -0.668185    20A     -0.654119    21A     -0.618647
      22A     -0.596302    23A     -0.587991    24A     -0.585708
      25A     -0.571414    26A     -0.549027    27A     -0.522893
      28A     -0.500956    29A     -0.481171    30A     -0.477435
      31A     -0.465621    32A     -0.336541    33A     -0.307739

  @DF-RHF Final Energy:  -383.76387349235404

   => Energetics <=

    Nuclear Repulsion Energy =            417.8475259154595278
    One-Electron Energy =               -1348.6847137870138340
    Two-Electron Energy =                 547.0733143792002693
    Total Energy =                       -383.7638734923540369
  Basis Set: (AUG-CC-PVTZ AUX)
    Blend: AUG-CC-PVTZ-RI
    Molecular point group: c1

    Geometry (in Angstrom), charge = 0, multiplicity = 1:

       Center              X                  Y                   Z               Mass
    ------------   -----------------  -----------------  -----------------  -----------------
         O           -3.138953325160     0.031218618588     0.316275112334    15.994914619570
         C            0.994588674840     0.004623218588    -0.361838487666    12.000000000000
         C            2.491637674840     0.003401218588    -0.540359487666    12.000000000000
         C            0.284960674840    -1.192953781412    -0.244839487666    12.000000000000
         C            0.284223674840     1.203666218588    -0.237496487666    12.000000000000
         C            3.235629674840     0.002504218588     0.796090512334    12.000000000000
         C           -1.133819225160    -1.221639881412    -0.009874687666    12.000000000000
         C           -1.090706325160     1.215248218588    -0.009811487666    12.000000000000
         C           -1.782182325160     0.010406218588     0.100950512334    12.000000000000
         H            2.788147674840    -0.873779781412    -1.127145487666     1.007825032230
         H            2.787920674840     0.881756218588    -1.125302487666     1.007825032230
         H            0.813853674840    -2.139714781412    -0.337010487666     1.007825032230
         H            0.813579674840     2.150423218588    -0.323494487666     1.007825032230
         H            2.969404674840     0.884178218588     1.385163512334     1.007825032230
         H            4.321253674840     0.003254218588     0.652714512334     1.007825032230
         H            2.970370674840    -0.880623781412     1.383435512334     1.007825032230
         H           -1.624456325160    -2.144603781412     0.065109512334     1.007825032230
         H           -1.638785325160     2.148825218588     0.078940512334     1.007825032230
         H           -3.489806325160    -0.825891781412     0.366968512334     1.007825032230

  Basis Set: AUG-CC-PVTZ
    Blend: AUG-CC-PVTZ
  Basis Set: (AUG-CC-PVTZ AUX)
    Blend: AUG-CC-PVTZ-JKFIT
	 Reference Energy          =    -383.7638734923540369 [Eh]
	 Singles Energy            =      -0.0000000000000000 [Eh]
	 Same-Spin Energy          =      -0.4119675247267009 [Eh]
	 Opposite-Spin Energy      =      -1.3173679166190153 [Eh]
	 Correlation Energy        =      -1.7293354413457163 [Eh]
	 Total Energy              =    -385.4932089336997478 [Eh]

	 ================> DF-SCS-MP2 Energies <==================
	-----------------------------------------------------------
	 SCS Same-Spin Scale       =       0.3333333333333333 [-]
	 SCS Opposite-Spin Scale   =       1.2000000000000000 [-]
	 SCS Same-Spin Energy      =      -0.1373225082422336 [Eh]
	 SCS Opposite-Spin Energy  =      -1.5808414999428184 [Eh]
	 SCS Correlation Energy    =      -1.7181640081850520 [Eh]
	 SCS Total Energy          =    -385.4820375005390929 [Eh]
	-----------------------------------------------------------

  Dipole Moment: [D]
     X:     0.5233      Y:    -1.2147      Z:    -0.0250     Total:     1.3228

*** Psi4 exiting successfully. Buy a developer a beer!
