                               Psi4 1.3.2 release

  ==> Input File <==

--------------------------------------------------------------------------
#psi4
#
memory 32 gb

molecule  {
0 1
  O       -3.1417080     0.0705380     0.3169670
  C        0.9799139     0.0022435    -0.3594382
  C        2.4872910    -0.0052090    -0.5397260
  C        0.2806140    -1.2015640    -0.2442060
  C        0.2798770     1.1950560    -0.2368630
  C        3.2312830    -0.0061060     0.7967240
  C       -1.0960700    -1.2065460    -0.0157640
  C       -1.0950530     1.2066380    -0.0091780
  C       -1.7865290     0.0017960     0.1015840
  H        2.7838010    -0.8823900    -1.1265120
  H        2.7835740     0.8731460    -1.1246690
  H        0.8013389    -2.1529738    -0.3350056
  H        0.8092330     2.1418130    -0.3228610
  H        2.9650580     0.8755680     1.3857970
  H        4.3169070    -0.0053560     0.6533480
  H        2.9660240    -0.8892340     1.3840690
  H       -1.6288030    -2.1532140     0.0657430
  H       -1.6431320     2.1402150     0.0795740
  H       -3.4941530    -0.8345020     0.3676020
units angstrom
no_reorient  #important for SAPT in psi4, default
symmetry c1  #important for SAPT in psi4, default
}

set PROPERTIES_ORIGIN ["COM"]
properties('MP2/aug-cc-pvtz', properties = ['dipole'])
--------------------------------------------------------------------------

    Molecular point group: c1
  Charge       = 0
  Multiplicity = 1
  Basis Set: AUG-CC-PVTZ
    Blend: AUG-CC-PVTZ
  Basis Set: (AUG-CC-PVTZ AUX)
    Blend: AUG-CC-PVTZ-JKFIT

    Orbital Energies [Eh]
    ---------------------

    Doubly Occupied:

       1A    -20.589226     2A    -11.299080     3A    -11.238262
       4A    -11.235150     5A    -11.234732     6A    -11.230378
       7A    -11.227978     8A    -11.227309     9A    -11.215017
      10A     -1.398413    11A     -1.151930    12A     -1.056592
      13A     -1.017279    14A     -0.976165    15A     -0.860575
      16A     -0.842920    17A     -0.792059    18A     -0.728876
      19A     -0.671679    20A     -0.646022    21A     -0.613314
      22A     -0.595707    23A     -0.588408    24A     -0.586155
      25A     -0.569469    26A     -0.555204    27A     -0.522661
      28A     -0.498282    29A     -0.479341    30A     -0.476962
      31A     -0.468979    32A     -0.340723    33A     -0.306517

  @DF-RHF Final Energy:  -383.76676621050296

   => Energetics <=

    Nuclear Repulsion Energy =            418.3965813901954220
    One-Electron Energy =               -1349.8439678589156756
    Two-Electron Energy =                 547.6806202582172318
    Total Energy =                       -383.7667662105029649
  Basis Set: (AUG-CC-PVTZ AUX)
    Blend: AUG-CC-PVTZ-RI
    Molecular point group: c1

    Geometry (in Angstrom), charge = 0, multiplicity = 1:

       Center              X                  Y                   Z               Mass
    ------------   -----------------  -----------------  -----------------  -----------------
         O           -3.140625314331     0.069963891441     0.316782061086    15.994914619570
         C            0.980996585669     0.001669391441    -0.359623138914    12.000000000000
         C            2.488373685669    -0.005783108559    -0.539910938914    12.000000000000
         C            0.281696685669    -1.202138108559    -0.244390938914    12.000000000000
         C            0.280959685669     1.194481891441    -0.237047938914    12.000000000000
         C            3.232365685669    -0.006680108559     0.796539061086    12.000000000000
         C           -1.094987314331    -1.207120108559    -0.015948938914    12.000000000000
         C           -1.093970314331     1.206063891441    -0.009362938914    12.000000000000
         C           -1.785446314331     0.001221891441     0.101399061086    12.000000000000
         H            2.784883685669    -0.882964108559    -1.126696938914     1.007825032230
         H            2.784656685669     0.872571891441    -1.124853938914     1.007825032230
         H            0.802421585669    -2.153547908559    -0.335190538914     1.007825032230
         H            0.810315685669     2.141238891441    -0.323045938914     1.007825032230
         H            2.966140685669     0.874993891441     1.385612061086     1.007825032230
         H            4.317989685669    -0.005930108559     0.653163061086     1.007825032230
         H            2.967106685669    -0.889808108559     1.383884061086     1.007825032230
         H           -1.627720314331    -2.153788108559     0.065558061086     1.007825032230
         H           -1.642049314331     2.139640891441     0.079389061086     1.007825032230
         H           -3.493070314331    -0.835076108559     0.367417061086     1.007825032230

  Basis Set: AUG-CC-PVTZ
    Blend: AUG-CC-PVTZ
  Basis Set: (AUG-CC-PVTZ AUX)
    Blend: AUG-CC-PVTZ-JKFIT
	 Reference Energy          =    -383.7667662105029649 [Eh]
	 Singles Energy            =      -0.0000000000000000 [Eh]
	 Same-Spin Energy          =      -0.4126615100298877 [Eh]
	 Opposite-Spin Energy      =      -1.3185951824098838 [Eh]
	 Correlation Energy        =      -1.7312566924397714 [Eh]
	 Total Energy              =    -385.4980229029427505 [Eh]

	 ================> DF-SCS-MP2 Energies <==================
	-----------------------------------------------------------
	 SCS Same-Spin Scale       =       0.3333333333333333 [-]
	 SCS Opposite-Spin Scale   =       1.2000000000000000 [-]
	 SCS Same-Spin Energy      =      -0.1375538366766292 [Eh]
	 SCS Opposite-Spin Energy  =      -1.5823142188918606 [Eh]
	 SCS Correlation Energy    =      -1.7198680555684898 [Eh]
	 SCS Total Energy          =    -385.4866342660714622 [Eh]
	-----------------------------------------------------------

  Dipole Moment: [D]
     X:     0.4532      Y:    -1.2796      Z:    -0.0191     Total:     1.3576

*** Psi4 exiting successfully. Buy a developer a beer!
