                               Psi4 1.3.2 release

  ==> Input File <==

--------------------------------------------------------------------------
#psi4
#
memory 32 gb

molecule  {
0 1
  O       -3.1417080     0.0705380     0.3169670
  C        1.0310062    -0.0298162    -0.3681817
  C        2.4872910    -0.0052090    -0.5397260
  C        0.2806140    -1.2015640    -0.2442060
  C        0.2798770     1.1950560    -0.2368630
  C        3.2312830    -0.0061060     0.7967240
  C       -1.0960700    -1.2065460    -0.0157640
  C       -1.0950530     1.2066380    -0.0091780
  C       -1.7865290     0.0017960     0.1015840
  H        2.7838010    -0.8823900    -1.1265120
  H        2.7835740     0.8731460    -1.1246690
  H        0.8417704    -2.1290122    -0.3417913
  H        0.8092330     2.1418130    -0.3228610
  H        2.9650580     0.8755680     1.3857970
  H        4.3169070    -0.0053560     0.6533480
  H        2.9660240    -0.8892340     1.3840690
  H       -1.6288030    -2.1532140     0.0657430
  H       -1.6431320     2.1402150     0.0795740
  H       -3.4941530    -0.8345020     0.3676020
units angstrom
no_reorient  #important for SAPT in psi4, default
symmetry c1  #important for SAPT in psi4, default
}

set PROPERTIES_ORIGIN ["COM"]
properties('MP2/aug-cc-pvtz', properties = ['dipole'])
--------------------------------------------------------------------------

    Molecular point group: c1
  Charge       = 0
  Multiplicity = 1
  Basis Set: AUG-CC-PVTZ
    Blend: AUG-CC-PVTZ
  Basis Set: (AUG-CC-PVTZ AUX)
    Blend: AUG-CC-PVTZ-JKFIT

    Orbital Energies [Eh]
    ---------------------

    Doubly Occupied:

       1A    -20.590036     2A    -11.300358     3A    -11.240785
       4A    -11.237775     5A    -11.234463     6A    -11.233185
       7A    -11.228803     8A    -11.225977     9A    -11.216213
      10A     -1.399097    11A     -1.148349    12A     -1.063974
      13A     -1.014797    14A     -0.973544    15A     -0.866375
      16A     -0.842338    17A     -0.788522    18A     -0.727157
      19A     -0.674344    20A     -0.650071    21A     -0.611738
      22A     -0.597823    23A     -0.587264    24A     -0.582733
      25A     -0.569610    26A     -0.555659    27A     -0.526565
      28A     -0.498130    29A     -0.490945    30A     -0.470930
      31A     -0.465249    32A     -0.339916    33A     -0.302913

  @DF-RHF Final Energy:  -383.76253103922835

   => Energetics <=

    Nuclear Repulsion Energy =            418.0602053846292279
    One-Electron Energy =               -1349.1341973287298970
    Two-Electron Energy =                 547.3114609048724333
    Total Energy =                       -383.7625310392282927
  Basis Set: (AUG-CC-PVTZ AUX)
    Blend: AUG-CC-PVTZ-RI
    Molecular point group: c1

    Geometry (in Angstrom), charge = 0, multiplicity = 1:

       Center              X                  Y                   Z               Mass
    ------------   -----------------  -----------------  -----------------  -----------------
         O           -3.145981573244     0.072917589741     0.317697584152    15.994914619570
         C            1.026732626756    -0.027436610259    -0.367451115848    12.000000000000
         C            2.483017426756    -0.002829410259    -0.538995415848    12.000000000000
         C            0.276340426756    -1.199184410259    -0.243475415848    12.000000000000
         C            0.275603426756     1.197435589741    -0.236132415848    12.000000000000
         C            3.227009426756    -0.003726410259     0.797454584152    12.000000000000
         C           -1.100343573244    -1.204166410259    -0.015033415848    12.000000000000
         C           -1.099326573244     1.209017589741    -0.008447415848    12.000000000000
         C           -1.790802573244     0.004175589741     0.102314584152    12.000000000000
         H            2.779527426756    -0.880010410259    -1.125781415848     1.007825032230
         H            2.779300426756     0.875525589741    -1.123938415848     1.007825032230
         H            0.837496826756    -2.126632610259    -0.341060715848     1.007825032230
         H            0.804959426756     2.144192589741    -0.322130415848     1.007825032230
         H            2.960784426756     0.877947589741     1.386527584152     1.007825032230
         H            4.312633426756    -0.002976410259     0.654078584152     1.007825032230
         H            2.961750426756    -0.886854410259     1.384799584152     1.007825032230
         H           -1.633076573244    -2.150834410259     0.066473584152     1.007825032230
         H           -1.647405573244     2.142594589741     0.080304584152     1.007825032230
         H           -3.498426573244    -0.832122410259     0.368332584152     1.007825032230

  Basis Set: AUG-CC-PVTZ
    Blend: AUG-CC-PVTZ
  Basis Set: (AUG-CC-PVTZ AUX)
    Blend: AUG-CC-PVTZ-JKFIT
	 Reference Energy          =    -383.7625310392283495 [Eh]
	 Singles Energy            =      -0.0000000000000000 [Eh]
	 Same-Spin Energy          =      -0.4132051379109145 [Eh]
	 Opposite-Spin Energy      =      -1.3195634416872406 [Eh]
	 Correlation Energy        =      -1.7327685795981551 [Eh]
	 Total Energy              =    -385.4952996188264933 [Eh]

	 ================> DF-SCS-MP2 Energies <==================
	-----------------------------------------------------------
	 SCS Same-Spin Scale       =       0.3333333333333333 [-]
	 SCS Opposite-Spin Scale   =       1.2000000000000000 [-]
	 SCS Same-Spin Energy      =      -0.1377350459703048 [Eh]
	 SCS Opposite-Spin Energy  =      -1.5834761300246887 [Eh]
	 SCS Correlation Energy    =      -1.7212111759949935 [Eh]
	 SCS Total Energy          =    -385.4837422152233444 [Eh]
	-----------------------------------------------------------

  Dipole Moment: [D]
     X:     0.5097      Y:    -1.2421      Z:    -0.0150     Total:     1.3427

*** Psi4 exiting successfully. Buy a developer a beer!
