                               Psi4 1.3.2 release

  ==> Input File <==

--------------------------------------------------------------------------
#psi4
#
memory 32 gb

molecule  {
0 1
  O       -3.1417080     0.0705380     0.3169670
  C        0.9902420    -0.0039870    -0.3612050
  C        2.4872910    -0.0052090    -0.5397260
  C        0.2806140    -1.2015640    -0.2442060
  C        0.2798770     1.1950560    -0.2368630
  C        3.2312830    -0.0061060     0.7967240
  C       -1.0960700    -1.2065460    -0.0157640
  C       -1.0950530     1.2066380    -0.0091780
  C       -1.8478326     0.0400976     0.1114775
  H        2.7838010    -0.8823900    -1.1265120
  H        2.7835740     0.8731460    -1.1246690
  H        0.8095070    -2.1483250    -0.3363770
  H        0.8092330     2.1418130    -0.3228610
  H        2.9650580     0.8755680     1.3857970
  H        4.3169070    -0.0053560     0.6533480
  H        2.9660240    -0.8892340     1.3840690
  H       -1.6288030    -2.1532140     0.0657430
  H       -1.6906211     2.1098777     0.0872075
  H       -3.4941530    -0.8345020     0.3676020
units angstrom
no_reorient  #important for SAPT in psi4, default
symmetry c1  #important for SAPT in psi4, default
}

set PROPERTIES_ORIGIN ["COM"]
properties('MP2/aug-cc-pvtz', properties = ['dipole'])
--------------------------------------------------------------------------

    Molecular point group: c1
  Charge       = 0
  Multiplicity = 1
  Basis Set: AUG-CC-PVTZ
    Blend: AUG-CC-PVTZ
  Basis Set: (AUG-CC-PVTZ AUX)
    Blend: AUG-CC-PVTZ-JKFIT

    Orbital Energies [Eh]
    ---------------------

    Doubly Occupied:

       1A    -20.601033     2A    -11.305158     3A    -11.237563
       4A    -11.236175     5A    -11.235603     6A    -11.227502
       7A    -11.225078     8A    -11.223791     9A    -11.213526
      10A     -1.433244    11A     -1.143971    12A     -1.053258
      13A     -1.011265    14A     -0.972568    15A     -0.865686
      16A     -0.837679    17A     -0.795006    18A     -0.741337
      19A     -0.675058    20A     -0.650393    21A     -0.613630
      22A     -0.606392    23A     -0.597092    24A     -0.577962
      25A     -0.571978    26A     -0.557230    27A     -0.522630
      28A     -0.489665    29A     -0.479095    30A     -0.469863
      31A     -0.464344    32A     -0.338106    33A     -0.296467

  @DF-RHF Final Energy:  -383.75944594634291

   => Energetics <=

    Nuclear Repulsion Energy =            418.0105863430536601
    One-Electron Energy =               -1349.0013719791620588
    Two-Electron Energy =                 547.2313396897654911
    Total Energy =                       -383.7594459463429075
  Basis Set: (AUG-CC-PVTZ AUX)
    Blend: AUG-CC-PVTZ-RI
    Molecular point group: c1

    Geometry (in Angstrom), charge = 0, multiplicity = 1:

       Center              X                  Y                   Z               Mass
    ------------   -----------------  -----------------  -----------------  -----------------
         O           -3.135289705245     0.067023329633     0.315931493304    15.994914619570
         C            0.996660294755    -0.007501670367    -0.362240506696    12.000000000000
         C            2.493709294755    -0.008723670367    -0.540761506696    12.000000000000
         C            0.287032294755    -1.205078670367    -0.245241506696    12.000000000000
         C            0.286295294755     1.191541329633    -0.237898506696    12.000000000000
         C            3.237701294755    -0.009620670367     0.795688493304    12.000000000000
         C           -1.089651705245    -1.210060670367    -0.016799506696    12.000000000000
         C           -1.088634705245     1.203123329633    -0.010213506696    12.000000000000
         C           -1.841414305245     0.036582929633     0.110441993304    12.000000000000
         H            2.790219294755    -0.885904670367    -1.127547506696     1.007825032230
         H            2.789992294755     0.869631329633    -1.125704506696     1.007825032230
         H            0.815925294755    -2.151839670367    -0.337412506696     1.007825032230
         H            0.815651294755     2.138298329633    -0.323896506696     1.007825032230
         H            2.971476294755     0.872053329633     1.384761493304     1.007825032230
         H            4.323325294755    -0.008870670367     0.652312493304     1.007825032230
         H            2.972442294755    -0.892748670367     1.383033493304     1.007825032230
         H           -1.622384705245    -2.156728670367     0.064707493304     1.007825032230
         H           -1.684202805245     2.106363029633     0.086171993304     1.007825032230
         H           -3.487734705245    -0.838016670367     0.366566493304     1.007825032230

  Basis Set: AUG-CC-PVTZ
    Blend: AUG-CC-PVTZ
  Basis Set: (AUG-CC-PVTZ AUX)
    Blend: AUG-CC-PVTZ-JKFIT
	 Reference Energy          =    -383.7594459463429075 [Eh]
	 Singles Energy            =      -0.0000000000000000 [Eh]
	 Same-Spin Energy          =      -0.4129353980268881 [Eh]
	 Opposite-Spin Energy      =      -1.3185772685774981 [Eh]
	 Correlation Energy        =      -1.7315126666043863 [Eh]
	 Total Energy              =    -385.4909586129472814 [Eh]

	 ================> DF-SCS-MP2 Energies <==================
	-----------------------------------------------------------
	 SCS Same-Spin Scale       =       0.3333333333333333 [-]
	 SCS Opposite-Spin Scale   =       1.2000000000000000 [-]
	 SCS Same-Spin Energy      =      -0.1376451326756293 [Eh]
	 SCS Opposite-Spin Energy  =      -1.5822927222929977 [Eh]
	 SCS Correlation Energy    =      -1.7199378549686271 [Eh]
	 SCS Total Energy          =    -385.4793838013115419 [Eh]
	-----------------------------------------------------------

  Dipole Moment: [D]
     X:    -0.0144      Y:    -1.2923      Z:     0.0521     Total:     1.2934

*** Psi4 exiting successfully. Buy a developer a beer!
