                               Psi4 1.3.2 release

  ==> Input File <==

--------------------------------------------------------------------------
#psi4
#
memory 32 gb

molecule  {
0 1
  O       -3.1417080     0.0705380     0.3169670
  C        0.9902420    -0.0039870    -0.3612050
  C        2.4854265    -0.0840835    -0.5373723
  C        0.3439636    -1.2375121    -0.2507904
  C        0.2798770     1.1950560    -0.2368630
  C        3.2312830    -0.0061060     0.7967240
  C       -1.0960700    -1.2065460    -0.0157640
  C       -1.0950530     1.2066380    -0.0091780
  C       -1.7865290     0.0017960     0.1015840
  H        2.7838010    -0.8823900    -1.1265120
  H        2.7835740     0.8731460    -1.1246690
  H        0.8095070    -2.1483250    -0.3363770
  H        0.8092330     2.1418130    -0.3228610
  H        2.9650580     0.8755680     1.3857970
  H        4.3169070    -0.0053560     0.6533480
  H        2.9660240    -0.8892340     1.3840690
  H       -1.6288030    -2.1532140     0.0657430
  H       -1.6431320     2.1402150     0.0795740
  H       -3.4941530    -0.8345020     0.3676020
units angstrom
no_reorient  #important for SAPT in psi4, default
symmetry c1  #important for SAPT in psi4, default
}

set PROPERTIES_ORIGIN ["COM"]
properties('MP2/aug-cc-pvtz', properties = ['dipole'])
--------------------------------------------------------------------------

    Molecular point group: c1
  Charge       = 0
  Multiplicity = 1
  Basis Set: AUG-CC-PVTZ
    Blend: AUG-CC-PVTZ
  Basis Set: (AUG-CC-PVTZ AUX)
    Blend: AUG-CC-PVTZ-JKFIT

    Orbital Energies [Eh]
    ---------------------

    Doubly Occupied:

       1A    -20.589065     2A    -11.299313     3A    -11.239676
       4A    -11.238735     5A    -11.238209     6A    -11.233439
       7A    -11.231775     8A    -11.226669     9A    -11.215438
      10A     -1.398263    11A     -1.146992    12A     -1.058361
      13A     -1.011181    14A     -0.975996    15A     -0.862779
      16A     -0.846921    17A     -0.791889    18A     -0.729476
      19A     -0.665677    20A     -0.652765    21A     -0.625088
      22A     -0.592978    23A     -0.588029    24A     -0.584856
      25A     -0.571283    26A     -0.553601    27A     -0.524428
      28A     -0.503798    29A     -0.488997    30A     -0.466376
      31A     -0.456379    32A     -0.334459    33A     -0.308360

  @DF-RHF Final Energy:  -383.75094728554569

   => Energetics <=

    Nuclear Repulsion Energy =            417.4757007310762447
    One-Electron Energy =               -1347.9507862105569984
    Two-Electron Energy =                 546.7241381939350049
    Total Energy =                       -383.7509472855457489
  Basis Set: (AUG-CC-PVTZ AUX)
    Blend: AUG-CC-PVTZ-RI
    Molecular point group: c1

    Geometry (in Angstrom), charge = 0, multiplicity = 1:

       Center              X                  Y                   Z               Mass
    ------------   -----------------  -----------------  -----------------  -----------------
         O           -3.147752109283     0.081825237247     0.317382947704    15.994914619570
         C            0.984197890717     0.007300237247    -0.360789052296    12.000000000000
         C            2.479382390717    -0.072796262753    -0.536956352296    12.000000000000
         C            0.337919490717    -1.226224862753    -0.250374452296    12.000000000000
         C            0.273832890717     1.206343237247    -0.236447052296    12.000000000000
         C            3.225238890717     0.005181237247     0.797139947704    12.000000000000
         C           -1.102114109283    -1.195258762753    -0.015348052296    12.000000000000
         C           -1.101097109283     1.217925237247    -0.008762052296    12.000000000000
         C           -1.792573109283     0.013083237247     0.101999947704    12.000000000000
         H            2.777756890717    -0.871102762753    -1.126096052296     1.007825032230
         H            2.777529890717     0.884433237247    -1.124253052296     1.007825032230
         H            0.803462890717    -2.137037762753    -0.335961052296     1.007825032230
         H            0.803188890717     2.153100237247    -0.322445052296     1.007825032230
         H            2.959013890717     0.886855237247     1.386212947704     1.007825032230
         H            4.310862890717     0.005931237247     0.653763947704     1.007825032230
         H            2.959979890717    -0.877946762753     1.384484947704     1.007825032230
         H           -1.634847109283    -2.141926762753     0.066158947704     1.007825032230
         H           -1.649176109283     2.151502237247     0.079989947704     1.007825032230
         H           -3.500197109283    -0.823214762753     0.368017947704     1.007825032230

  Basis Set: AUG-CC-PVTZ
    Blend: AUG-CC-PVTZ
  Basis Set: (AUG-CC-PVTZ AUX)
    Blend: AUG-CC-PVTZ-JKFIT
	 Reference Energy          =    -383.7509472855456920 [Eh]
	 Singles Energy            =      -0.0000000000000000 [Eh]
	 Same-Spin Energy          =      -0.4130021322795882 [Eh]
	 Opposite-Spin Energy      =      -1.3200821489565389 [Eh]
	 Correlation Energy        =      -1.7330842812361271 [Eh]
	 Total Energy              =    -385.4840315667818231 [Eh]

	 ================> DF-SCS-MP2 Energies <==================
	-----------------------------------------------------------
	 SCS Same-Spin Scale       =       0.3333333333333333 [-]
	 SCS Opposite-Spin Scale   =       1.2000000000000000 [-]
	 SCS Same-Spin Energy      =      -0.1376673774265294 [Eh]
	 SCS Opposite-Spin Energy  =      -1.5840985787478465 [Eh]
	 SCS Correlation Energy    =      -1.7217659561743759 [Eh]
	 SCS Total Energy          =    -385.4727132417200437 [Eh]
	-----------------------------------------------------------

  Dipole Moment: [D]
     X:     0.4632      Y:    -1.3003      Z:    -0.0146     Total:     1.3804

*** Psi4 exiting successfully. Buy a developer a beer!
