                               Psi4 1.4a3.dev225

  ==> Input File <==

--------------------------------------------------------------------------
#psi4
#
memory 32 gb

molecule  {
0 1
  O        3.2216350    -0.1065060     0.2904990
  C       -0.9146420     0.0169590    -0.3639610
  C       -2.4121960     0.0318470    -0.5323860
  C       -0.1804128     1.2246576    -0.2356700
  C       -0.2138010    -1.1929940    -0.2539850
  C       -3.1413340    -0.0192130     0.8137010
  C        1.1888560     1.1991780    -0.0236810
  C        1.1619340    -1.2201410    -0.0407060
  C        1.8648900    -0.0185630     0.0807020
  H       -2.7091570     0.9353730    -1.0779940
  H       -2.7186560    -0.8212200    -1.1493620
  H       -0.7079800     2.1625600    -0.3214960
  H       -0.7531780    -2.1343060    -0.3521420
  H       -2.8726550    -0.9274190     1.3607640
  H       -4.2274440    -0.0080790     0.6778440
  H       -2.8630000     0.8390280     1.4320080
  H        1.7343360     2.1384520     0.0639930
  H        1.7070130    -2.1569100     0.0367280
  H        3.5799610     0.7963060     0.3524270
units angstrom
no_reorient  #important for SAPT in psi4, default
symmetry c1  #important for SAPT in psi4, default
}

set PROPERTIES_ORIGIN ["COM"]
properties('MP2/aug-cc-pvtz', properties = ['dipole'])
--------------------------------------------------------------------------

    Molecular point group: c1
  Charge       = 0
  Multiplicity = 1
  Basis Set: AUG-CC-PVTZ
    Blend: AUG-CC-PVTZ
  Basis Set: (AUG-CC-PVTZ AUX)
    Blend: AUG-CC-PVTZ-JKFIT

    Orbital Energies [Eh]
    ---------------------

    Doubly Occupied:

       1A    -20.589473     2A    -11.299770     3A    -11.239213
       4A    -11.236513     5A    -11.234698     6A    -11.233695
       7A    -11.228478     8A    -11.227478     9A    -11.215454
      10A     -1.397806    11A     -1.149010    12A     -1.057334
      13A     -1.018329    14A     -0.973250    15A     -0.861642
      16A     -0.841557    17A     -0.791032    18A     -0.727626
      19A     -0.672046    20A     -0.647261    21A     -0.612988
      22A     -0.595011    23A     -0.588858    24A     -0.586081
      25A     -0.568556    26A     -0.555779    27A     -0.522769
      28A     -0.498480    29A     -0.480834    30A     -0.476920
      31A     -0.467259    32A     -0.342336    33A     -0.303014

  @DF-RHF Final Energy:  -383.76556370562832

   => Energetics <=

    Nuclear Repulsion Energy =            417.8746678071169072
    One-Electron Energy =               -1348.7993639941403217
    Two-Electron Energy =                 547.1591324813950905
    Total Energy =                       -383.7655637056283240
  Basis Set: (AUG-CC-PVTZ AUX)
    Blend: AUG-CC-PVTZ-RI
    Molecular point group: c1

    Geometry (in Angstrom), charge = 0, multiplicity = 1:

       Center              X                  Y                   Z               Mass
    ------------   -----------------  -----------------  -----------------  -----------------
         O            3.140850487275    -0.101488058239     0.298646180342    15.994914619570
         C           -0.995426512725     0.021976941761    -0.355813819658    12.000000000000
         C           -2.492980512725     0.036864941761    -0.524238819658    12.000000000000
         C           -0.261197312725     1.229675541761    -0.227522819658    12.000000000000
         C           -0.294585512725    -1.187976058239    -0.245837819658    12.000000000000
         C           -3.222118512725    -0.014195058239     0.821848180342    12.000000000000
         C            1.108071487275     1.204195941761    -0.015533819658    12.000000000000
         C            1.081149487275    -1.215123058239    -0.032558819658    12.000000000000
         C            1.784105487275    -0.013545058239     0.088849180342    12.000000000000
         H           -2.789941512725     0.940390941761    -1.069846819658     1.007825032230
         H           -2.799440512725    -0.816202058239    -1.141214819658     1.007825032230
         H           -0.788764512725     2.167577941761    -0.313348819658     1.007825032230
         H           -0.833962512725    -2.129288058239    -0.343994819658     1.007825032230
         H           -2.953439512725    -0.922401058239     1.368911180342     1.007825032230
         H           -4.308228512725    -0.003061058239     0.685991180342     1.007825032230
         H           -2.943784512725     0.844045941761     1.440155180342     1.007825032230
         H            1.653551487275     2.143469941761     0.072140180342     1.007825032230
         H            1.626228487275    -2.151892058239     0.044875180342     1.007825032230
         H            3.499176487275     0.801323941761     0.360574180342     1.007825032230

  Basis Set: AUG-CC-PVTZ
    Blend: AUG-CC-PVTZ
  Basis Set: (AUG-CC-PVTZ AUX)
    Blend: AUG-CC-PVTZ-JKFIT
	 Reference Energy          =    -383.7655637056283240 [Eh]
	 Singles Energy            =      -0.0000000000000000 [Eh]
	 Same-Spin Energy          =      -0.4128327421579956 [Eh]
	 Opposite-Spin Energy      =      -1.3190867416126972 [Eh]
	 Correlation Energy        =      -1.7319194837706928 [Eh]
	 Total Energy              =    -385.4974831893990199 [Eh]

	 ================> DF-SCS-MP2 Energies <==================
	-----------------------------------------------------------
	 SCS Same-Spin Scale       =       0.3333333333333333 [-]
	 SCS Opposite-Spin Scale   =       1.2000000000000000 [-]
	 SCS Same-Spin Energy      =      -0.1376109140526652 [Eh]
	 SCS Opposite-Spin Energy  =      -1.5829040899352367 [Eh]
	 SCS Correlation Energy    =      -1.7205150039879018 [Eh]
	 SCS Total Energy          =    -385.4860787096162085 [Eh]
	-----------------------------------------------------------

  Dipole Moment: [D]
     X:    -0.4670      Y:     1.2845      Z:    -0.0046     Total:     1.3668

*** Psi4 exiting successfully. Buy a developer a beer!
