                               Psi4 1.4a3.dev225

  ==> Input File <==

--------------------------------------------------------------------------
#psi4
#
memory 32 gb

molecule  {
0 1
  O        3.2216350    -0.1065060     0.2904990
  C       -0.9146420     0.0169590    -0.3639610
  C       -2.4121960     0.0318470    -0.5323860
  C       -0.1648920     1.2501870    -0.2329581
  C       -0.2138010    -1.1929940    -0.2539850
  C       -3.1413340    -0.0192130     0.8137010
  C        1.1888560     1.1991780    -0.0236810
  C        1.1619340    -1.2201410    -0.0407060
  C        1.8648900    -0.0185630     0.0807020
  H       -2.7091570     0.9353730    -1.0779940
  H       -2.7186560    -0.8212200    -1.1493620
  H       -0.7079800     2.1625600    -0.3214960
  H       -0.7531780    -2.1343060    -0.3521420
  H       -2.8726550    -0.9274190     1.3607640
  H       -4.2274440    -0.0080790     0.6778440
  H       -2.8630000     0.8390280     1.4320080
  H        1.7343360     2.1384520     0.0639930
  H        1.7070130    -2.1569100     0.0367280
  H        3.5799610     0.7963060     0.3524270
units angstrom
no_reorient  #important for SAPT in psi4, default
symmetry c1  #important for SAPT in psi4, default
}

set PROPERTIES_ORIGIN ["COM"]
properties('MP2/aug-cc-pvtz', properties = ['dipole'])
--------------------------------------------------------------------------

    Molecular point group: c1
  Charge       = 0
  Multiplicity = 1
  Basis Set: AUG-CC-PVTZ
    Blend: AUG-CC-PVTZ
  Basis Set: (AUG-CC-PVTZ AUX)
    Blend: AUG-CC-PVTZ-JKFIT

    Orbital Energies [Eh]
    ---------------------

    Doubly Occupied:

       1A    -20.589565     2A    -11.299706     3A    -11.239851
       4A    -11.236861     5A    -11.235324     6A    -11.234278
       7A    -11.228071     8A    -11.227628     9A    -11.215432
      10A     -1.397827    11A     -1.147325    12A     -1.057019
      13A     -1.020590    14A     -0.971207    15A     -0.861973
      16A     -0.840787    17A     -0.790702    18A     -0.727806
      19A     -0.673193    20A     -0.647578    21A     -0.613383
      22A     -0.593649    23A     -0.591137    24A     -0.586165
      25A     -0.568231    26A     -0.556130    27A     -0.522641
      28A     -0.498993    29A     -0.481649    30A     -0.473643
      31A     -0.466769    32A     -0.344779    33A     -0.299912

  @DF-RHF Final Energy:  -383.76282319854141

   => Energetics <=

    Nuclear Repulsion Energy =            417.5462166146262462
    One-Electron Energy =               -1348.1384717564571929
    Two-Electron Energy =                 546.8294319432894781
    Total Energy =                       -383.7628231985414686
  Basis Set: (AUG-CC-PVTZ AUX)
    Blend: AUG-CC-PVTZ-RI
    Molecular point group: c1

    Geometry (in Angstrom), charge = 0, multiplicity = 1:

       Center              X                  Y                   Z               Mass
    ------------   -----------------  -----------------  -----------------  -----------------
         O            3.139324766204    -0.103997641734     0.298379595954    15.994914619570
         C           -0.996952233796     0.019467358266    -0.356080404046    12.000000000000
         C           -2.494506233796     0.034355358266    -0.524505404046    12.000000000000
         C           -0.247202233796     1.252695358266    -0.225077504046    12.000000000000
         C           -0.296111233796    -1.190485641734    -0.246104404046    12.000000000000
         C           -3.223644233796    -0.016704641734     0.821581595954    12.000000000000
         C            1.106545766204     1.201686358266    -0.015800404046    12.000000000000
         C            1.079623766204    -1.217632641734    -0.032825404046    12.000000000000
         C            1.782579766204    -0.016054641734     0.088582595954    12.000000000000
         H           -2.791467233796     0.937881358266    -1.070113404046     1.007825032230
         H           -2.800966233796    -0.818711641734    -1.141481404046     1.007825032230
         H           -0.790290233796     2.165068358266    -0.313615404046     1.007825032230
         H           -0.835488233796    -2.131797641734    -0.344261404046     1.007825032230
         H           -2.954965233796    -0.924910641734     1.368644595954     1.007825032230
         H           -4.309754233796    -0.005570641734     0.685724595954     1.007825032230
         H           -2.945310233796     0.841536358266     1.439888595954     1.007825032230
         H            1.652025766204     2.140960358266     0.071873595954     1.007825032230
         H            1.624702766204    -2.154401641734     0.044608595954     1.007825032230
         H            3.497650766204     0.798814358266     0.360307595954     1.007825032230

  Basis Set: AUG-CC-PVTZ
    Blend: AUG-CC-PVTZ
  Basis Set: (AUG-CC-PVTZ AUX)
    Blend: AUG-CC-PVTZ-JKFIT
	 Reference Energy          =    -383.7628231985414118 [Eh]
	 Singles Energy            =      -0.0000000000000000 [Eh]
	 Same-Spin Energy          =      -0.4128681093920747 [Eh]
	 Opposite-Spin Energy      =      -1.3193033233468658 [Eh]
	 Correlation Energy        =      -1.7321714327389406 [Eh]
	 Total Energy              =    -385.4949946312803490 [Eh]

	 ================> DF-SCS-MP2 Energies <==================
	-----------------------------------------------------------
	 SCS Same-Spin Scale       =       0.3333333333333333 [-]
	 SCS Opposite-Spin Scale   =       1.2000000000000000 [-]
	 SCS Same-Spin Energy      =      -0.1376227031306916 [Eh]
	 SCS Opposite-Spin Energy  =      -1.5831639880162389 [Eh]
	 SCS Correlation Energy    =      -1.7207866911469305 [Eh]
	 SCS Total Energy          =    -385.4836098896883527 [Eh]
	-----------------------------------------------------------

  Dipole Moment: [D]
     X:    -0.4727      Y:     1.2995      Z:    -0.0056     Total:     1.3828

*** Psi4 exiting successfully. Buy a developer a beer!
