                               Psi4 1.3.2 release

  ==> Input File <==

--------------------------------------------------------------------------
#psi4
#
memory 32 gb

molecule  {
0 1
  O       -3.1410519     0.0825096     0.3169406
  C        0.9902420    -0.0039870    -0.3612050
  C        2.4872910    -0.0052090    -0.5397260
  C        0.2806140    -1.2015640    -0.2442060
  C        0.2798770     1.1950560    -0.2368630
  C        3.2312830    -0.0061060     0.7967240
  C       -1.0856755    -1.2003888    -0.0173727
  C       -1.0950530     1.2066380    -0.0091780
  C       -1.7865290     0.0017960     0.1015840
  H        2.7838010    -0.8823900    -1.1265120
  H        2.7835740     0.8731460    -1.1246690
  H        0.8095070    -2.1483250    -0.3363770
  H        0.8092330     2.1418130    -0.3228610
  H        2.9650580     0.8755680     1.3857970
  H        4.3169070    -0.0053560     0.6533480
  H        2.9660240    -0.8892340     1.3840690
  H       -1.6288030    -2.1532140     0.0657430
  H       -1.6431320     2.1402150     0.0795740
  H       -3.4941530    -0.8345020     0.3676020
units angstrom
no_reorient  #important for SAPT in psi4, default
symmetry c1  #important for SAPT in psi4, default
}

set PROPERTIES_ORIGIN ["COM"]
properties('MP2/aug-cc-pvtz', properties = ['dipole'])
--------------------------------------------------------------------------

    Molecular point group: c1
  Charge       = 0
  Multiplicity = 1
  Basis Set: AUG-CC-PVTZ
    Blend: AUG-CC-PVTZ
  Basis Set: (AUG-CC-PVTZ AUX)
    Blend: AUG-CC-PVTZ-JKFIT

    Orbital Energies [Eh]
    ---------------------

    Doubly Occupied:

       1A    -20.591345     2A    -11.298945     3A    -11.237124
       4A    -11.235759     5A    -11.234885     6A    -11.230783
       7A    -11.227634     8A    -11.226948     9A    -11.215204
      10A     -1.397025    11A     -1.151944    12A     -1.057879
      13A     -1.017566    14A     -0.975256    15A     -0.861391
      16A     -0.842096    17A     -0.790796    18A     -0.726628
      19A     -0.673199    20A     -0.645214    21A     -0.611629
      22A     -0.596082    23A     -0.587800    24A     -0.585409
      25A     -0.568998    26A     -0.556975    27A     -0.523491
      28A     -0.497317    29A     -0.480030    30A     -0.477371
      31A     -0.468938    32A     -0.341476    33A     -0.305407

  @DF-RHF Final Energy:  -383.76556383682117

   => Energetics <=

    Nuclear Repulsion Energy =            418.4566683127071087
    One-Electron Energy =               -1349.9673791070129028
    Two-Electron Energy =                 547.7451469574846215
    Total Energy =                       -383.7655638368212294
  Basis Set: (AUG-CC-PVTZ AUX)
    Blend: AUG-CC-PVTZ-RI
    Molecular point group: c1

    Geometry (in Angstrom), charge = 0, multiplicity = 1:

       Center              X                  Y                   Z               Mass
    ------------   -----------------  -----------------  -----------------  -----------------
         O           -3.142159683295     0.080335710711     0.317102259759    15.994914619570
         C            0.989134216705    -0.006160889289    -0.361043340241    12.000000000000
         C            2.486183216705    -0.007382889289    -0.539564340241    12.000000000000
         C            0.279506216705    -1.203737889289    -0.244044340241    12.000000000000
         C            0.278769216705     1.192882110711    -0.236701340241    12.000000000000
         C            3.230175216705    -0.008279889289     0.796885659759    12.000000000000
         C           -1.086783283295    -1.202562689289    -0.017211040241    12.000000000000
         C           -1.096160783295     1.204464110711    -0.009016340241    12.000000000000
         C           -1.787636783295    -0.000377889289     0.101745659759    12.000000000000
         H            2.782693216705    -0.884563889289    -1.126350340241     1.007825032230
         H            2.782466216705     0.870972110711    -1.124507340241     1.007825032230
         H            0.808399216705    -2.150498889289    -0.336215340241     1.007825032230
         H            0.808125216705     2.139639110711    -0.322699340241     1.007825032230
         H            2.963950216705     0.873394110711     1.385958659759     1.007825032230
         H            4.315799216705    -0.007529889289     0.653509659759     1.007825032230
         H            2.964916216705    -0.891407889289     1.384230659759     1.007825032230
         H           -1.629910783295    -2.155387889289     0.065904659759     1.007825032230
         H           -1.644239783295     2.138041110711     0.079735659759     1.007825032230
         H           -3.495260783295    -0.836675889289     0.367763659759     1.007825032230

  Basis Set: AUG-CC-PVTZ
    Blend: AUG-CC-PVTZ
  Basis Set: (AUG-CC-PVTZ AUX)
    Blend: AUG-CC-PVTZ-JKFIT
	 Reference Energy          =    -383.7655638368211726 [Eh]
	 Singles Energy            =      -0.0000000000000000 [Eh]
	 Same-Spin Energy          =      -0.4129745986355935 [Eh]
	 Opposite-Spin Energy      =      -1.3191719331482616 [Eh]
	 Correlation Energy        =      -1.7321465317838551 [Eh]
	 Total Energy              =    -385.4977103686050555 [Eh]

	 ================> DF-SCS-MP2 Energies <==================
	-----------------------------------------------------------
	 SCS Same-Spin Scale       =       0.3333333333333333 [-]
	 SCS Opposite-Spin Scale   =       1.2000000000000000 [-]
	 SCS Same-Spin Energy      =      -0.1376581995451978 [Eh]
	 SCS Opposite-Spin Energy  =      -1.5830063197779138 [Eh]
	 SCS Correlation Energy    =      -1.7206645193231116 [Eh]
	 SCS Total Energy          =    -385.4862283561442950 [Eh]
	-----------------------------------------------------------

  Dipole Moment: [D]
     X:     0.4514      Y:    -1.2841      Z:    -0.0170     Total:     1.3612

*** Psi4 exiting successfully. Buy a developer a beer!
