                               Psi4 1.3.2 release

  ==> Input File <==

--------------------------------------------------------------------------
#psi4
#
memory 32 gb

molecule  {
0 1
  O       -3.1417080     0.0705380     0.3169670
  C        0.9902420    -0.0039870    -0.3612050
  C        2.4872910    -0.0052090    -0.5397260
  C        0.2298154    -1.2872924    -0.2358306
  C        0.2798770     1.1950560    -0.2368630
  C        3.2312830    -0.0061060     0.7967240
  C       -1.0960700    -1.2065460    -0.0157640
  C       -1.0950530     1.2066380    -0.0091780
  C       -1.7865290     0.0017960     0.1015840
  H        2.7838010    -0.8823900    -1.1265120
  H        2.7835740     0.8731460    -1.1246690
  H        0.8095070    -2.1483250    -0.3363770
  H        0.8092330     2.1418130    -0.3228610
  H        2.9650580     0.8755680     1.3857970
  H        4.3169070    -0.0053560     0.6533480
  H        2.9660240    -0.8892340     1.3840690
  H       -1.6288030    -2.1532140     0.0657430
  H       -1.6431320     2.1402150     0.0795740
  H       -3.4941530    -0.8345020     0.3676020
units angstrom
no_reorient  #important for SAPT in psi4, default
symmetry c1  #important for SAPT in psi4, default
}

set PROPERTIES_ORIGIN ["COM"]
properties('MP2/aug-cc-pvtz', properties = ['dipole'])
--------------------------------------------------------------------------

    Molecular point group: c1
  Charge       = 0
  Multiplicity = 1
  Basis Set: AUG-CC-PVTZ
    Blend: AUG-CC-PVTZ
  Basis Set: (AUG-CC-PVTZ AUX)
    Blend: AUG-CC-PVTZ-JKFIT

    Orbital Energies [Eh]
    ---------------------

    Doubly Occupied:

       1A    -20.589692     2A    -11.299143     3A    -11.240418
       4A    -11.239632     5A    -11.233571     6A    -11.233349
       7A    -11.227546     8A    -11.226878     9A    -11.215195
      10A     -1.398616    11A     -1.145817    12A     -1.057050
      13A     -1.024223    14A     -0.969172    15A     -0.862882
      16A     -0.840433    17A     -0.790061    18A     -0.728959
      19A     -0.677289    20A     -0.647683    21A     -0.614564
      22A     -0.594210    23A     -0.591677    24A     -0.586602
      25A     -0.568477    26A     -0.556248    27A     -0.522952
      28A     -0.499687    29A     -0.481958    30A     -0.466773
      31A     -0.465997    32A     -0.348890    33A     -0.295946

  @DF-RHF Final Energy:  -383.75480794046211

   => Energetics <=

    Nuclear Repulsion Energy =            417.2389001584539301
    One-Electron Energy =               -1347.5042289826496926
    Two-Electron Energy =                 546.5105208837336477
    Total Energy =                       -383.7548079404621149
  Basis Set: (AUG-CC-PVTZ AUX)
    Blend: AUG-CC-PVTZ-RI
    Molecular point group: c1

    Geometry (in Angstrom), charge = 0, multiplicity = 1:

       Center              X                  Y                   Z               Mass
    ------------   -----------------  -----------------  -----------------  -----------------
         O           -3.136714430358     0.078965227840     0.316143746606    15.994914619570
         C            0.995235569642     0.004440227840    -0.362028253394    12.000000000000
         C            2.492284569642     0.003218227840    -0.540549253394    12.000000000000
         C            0.234808969642    -1.278865172160    -0.236653853394    12.000000000000
         C            0.284870569642     1.203483227840    -0.237686253394    12.000000000000
         C            3.236276569642     0.002321227840     0.795900746606    12.000000000000
         C           -1.091076430358    -1.198118772160    -0.016587253394    12.000000000000
         C           -1.090059430358     1.215065227840    -0.010001253394    12.000000000000
         C           -1.781535430358     0.010223227840     0.100760746606    12.000000000000
         H            2.788794569642    -0.873962772160    -1.127335253394     1.007825032230
         H            2.788567569642     0.881573227840    -1.125492253394     1.007825032230
         H            0.814500569642    -2.139897772160    -0.337200253394     1.007825032230
         H            0.814226569642     2.150240227840    -0.323684253394     1.007825032230
         H            2.970051569642     0.883995227840     1.384973746606     1.007825032230
         H            4.321900569642     0.003071227840     0.652524746606     1.007825032230
         H            2.971017569642    -0.880806772160     1.383245746606     1.007825032230
         H           -1.623809430358    -2.144786772160     0.064919746606     1.007825032230
         H           -1.638138430358     2.148642227840     0.078750746606     1.007825032230
         H           -3.489159430358    -0.826074772160     0.366778746606     1.007825032230

  Basis Set: AUG-CC-PVTZ
    Blend: AUG-CC-PVTZ
  Basis Set: (AUG-CC-PVTZ AUX)
    Blend: AUG-CC-PVTZ-JKFIT
	 Reference Energy          =    -383.7548079404621149 [Eh]
	 Singles Energy            =      -0.0000000000000000 [Eh]
	 Same-Spin Energy          =      -0.4127792923050722 [Eh]
	 Opposite-Spin Energy      =      -1.3195722717070988 [Eh]
	 Correlation Energy        =      -1.7323515640121709 [Eh]
	 Total Energy              =    -385.4871595044742776 [Eh]

	 ================> DF-SCS-MP2 Energies <==================
	-----------------------------------------------------------
	 SCS Same-Spin Scale       =       0.3333333333333333 [-]
	 SCS Opposite-Spin Scale   =       1.2000000000000000 [-]
	 SCS Same-Spin Energy      =      -0.1375930974350240 [Eh]
	 SCS Opposite-Spin Energy  =      -1.5834867260485186 [Eh]
	 SCS Correlation Energy    =      -1.7210798234835427 [Eh]
	 SCS Total Energy          =    -385.4758877639456500 [Eh]
	-----------------------------------------------------------

  Dipole Moment: [D]
     X:     0.4824      Y:    -1.3203      Z:    -0.0220     Total:     1.4059

*** Psi4 exiting successfully. Buy a developer a beer!
