                               Psi4 1.3.2 release

  ==> Input File <==

--------------------------------------------------------------------------
#psi4
#
memory 32 gb

molecule  {
0 1
  O       -3.1417080     0.0705380     0.3169670
  C        0.9902420    -0.0039870    -0.3612050
  C        2.4872910    -0.0052090    -0.5397260
  C        0.3222380    -1.2259341    -0.2513536
  C        0.3215769     1.2194935    -0.2438766
  C        3.2312830    -0.0061060     0.7967240
  C       -1.0960700    -1.2065460    -0.0157640
  C       -1.0950530     1.2066380    -0.0091780
  C       -1.7865290     0.0017960     0.1015840
  H        2.7838010    -0.8823900    -1.1265120
  H        2.7835740     0.8731460    -1.1246690
  H        0.8095070    -2.1483250    -0.3363770
  H        0.8092330     2.1418130    -0.3228610
  H        2.9650580     0.8755680     1.3857970
  H        4.3169070    -0.0053560     0.6533480
  H        2.9660240    -0.8892340     1.3840690
  H       -1.6288030    -2.1532140     0.0657430
  H       -1.6431320     2.1402150     0.0795740
  H       -3.4941530    -0.8345020     0.3676020
units angstrom
no_reorient  #important for SAPT in psi4, default
symmetry c1  #important for SAPT in psi4, default
}

set PROPERTIES_ORIGIN ["COM"]
properties('MP2/aug-cc-pvtz', properties = ['dipole'])
--------------------------------------------------------------------------

    Molecular point group: c1
  Charge       = 0
  Multiplicity = 1
  Basis Set: AUG-CC-PVTZ
    Blend: AUG-CC-PVTZ
  Basis Set: (AUG-CC-PVTZ AUX)
    Blend: AUG-CC-PVTZ-JKFIT

    Orbital Energies [Eh]
    ---------------------

    Doubly Occupied:

       1A    -20.588854     2A    -11.298979     3A    -11.240571
       4A    -11.239299     5A    -11.238006     6A    -11.234056
       7A    -11.233314     8A    -11.224922     9A    -11.214766
      10A     -1.398074    11A     -1.144926    12A     -1.056725
      13A     -1.010162    14A     -0.975954    15A     -0.860684
      16A     -0.849205    17A     -0.787348    18A     -0.732126
      19A     -0.668890    20A     -0.649118    21A     -0.620231
      22A     -0.597090    23A     -0.592120    24A     -0.585943
      25A     -0.565240    26A     -0.552553    27A     -0.521491
      28A     -0.508034    29A     -0.480465    30A     -0.471798
      31A     -0.462950    32A     -0.332044    33A     -0.308829

  @DF-RHF Final Energy:  -383.75876059805017

   => Energetics <=

    Nuclear Repulsion Energy =            417.1325807195624975
    One-Electron Energy =               -1347.2931553768080448
    Two-Electron Energy =                 546.4018140591954307
    Total Energy =                       -383.7587605980501166
  Basis Set: (AUG-CC-PVTZ AUX)
    Blend: AUG-CC-PVTZ-RI
    Molecular point group: c1

    Geometry (in Angstrom), charge = 0, multiplicity = 1:

       Center              X                  Y                   Z               Mass
    ------------   -----------------  -----------------  -----------------  -----------------
         O           -3.149898900514     0.070531354593     0.318359132765    15.994914619570
         C            0.982051099486    -0.003993645407    -0.359812867235    12.000000000000
         C            2.479100099486    -0.005215645407    -0.538333867235    12.000000000000
         C            0.314047099486    -1.225940745407    -0.249961467235    12.000000000000
         C            0.313385999486     1.219486854593    -0.242484467235    12.000000000000
         C            3.223092099486    -0.006112645407     0.798116132765    12.000000000000
         C           -1.104260900514    -1.206552645407    -0.014371867235    12.000000000000
         C           -1.103243900514     1.206631354593    -0.007785867235    12.000000000000
         C           -1.794719900514     0.001789354593     0.102976132765    12.000000000000
         H            2.775610099486    -0.882396645407    -1.125119867235     1.007825032230
         H            2.775383099486     0.873139354593    -1.123276867235     1.007825032230
         H            0.801316099486    -2.148331645407    -0.334984867235     1.007825032230
         H            0.801042099486     2.141806354593    -0.321468867235     1.007825032230
         H            2.956867099486     0.875561354593     1.387189132765     1.007825032230
         H            4.308716099486    -0.005362645407     0.654740132765     1.007825032230
         H            2.957833099486    -0.889240645407     1.385461132765     1.007825032230
         H           -1.636993900514    -2.153220645407     0.067135132765     1.007825032230
         H           -1.651322900514     2.140208354593     0.080966132765     1.007825032230
         H           -3.502343900514    -0.834508645407     0.368994132765     1.007825032230

  Basis Set: AUG-CC-PVTZ
    Blend: AUG-CC-PVTZ
  Basis Set: (AUG-CC-PVTZ AUX)
    Blend: AUG-CC-PVTZ-JKFIT
	 Reference Energy          =    -383.7587605980501735 [Eh]
	 Singles Energy            =      -0.0000000000000000 [Eh]
	 Same-Spin Energy          =      -0.4129358333678155 [Eh]
	 Opposite-Spin Energy      =      -1.3198006626601622 [Eh]
	 Correlation Energy        =      -1.7327364960279776 [Eh]
	 Total Energy              =    -385.4914970940781700 [Eh]

	 ================> DF-SCS-MP2 Energies <==================
	-----------------------------------------------------------
	 SCS Same-Spin Scale       =       0.3333333333333333 [-]
	 SCS Opposite-Spin Scale   =       1.2000000000000000 [-]
	 SCS Same-Spin Energy      =      -0.1376452777892718 [Eh]
	 SCS Opposite-Spin Energy  =      -1.5837607951921946 [Eh]
	 SCS Correlation Energy    =      -1.7214060729814664 [Eh]
	 SCS Total Energy          =    -385.4801666710316681 [Eh]
	-----------------------------------------------------------

  Dipole Moment: [D]
     X:     0.4756      Y:    -1.2667      Z:    -0.0274     Total:     1.3533

*** Psi4 exiting successfully. Buy a developer a beer!
