                               Psi4 1.3.2 release

  ==> Input File <==

--------------------------------------------------------------------------
#psi4
#
memory 32 gb

molecule  {
0 1
  O       -3.1362254     0.1422571     0.3165627
  C        0.9902420    -0.0039870    -0.3612050
  C        2.4872910    -0.0052090    -0.5397260
  C        0.2806140    -1.2015640    -0.2442060
  C        0.2798770     1.1950560    -0.2368630
  C        3.2312830    -0.0061060     0.7967240
  C       -1.0345192    -1.1682390    -0.0252777
  C       -1.0950530     1.2066380    -0.0091780
  C       -1.7865290     0.0017960     0.1015840
  H        2.7838010    -0.8823900    -1.1265120
  H        2.7835740     0.8731460    -1.1246690
  H        0.8095070    -2.1483250    -0.3363770
  H        0.8092330     2.1418130    -0.3228610
  H        2.9650580     0.8755680     1.3857970
  H        4.3169070    -0.0053560     0.6533480
  H        2.9660240    -0.8892340     1.3840690
  H       -1.6288030    -2.1532140     0.0657430
  H       -1.6431320     2.1402150     0.0795740
  H       -3.4941530    -0.8345020     0.3676020
units angstrom
no_reorient  #important for SAPT in psi4, default
symmetry c1  #important for SAPT in psi4, default
}

set PROPERTIES_ORIGIN ["COM"]
properties('MP2/aug-cc-pvtz', properties = ['dipole'])
--------------------------------------------------------------------------

    Molecular point group: c1
  Charge       = 0
  Multiplicity = 1
  Basis Set: AUG-CC-PVTZ
    Blend: AUG-CC-PVTZ
  Basis Set: (AUG-CC-PVTZ AUX)
    Blend: AUG-CC-PVTZ-JKFIT

    Orbital Energies [Eh]
    ---------------------

    Doubly Occupied:

       1A    -20.600569     2A    -11.297539     3A    -11.237001
       4A    -11.233171     5A    -11.231399     6A    -11.230001
       7A    -11.226494     8A    -11.225302     9A    -11.215102
      10A     -1.390378    11A     -1.157089    12A     -1.057585
      13A     -1.022135    14A     -0.973535    15A     -0.860823
      16A     -0.838713    17A     -0.788838    18A     -0.717514
      19A     -0.678246    20A     -0.638774    21A     -0.606047
      22A     -0.596500    23A     -0.588936    24A     -0.581127
      25A     -0.566443    26A     -0.563813    27A     -0.524291
      28A     -0.493937    29A     -0.480465    30A     -0.473223
      31A     -0.470762    32A     -0.346525    33A     -0.303379

  @DF-RHF Final Energy:  -383.74901841890926

   => Energetics <=

    Nuclear Repulsion Energy =            419.2011978617599084
    One-Electron Energy =               -1351.4691167814103210
    Two-Electron Energy =                 548.5189005007410969
    Total Energy =                       -383.7490184189092588
  Basis Set: (AUG-CC-PVTZ AUX)
    Blend: AUG-CC-PVTZ-RI
    Molecular point group: c1

    Geometry (in Angstrom), charge = 0, multiplicity = 1:

       Center              X                  Y                   Z               Mass
    ------------   -----------------  -----------------  -----------------  -----------------
         O           -3.142994337864     0.129094278280     0.317550949930    15.994914619570
         C            0.983473062136    -0.017149821720    -0.360216750070    12.000000000000
         C            2.480522062136    -0.018371821720    -0.538737750070    12.000000000000
         C            0.273845062136    -1.214726821720    -0.243217750070    12.000000000000
         C            0.273108062136     1.181893178280    -0.235874750070    12.000000000000
         C            3.224514062136    -0.019268821720     0.797712249930    12.000000000000
         C           -1.041288137864    -1.181401821720    -0.024289450070    12.000000000000
         C           -1.101821937864     1.193475178280    -0.008189750070    12.000000000000
         C           -1.793297937864    -0.011366821720     0.102572249930    12.000000000000
         H            2.777032062136    -0.895552821720    -1.125523750070     1.007825032230
         H            2.776805062136     0.859983178280    -1.123680750070     1.007825032230
         H            0.802738062136    -2.161487821720    -0.335388750070     1.007825032230
         H            0.802464062136     2.128650178280    -0.321872750070     1.007825032230
         H            2.958289062136     0.862405178280     1.386785249930     1.007825032230
         H            4.310138062136    -0.018518821720     0.654336249930     1.007825032230
         H            2.959255062136    -0.902396821720     1.385057249930     1.007825032230
         H           -1.635571937864    -2.166376821720     0.066731249930     1.007825032230
         H           -1.649900937864     2.127052178280     0.080562249930     1.007825032230
         H           -3.500921937864    -0.847664821720     0.368590249930     1.007825032230

  Basis Set: AUG-CC-PVTZ
    Blend: AUG-CC-PVTZ
  Basis Set: (AUG-CC-PVTZ AUX)
    Blend: AUG-CC-PVTZ-JKFIT
	 Reference Energy          =    -383.7490184189092588 [Eh]
	 Singles Energy            =      -0.0000000000000000 [Eh]
	 Same-Spin Energy          =      -0.4142857587064143 [Eh]
	 Opposite-Spin Energy      =      -1.3219246921233694 [Eh]
	 Correlation Energy        =      -1.7362104508297835 [Eh]
	 Total Energy              =    -385.4852288697390463 [Eh]

	 ================> DF-SCS-MP2 Energies <==================
	-----------------------------------------------------------
	 SCS Same-Spin Scale       =       0.3333333333333333 [-]
	 SCS Opposite-Spin Scale   =       1.2000000000000000 [-]
	 SCS Same-Spin Energy      =      -0.1380952529021381 [Eh]
	 SCS Opposite-Spin Energy  =      -1.5863096305480433 [Eh]
	 SCS Correlation Energy    =      -1.7244048834501813 [Eh]
	 SCS Total Energy          =    -385.4734233023594356 [Eh]
	-----------------------------------------------------------

  Dipole Moment: [D]
     X:     0.4023      Y:    -1.3245      Z:    -0.0120     Total:     1.3843

*** Psi4 exiting successfully. Buy a developer a beer!
