                               Psi4 1.3.2 release

  ==> Input File <==

--------------------------------------------------------------------------
#psi4
#
memory 32 gb

molecule  {
0 1
  O       -3.1417080     0.0705380     0.3169670
  C        0.9694924    -0.0163901    -0.3577446
  C        2.4872910    -0.0052090    -0.5397260
  C        0.2806140    -1.2015640    -0.2442060
  C        0.2798770     1.1950560    -0.2368630
  C        3.2312830    -0.0061060     0.7967240
  C       -1.0960700    -1.2065460    -0.0157640
  C       -1.0950530     1.2066380    -0.0091780
  C       -1.7865290     0.0017960     0.1015840
  H        2.7838010    -0.8823900    -1.1265120
  H        2.7835740     0.8731460    -1.1246690
  H        0.8095070    -2.1483250    -0.3363770
  H        0.7928655     2.1510282    -0.3200627
  H        2.9650580     0.8755680     1.3857970
  H        4.3169070    -0.0053560     0.6533480
  H        2.9660240    -0.8892340     1.3840690
  H       -1.6288030    -2.1532140     0.0657430
  H       -1.6431320     2.1402150     0.0795740
  H       -3.4941530    -0.8345020     0.3676020
units angstrom
no_reorient  #important for SAPT in psi4, default
symmetry c1  #important for SAPT in psi4, default
}

set PROPERTIES_ORIGIN ["COM"]
properties('MP2/aug-cc-pvtz', properties = ['dipole'])
--------------------------------------------------------------------------

    Molecular point group: c1
  Charge       = 0
  Multiplicity = 1
  Basis Set: AUG-CC-PVTZ
    Blend: AUG-CC-PVTZ
  Basis Set: (AUG-CC-PVTZ AUX)
    Blend: AUG-CC-PVTZ-JKFIT

    Orbital Energies [Eh]
    ---------------------

    Doubly Occupied:

       1A    -20.589130     2A    -11.298999     3A    -11.236535
       4A    -11.235830     5A    -11.234125     6A    -11.229790
       7A    -11.228239     8A    -11.227531     9A    -11.214794
      10A     -1.398336    11A     -1.152839    12A     -1.055235
      13A     -1.017893    14A     -0.976488    15A     -0.859694
      16A     -0.843731    17A     -0.791642    18A     -0.728702
      19A     -0.672832    20A     -0.645368    21A     -0.612556
      22A     -0.596749    23A     -0.588652    24A     -0.586072
      25A     -0.568076    26A     -0.555875    27A     -0.522156
      28A     -0.498686    29A     -0.480862    30A     -0.473399
      31A     -0.469791    32A     -0.340721    33A     -0.307504

  @DF-RHF Final Energy:  -383.76639560796468

   => Energetics <=

    Nuclear Repulsion Energy =            418.4731454231605312
    One-Electron Energy =               -1350.0014230395702270
    Two-Electron Energy =                 547.7618820084450135
    Total Energy =                       -383.7663956079646823
  Basis Set: (AUG-CC-PVTZ AUX)
    Blend: AUG-CC-PVTZ-RI
    Molecular point group: c1

    Geometry (in Angstrom), charge = 0, multiplicity = 1:

       Center              X                  Y                   Z               Mass
    ------------   -----------------  -----------------  -----------------  -----------------
         O           -3.139533169627     0.071681146121     0.316603796964    15.994914619570
         C            0.971667230373    -0.015246953879    -0.358107803036    12.000000000000
         C            2.489465830373    -0.004065853879    -0.540089203036    12.000000000000
         C            0.282788830373    -1.200420853879    -0.244569203036    12.000000000000
         C            0.282051830373     1.196199146121    -0.237226203036    12.000000000000
         C            3.233457830373    -0.004962853879     0.796360796964    12.000000000000
         C           -1.093895169627    -1.205402853879    -0.016127203036    12.000000000000
         C           -1.092878169627     1.207781146121    -0.009541203036    12.000000000000
         C           -1.784354169627     0.002939146121     0.101220796964    12.000000000000
         H            2.785975830373    -0.881246853879    -1.126875203036     1.007825032230
         H            2.785748830373     0.874289146121    -1.125032203036     1.007825032230
         H            0.811681830373    -2.147181853879    -0.336740203036     1.007825032230
         H            0.795040330373     2.152171346121    -0.320425903036     1.007825032230
         H            2.967232830373     0.876711146121     1.385433796964     1.007825032230
         H            4.319081830373    -0.004212853879     0.652984796964     1.007825032230
         H            2.968198830373    -0.888090853879     1.383705796964     1.007825032230
         H           -1.626628169627    -2.152070853879     0.065379796964     1.007825032230
         H           -1.640957169627     2.141358146121     0.079210796964     1.007825032230
         H           -3.491978169627    -0.833358853879     0.367238796964     1.007825032230

  Basis Set: AUG-CC-PVTZ
    Blend: AUG-CC-PVTZ
  Basis Set: (AUG-CC-PVTZ AUX)
    Blend: AUG-CC-PVTZ-JKFIT
	 Reference Energy          =    -383.7663956079646823 [Eh]
	 Singles Energy            =      -0.0000000000000000 [Eh]
	 Same-Spin Energy          =      -0.4125498458618527 [Eh]
	 Opposite-Spin Energy      =      -1.3184595395885479 [Eh]
	 Correlation Energy        =      -1.7310093854504005 [Eh]
	 Total Energy              =    -385.4974049934151026 [Eh]

	 ================> DF-SCS-MP2 Energies <==================
	-----------------------------------------------------------
	 SCS Same-Spin Scale       =       0.3333333333333333 [-]
	 SCS Opposite-Spin Scale   =       1.2000000000000000 [-]
	 SCS Same-Spin Energy      =      -0.1375166152872842 [Eh]
	 SCS Opposite-Spin Energy  =      -1.5821514475062575 [Eh]
	 SCS Correlation Energy    =      -1.7196680627935417 [Eh]
	 SCS Total Energy          =    -385.4860636707581989 [Eh]
	-----------------------------------------------------------

  Dipole Moment: [D]
     X:     0.4408      Y:    -1.2570      Z:    -0.0194     Total:     1.3321

*** Psi4 exiting successfully. Buy a developer a beer!
