                               Psi4 1.3.2 release

  ==> Input File <==

--------------------------------------------------------------------------
#psi4
#
memory 32 gb

molecule  {
0 1
  O       -3.1417080     0.0705380     0.3169670
  C        0.9944897     0.0406424    -0.3336459
  C        2.4872910    -0.0052090    -0.5397260
  C        0.2806140    -1.2015640    -0.2442060
  C        0.2798770     1.1950560    -0.2368630
  C        3.2312830    -0.0061060     0.7967240
  C       -1.0960700    -1.2065460    -0.0157640
  C       -1.0950530     1.2066380    -0.0091780
  C       -1.7865290     0.0017960     0.1015840
  H        2.8202523    -0.8710914    -1.1237354
  H        2.7835740     0.8731460    -1.1246690
  H        0.8095070    -2.1483250    -0.3363770
  H        0.8092330     2.1418130    -0.3228610
  H        2.9650580     0.8755680     1.3857970
  H        4.3169070    -0.0053560     0.6533480
  H        2.9660240    -0.8892340     1.3840690
  H       -1.6288030    -2.1532140     0.0657430
  H       -1.6431320     2.1402150     0.0795740
  H       -3.4941530    -0.8345020     0.3676020
units angstrom
no_reorient  #important for SAPT in psi4, default
symmetry c1  #important for SAPT in psi4, default
}

set PROPERTIES_ORIGIN ["COM"]
properties('MP2/aug-cc-pvtz', properties = ['dipole'])
--------------------------------------------------------------------------

    Molecular point group: c1
  Charge       = 0
  Multiplicity = 1
  Basis Set: AUG-CC-PVTZ
    Blend: AUG-CC-PVTZ
  Basis Set: (AUG-CC-PVTZ AUX)
    Blend: AUG-CC-PVTZ-JKFIT

    Orbital Energies [Eh]
    ---------------------

    Doubly Occupied:

       1A    -20.589340     2A    -11.299083     3A    -11.242776
       4A    -11.236062     5A    -11.232211     6A    -11.230784
       7A    -11.227172     8A    -11.226933     9A    -11.214580
      10A     -1.398490    11A     -1.151424    12A     -1.058335
      13A     -1.017037    14A     -0.976016    15A     -0.860533
      16A     -0.841795    17A     -0.793249    18A     -0.728605
      19A     -0.670645    20A     -0.648681    21A     -0.614132
      22A     -0.593856    23A     -0.588421    24A     -0.586485
      25A     -0.571250    26A     -0.554238    27A     -0.522145
      28A     -0.497260    29A     -0.486417    30A     -0.471784
      31A     -0.467438    32A     -0.341838    33A     -0.304958

  @DF-RHF Final Energy:  -383.76366627305993

   => Energetics <=

    Nuclear Repulsion Energy =            418.3520870985377655
    One-Electron Energy =               -1349.7435638658314474
    Two-Electron Energy =                 547.6278104942336995
    Total Energy =                       -383.7636662730599255
  Basis Set: (AUG-CC-PVTZ AUX)
    Blend: AUG-CC-PVTZ-RI
    Molecular point group: c1

    Geometry (in Angstrom), charge = 0, multiplicity = 1:

       Center              X                  Y                   Z               Mass
    ------------   -----------------  -----------------  -----------------  -----------------
         O           -3.142426514033     0.066057553884     0.314235032868    15.994914619570
         C            0.993771185967     0.036161953884    -0.336377867132    12.000000000000
         C            2.486572485967    -0.009689446116    -0.542457967132    12.000000000000
         C            0.279895485967    -1.206044446116    -0.246937967132    12.000000000000
         C            0.279158485967     1.190575553884    -0.239594967132    12.000000000000
         C            3.230564485967    -0.010586446116     0.793992032868    12.000000000000
         C           -1.096788514033    -1.211026446116    -0.018495967132    12.000000000000
         C           -1.095771514033     1.202157553884    -0.011909967132    12.000000000000
         C           -1.787247514033    -0.002684446116     0.098852032868    12.000000000000
         H            2.819533785967    -0.875571846116    -1.126467367132     1.007825032230
         H            2.782855485967     0.868665553884    -1.127400967132     1.007825032230
         H            0.808788485967    -2.152805446116    -0.339108967132     1.007825032230
         H            0.808514485967     2.137332553884    -0.325592967132     1.007825032230
         H            2.964339485967     0.871087553884     1.383065032868     1.007825032230
         H            4.316188485967    -0.009836446116     0.650616032868     1.007825032230
         H            2.965305485967    -0.893714446116     1.381337032868     1.007825032230
         H           -1.629521514033    -2.157694446116     0.063011032868     1.007825032230
         H           -1.643850514033     2.135734553884     0.076842032868     1.007825032230
         H           -3.494871514033    -0.838982446116     0.364870032868     1.007825032230

  Basis Set: AUG-CC-PVTZ
    Blend: AUG-CC-PVTZ
  Basis Set: (AUG-CC-PVTZ AUX)
    Blend: AUG-CC-PVTZ-JKFIT
	 Reference Energy          =    -383.7636662730599255 [Eh]
	 Singles Energy            =      -0.0000000000000000 [Eh]
	 Same-Spin Energy          =      -0.4127592113537039 [Eh]
	 Opposite-Spin Energy      =      -1.3189238692919689 [Eh]
	 Correlation Energy        =      -1.7316830806456729 [Eh]
	 Total Energy              =    -385.4953493537055920 [Eh]

	 ================> DF-SCS-MP2 Energies <==================
	-----------------------------------------------------------
	 SCS Same-Spin Scale       =       0.3333333333333333 [-]
	 SCS Opposite-Spin Scale   =       1.2000000000000000 [-]
	 SCS Same-Spin Energy      =      -0.1375864037845680 [Eh]
	 SCS Opposite-Spin Energy  =      -1.5827086431503627 [Eh]
	 SCS Correlation Energy    =      -1.7202950469349307 [Eh]
	 SCS Total Energy          =    -385.4839613199948758 [Eh]
	-----------------------------------------------------------

  Dipole Moment: [D]
     X:     0.4703      Y:    -1.3121      Z:    -0.0407     Total:     1.3944

*** Psi4 exiting successfully. Buy a developer a beer!
