                               Psi4 1.3.2 release

  ==> Input File <==

--------------------------------------------------------------------------
#psi4
#
memory 32 gb

molecule  {
0 1
  O       -3.1417080     0.0705380     0.3169670
  C        0.9902420    -0.0039870    -0.3612050
  C        2.4872910    -0.0052090    -0.5397260
  C        0.2806140    -1.2015640    -0.2442060
  C        0.2798770     1.1950560    -0.2368630
  C        3.2312830    -0.0061060     0.7967240
  C       -1.0960700    -1.2065460    -0.0157640
  C       -1.0950530     1.2066380    -0.0091780
  C       -1.7760883     0.0078614     0.0999265
  H        2.7838010    -0.8823900    -1.1265120
  H        2.7835740     0.8731460    -1.1246690
  H        0.8095070    -2.1483250    -0.3363770
  H        0.8092330     2.1418130    -0.3228610
  H        2.9650580     0.8755680     1.3857970
  H        4.3169070    -0.0053560     0.6533480
  H        2.9660240    -0.8892340     1.3840690
  H       -1.6206308    -2.1578807     0.0644004
  H       -1.6431320     2.1402150     0.0795740
  H       -3.4941530    -0.8345020     0.3676020
units angstrom
no_reorient  #important for SAPT in psi4, default
symmetry c1  #important for SAPT in psi4, default
}

set PROPERTIES_ORIGIN ["COM"]
properties('MP2/aug-cc-pvtz', properties = ['dipole'])
--------------------------------------------------------------------------

    Molecular point group: c1
  Charge       = 0
  Multiplicity = 1
  Basis Set: AUG-CC-PVTZ
    Blend: AUG-CC-PVTZ
  Basis Set: (AUG-CC-PVTZ AUX)
    Blend: AUG-CC-PVTZ-JKFIT

    Orbital Energies [Eh]
    ---------------------

    Doubly Occupied:

       1A    -20.587115     2A    -11.298516     3A    -11.238355
       4A    -11.236678     5A    -11.235242     6A    -11.231407
       7A    -11.227612     8A    -11.227363     9A    -11.215506
      10A     -1.392915    11A     -1.152393    12A     -1.058885
      13A     -1.017820    14A     -0.976138    15A     -0.861824
      16A     -0.842795    17A     -0.791193    18A     -0.726930
      19A     -0.671238    20A     -0.647053    21A     -0.613231
      22A     -0.596007    23A     -0.588182    24A     -0.583895
      25A     -0.569617    26A     -0.553416    27A     -0.523342
      28A     -0.499416    29A     -0.480109    30A     -0.478642
      31A     -0.468723    32A     -0.340939    33A     -0.307335

  @DF-RHF Final Energy:  -383.76651593061013

   => Energetics <=

    Nuclear Repulsion Energy =            418.3928666476852527
    One-Electron Energy =               -1349.8391036621662806
    Two-Electron Energy =                 547.6797210838709589
    Total Energy =                       -383.7665159306101259
  Basis Set: (AUG-CC-PVTZ AUX)
    Blend: AUG-CC-PVTZ-RI
    Molecular point group: c1

    Geometry (in Angstrom), charge = 0, multiplicity = 1:

       Center              X                  Y                   Z               Mass
    ------------   -----------------  -----------------  -----------------  -----------------
         O           -3.142801826782     0.069980268833     0.317141082146    15.994914619570
         C            0.989148173218    -0.004544731167    -0.361030917854    12.000000000000
         C            2.486197173218    -0.005766731167    -0.539551917854    12.000000000000
         C            0.279520173218    -1.202121731167    -0.244031917854    12.000000000000
         C            0.278783173218     1.194498268833    -0.236688917854    12.000000000000
         C            3.230189173218    -0.006663731167     0.796898082146    12.000000000000
         C           -1.097163826782    -1.207103731167    -0.015589917854    12.000000000000
         C           -1.096146826782     1.206080268833    -0.009003917854    12.000000000000
         C           -1.777182126782     0.007303668833     0.100100582146    12.000000000000
         H            2.782707173218    -0.882947731167    -1.126337917854     1.007825032230
         H            2.782480173218     0.872588268833    -1.124494917854     1.007825032230
         H            0.808413173218    -2.148882731167    -0.336202917854     1.007825032230
         H            0.808139173218     2.141255268833    -0.322686917854     1.007825032230
         H            2.963964173218     0.875010268833     1.385971082146     1.007825032230
         H            4.315813173218    -0.005913731167     0.653522082146     1.007825032230
         H            2.964930173218    -0.889791731167     1.384243082146     1.007825032230
         H           -1.621724626782    -2.158438431167     0.064574482146     1.007825032230
         H           -1.644225826782     2.139657268833     0.079748082146     1.007825032230
         H           -3.495246826782    -0.835059731167     0.367776082146     1.007825032230

  Basis Set: AUG-CC-PVTZ
    Blend: AUG-CC-PVTZ
  Basis Set: (AUG-CC-PVTZ AUX)
    Blend: AUG-CC-PVTZ-JKFIT
	 Reference Energy          =    -383.7665159306101259 [Eh]
	 Singles Energy            =      -0.0000000000000000 [Eh]
	 Same-Spin Energy          =      -0.4127293746234849 [Eh]
	 Opposite-Spin Energy      =      -1.3187702078519181 [Eh]
	 Correlation Energy        =      -1.7314995824754029 [Eh]
	 Total Energy              =    -385.4980155130855337 [Eh]

	 ================> DF-SCS-MP2 Energies <==================
	-----------------------------------------------------------
	 SCS Same-Spin Scale       =       0.3333333333333333 [-]
	 SCS Opposite-Spin Scale   =       1.2000000000000000 [-]
	 SCS Same-Spin Energy      =      -0.1375764582078283 [Eh]
	 SCS Opposite-Spin Energy  =      -1.5825242494223017 [Eh]
	 SCS Correlation Energy    =      -1.7201007076301300 [Eh]
	 SCS Total Energy          =    -385.4866166382402639 [Eh]
	-----------------------------------------------------------

  Dipole Moment: [D]
     X:     0.5425      Y:    -1.2724      Z:    -0.0300     Total:     1.3836

*** Psi4 exiting successfully. Buy a developer a beer!
