                               Psi4 1.3.2 release

  ==> Input File <==

--------------------------------------------------------------------------
#psi4
#
memory 32 gb

molecule  {
0 1
  O       -3.1417080     0.0705380     0.3169670
  C        0.9902420    -0.0039870    -0.3612050
  C        2.4850522     0.0736689    -0.5415904
  C        0.2192094    -1.1623334    -0.2379423
  C        0.2798770     1.1950560    -0.2368630
  C        3.2312830    -0.0061060     0.7967240
  C       -1.0960700    -1.2065460    -0.0157640
  C       -1.0950530     1.2066380    -0.0091780
  C       -1.7865290     0.0017960     0.1015840
  H        2.7838010    -0.8823900    -1.1265120
  H        2.7835740     0.8731460    -1.1246690
  H        0.8095070    -2.1483250    -0.3363770
  H        0.8092330     2.1418130    -0.3228610
  H        2.9650580     0.8755680     1.3857970
  H        4.3169070    -0.0053560     0.6533480
  H        2.9660240    -0.8892340     1.3840690
  H       -1.6288030    -2.1532140     0.0657430
  H       -1.6431320     2.1402150     0.0795740
  H       -3.4941530    -0.8345020     0.3676020
units angstrom
no_reorient  #important for SAPT in psi4, default
symmetry c1  #important for SAPT in psi4, default
}

set PROPERTIES_ORIGIN ["COM"]
properties('MP2/aug-cc-pvtz', properties = ['dipole'])
--------------------------------------------------------------------------

    Molecular point group: c1
  Charge       = 0
  Multiplicity = 1
  Basis Set: AUG-CC-PVTZ
    Blend: AUG-CC-PVTZ
  Basis Set: (AUG-CC-PVTZ AUX)
    Blend: AUG-CC-PVTZ-JKFIT

    Orbital Energies [Eh]
    ---------------------

    Doubly Occupied:

       1A    -20.589983     2A    -11.299761     3A    -11.238600
       4A    -11.234475     5A    -11.230336     6A    -11.229843
       7A    -11.229493     8A    -11.225091     9A    -11.216236
      10A     -1.399139    11A     -1.157449    12A     -1.060071
      13A     -1.022078    14A     -0.975525    15A     -0.862946
      16A     -0.839588    17A     -0.793956    18A     -0.728900
      19A     -0.679703    20A     -0.644609    21A     -0.605758
      22A     -0.600888    23A     -0.588250    24A     -0.581077
      25A     -0.568792    26A     -0.557919    27A     -0.527977
      28A     -0.497162    29A     -0.485842    30A     -0.472464
      31A     -0.460029    32A     -0.347297    33A     -0.303624

  @DF-RHF Final Energy:  -383.75259874051477

   => Energetics <=

    Nuclear Repulsion Energy =            419.2815167342722020
    One-Electron Energy =               -1351.5585029604969804
    Two-Electron Energy =                 548.5243874857101218
    Total Energy =                       -383.7525987405147134
  Basis Set: (AUG-CC-PVTZ AUX)
    Blend: AUG-CC-PVTZ-RI
    Molecular point group: c1

    Geometry (in Angstrom), charge = 0, multiplicity = 1:

       Center              X                  Y                   Z               Mass
    ------------   -----------------  -----------------  -----------------  -----------------
         O           -3.135451764643     0.058927713444     0.316534604007    15.994914619570
         C            0.996498235357    -0.015597286556    -0.361637395993    12.000000000000
         C            2.491308435357     0.062058613444    -0.542022795993    12.000000000000
         C            0.225465635357    -1.173943686556    -0.238374695993    12.000000000000
         C            0.286133235357     1.183445713444    -0.237295395993    12.000000000000
         C            3.237539235357    -0.017716286556     0.796291604007    12.000000000000
         C           -1.089813764643    -1.218156286556    -0.016196395993    12.000000000000
         C           -1.088796764643     1.195027713444    -0.009610395993    12.000000000000
         C           -1.780272764643    -0.009814286556     0.101151604007    12.000000000000
         H            2.790057235357    -0.894000286556    -1.126944395993     1.007825032230
         H            2.789830235357     0.861535713444    -1.125101395993     1.007825032230
         H            0.815763235357    -2.159935286556    -0.336809395993     1.007825032230
         H            0.815489235357     2.130202713444    -0.323293395993     1.007825032230
         H            2.971314235357     0.863957713444     1.385364604007     1.007825032230
         H            4.323163235357    -0.016966286556     0.652915604007     1.007825032230
         H            2.972280235357    -0.900844286556     1.383636604007     1.007825032230
         H           -1.622546764643    -2.164824286556     0.065310604007     1.007825032230
         H           -1.636875764643     2.128604713444     0.079141604007     1.007825032230
         H           -3.487896764643    -0.846112286556     0.367169604007     1.007825032230

  Basis Set: AUG-CC-PVTZ
    Blend: AUG-CC-PVTZ
  Basis Set: (AUG-CC-PVTZ AUX)
    Blend: AUG-CC-PVTZ-JKFIT
	 Reference Energy          =    -383.7525987405147703 [Eh]
	 Singles Energy            =      -0.0000000000000000 [Eh]
	 Same-Spin Energy          =      -0.4129938438609797 [Eh]
	 Opposite-Spin Energy      =      -1.3191457179604984 [Eh]
	 Correlation Energy        =      -1.7321395618214781 [Eh]
	 Total Energy              =    -385.4847383023362681 [Eh]

	 ================> DF-SCS-MP2 Energies <==================
	-----------------------------------------------------------
	 SCS Same-Spin Scale       =       0.3333333333333333 [-]
	 SCS Opposite-Spin Scale   =       1.2000000000000000 [-]
	 SCS Same-Spin Energy      =      -0.1376646146203266 [Eh]
	 SCS Opposite-Spin Energy  =      -1.5829748615525980 [Eh]
	 SCS Correlation Energy    =      -1.7206394761729247 [Eh]
	 SCS Total Energy          =    -385.4732382166877187 [Eh]
	-----------------------------------------------------------

  Dipole Moment: [D]
     X:     0.4358      Y:    -1.2237      Z:     0.0035     Total:     1.2990

*** Psi4 exiting successfully. Buy a developer a beer!
