                               Psi4 1.3.2 release

  ==> Input File <==

--------------------------------------------------------------------------
#psi4
#
memory 32 gb

molecule  {
0 1
  O       -3.1417080     0.0705380     0.3169670
  C        0.9902420    -0.0039870    -0.3612050
  C        2.4872910    -0.0052090    -0.5397260
  C        0.2806140    -1.2015640    -0.2442060
  C        0.2798770     1.1950560    -0.2368630
  C        3.1340026    -0.0059887     0.6219770
  C       -1.0960700    -1.2065460    -0.0157640
  C       -1.0950530     1.2066380    -0.0091780
  C       -1.7865290     0.0017960     0.1015840
  H        2.7838010    -0.8823900    -1.1265120
  H        2.7835740     0.8731460    -1.1246690
  H        0.8095070    -2.1483250    -0.3363770
  H        0.8092330     2.1418130    -0.3228610
  H        2.9650580     0.8755680     1.3857970
  H        4.3169070    -0.0053560     0.6533480
  H        2.9660240    -0.8892340     1.3840690
  H       -1.6288030    -2.1532140     0.0657430
  H       -1.6431320     2.1402150     0.0795740
  H       -3.4941530    -0.8345020     0.3676020
units angstrom
no_reorient  #important for SAPT in psi4, default
symmetry c1  #important for SAPT in psi4, default
}

set PROPERTIES_ORIGIN ["COM"]
properties('MP2/aug-cc-pvtz', properties = ['dipole'])
--------------------------------------------------------------------------

    Molecular point group: c1
  Charge       = 0
  Multiplicity = 1
  Basis Set: AUG-CC-PVTZ
    Blend: AUG-CC-PVTZ
  Basis Set: (AUG-CC-PVTZ AUX)
    Blend: AUG-CC-PVTZ-JKFIT

    Orbital Energies [Eh]
    ---------------------

    Doubly Occupied:

       1A    -20.590132     2A    -11.300393     3A    -11.239591
       4A    -11.237763     5A    -11.235350     6A    -11.232455
       7A    -11.229272     8A    -11.228796     9A    -11.218295
      10A     -1.399280    11A     -1.156936    12A     -1.090368
      13A     -1.017685    14A     -0.987023    15A     -0.850717
      16A     -0.839637    17A     -0.789577    18A     -0.729627
      19A     -0.677005    20A     -0.653494    21A     -0.618213
      22A     -0.605732    23A     -0.597161    24A     -0.586861
      25A     -0.585789    26A     -0.560878    27A     -0.534178
      28A     -0.492067    29A     -0.475734    30A     -0.446624
      31A     -0.445049    32A     -0.340979    33A     -0.308727

  @DF-RHF Final Energy:  -383.71684446880130

   => Energetics <=

    Nuclear Repulsion Energy =            421.3105491277647161
    One-Electron Energy =               -1355.4520106518332341
    Two-Electron Energy =                 550.4246170552672766
    Total Energy =                       -383.7168444688012414
  Basis Set: (AUG-CC-PVTZ AUX)
    Blend: AUG-CC-PVTZ-RI
    Molecular point group: c1

    Geometry (in Angstrom), charge = 0, multiplicity = 1:

       Center              X                  Y                   Z               Mass
    ------------   -----------------  -----------------  -----------------  -----------------
         O           -3.132145190261     0.070526449338     0.334144990377    15.994914619570
         C            0.999804809739    -0.003998550662    -0.344027009623    12.000000000000
         C            2.496853809739    -0.005220550662    -0.522548009623    12.000000000000
         C            0.290176809739    -1.201575550662    -0.227028009623    12.000000000000
         C            0.289439809739     1.195044449338    -0.219685009623    12.000000000000
         C            3.143565409739    -0.006000250662     0.639154990377    12.000000000000
         C           -1.086507190261    -1.206557550662     0.001413990377    12.000000000000
         C           -1.085490190261     1.206626449338     0.007999990377    12.000000000000
         C           -1.776966190261     0.001784449338     0.118761990377    12.000000000000
         H            2.793363809739    -0.882401550662    -1.109334009623     1.007825032230
         H            2.793136809739     0.873134449338    -1.107491009623     1.007825032230
         H            0.819069809739    -2.148336550662    -0.319199009623     1.007825032230
         H            0.818795809739     2.141801449338    -0.305683009623     1.007825032230
         H            2.974620809739     0.875556449338     1.402974990377     1.007825032230
         H            4.326469809739    -0.005367550662     0.670525990377     1.007825032230
         H            2.975586809739    -0.889245550662     1.401246990377     1.007825032230
         H           -1.619240190261    -2.153225550662     0.082920990377     1.007825032230
         H           -1.633569190261     2.140203449338     0.096751990377     1.007825032230
         H           -3.484590190261    -0.834513550662     0.384779990377     1.007825032230

  Basis Set: AUG-CC-PVTZ
    Blend: AUG-CC-PVTZ
  Basis Set: (AUG-CC-PVTZ AUX)
    Blend: AUG-CC-PVTZ-JKFIT
	 Reference Energy          =    -383.7168444688012983 [Eh]
	 Singles Energy            =      -0.0000000000000000 [Eh]
	 Same-Spin Energy          =      -0.4154905266016931 [Eh]
	 Opposite-Spin Energy      =      -1.3224352601029183 [Eh]
	 Correlation Energy        =      -1.7379257867046114 [Eh]
	 Total Energy              =    -385.4547702555059345 [Eh]

	 ================> DF-SCS-MP2 Energies <==================
	-----------------------------------------------------------
	 SCS Same-Spin Scale       =       0.3333333333333333 [-]
	 SCS Opposite-Spin Scale   =       1.2000000000000000 [-]
	 SCS Same-Spin Energy      =      -0.1384968422005644 [Eh]
	 SCS Opposite-Spin Energy  =      -1.5869223121235019 [Eh]
	 SCS Correlation Energy    =      -1.7254191543240662 [Eh]
	 SCS Total Energy          =    -385.4422636231253705 [Eh]
	-----------------------------------------------------------

  Dipole Moment: [D]
     X:     0.3668      Y:    -1.2720      Z:    -0.0795     Total:     1.3262

*** Psi4 exiting successfully. Buy a developer a beer!
