                               Psi4 1.3.2 release

  ==> Input File <==

--------------------------------------------------------------------------
#psi4
#
memory 32 gb

molecule  {
0 1
  O       -3.1417080     0.0705380     0.3169670
  C        0.9973842    -0.0040036    -0.3090675
  C        2.4872910    -0.0052090    -0.5397260
  C        0.2806140    -1.2015640    -0.2442060
  C        0.2798770     1.1950560    -0.2368630
  C        3.1841884    -0.0060715     0.8218748
  C       -1.0960700    -1.2065460    -0.0157640
  C       -1.0950530     1.2066380    -0.0091780
  C       -1.7865290     0.0017960     0.1015840
  H        2.7838010    -0.8823900    -1.1265120
  H        2.7835740     0.8731460    -1.1246690
  H        0.8095070    -2.1483250    -0.3363770
  H        0.8092330     2.1418130    -0.3228610
  H        2.9650580     0.8755680     1.3857970
  H        4.3169070    -0.0053560     0.6533480
  H        2.9660240    -0.8892340     1.3840690
  H       -1.6288030    -2.1532140     0.0657430
  H       -1.6431320     2.1402150     0.0795740
  H       -3.4941530    -0.8345020     0.3676020
units angstrom
no_reorient  #important for SAPT in psi4, default
symmetry c1  #important for SAPT in psi4, default
}

set PROPERTIES_ORIGIN ["COM"]
properties('MP2/aug-cc-pvtz', properties = ['dipole'])
--------------------------------------------------------------------------

    Molecular point group: c1
  Charge       = 0
  Multiplicity = 1
  Basis Set: AUG-CC-PVTZ
    Blend: AUG-CC-PVTZ
  Basis Set: (AUG-CC-PVTZ AUX)
    Blend: AUG-CC-PVTZ-JKFIT

    Orbital Energies [Eh]
    ---------------------

    Doubly Occupied:

       1A    -20.588967     2A    -11.298716     3A    -11.237784
       4A    -11.235957     5A    -11.234530     6A    -11.230692
       7A    -11.228020     8A    -11.227640     9A    -11.215211
      10A     -1.398152    11A     -1.151232    12A     -1.059266
      13A     -1.016517    14A     -0.974772    15A     -0.860977
      16A     -0.842571    17A     -0.792056    18A     -0.728254
      19A     -0.672505    20A     -0.647542    21A     -0.615045
      22A     -0.597408    23A     -0.587294    24A     -0.585691
      25A     -0.567545    26A     -0.552704    27A     -0.525444
      28A     -0.502058    29A     -0.482280    30A     -0.476652
      31A     -0.462700    32A     -0.340244    33A     -0.304904

  @DF-RHF Final Energy:  -383.76249812606295

   => Energetics <=

    Nuclear Repulsion Energy =            418.7944770840065871
    One-Electron Energy =               -1350.6312954340380657
    Two-Electron Energy =                 548.0743202239685843
    Total Energy =                       -383.7624981260629511
  Basis Set: (AUG-CC-PVTZ AUX)
    Blend: AUG-CC-PVTZ-RI
    Molecular point group: c1

    Geometry (in Angstrom), charge = 0, multiplicity = 1:

       Center              X                  Y                   Z               Mass
    ------------   -----------------  -----------------  -----------------  -----------------
         O           -3.137780630288     0.070536220528     0.309369491180    15.994914619570
         C            1.001311569712    -0.004005379472    -0.316665008820    12.000000000000
         C            2.491218369712    -0.005210779472    -0.547323508820    12.000000000000
         C            0.284541369712    -1.201565779472    -0.251803508820    12.000000000000
         C            0.283804369712     1.195054220528    -0.244460508820    12.000000000000
         C            3.188115769712    -0.006073279472     0.814277291180    12.000000000000
         C           -1.092142630288    -1.206547779472    -0.023361508820    12.000000000000
         C           -1.091125630288     1.206636220528    -0.016775508820    12.000000000000
         C           -1.782601630288     0.001794220528     0.093986491180    12.000000000000
         H            2.787728369712    -0.882391779472    -1.134109508820     1.007825032230
         H            2.787501369712     0.873144220528    -1.132266508820     1.007825032230
         H            0.813434369712    -2.148326779472    -0.343974508820     1.007825032230
         H            0.813160369712     2.141811220528    -0.330458508820     1.007825032230
         H            2.968985369712     0.875566220528     1.378199491180     1.007825032230
         H            4.320834369712    -0.005357779472     0.645750491180     1.007825032230
         H            2.969951369712    -0.889235779472     1.376471491180     1.007825032230
         H           -1.624875630288    -2.153215779472     0.058145491180     1.007825032230
         H           -1.639204630288     2.140213220528     0.071976491180     1.007825032230
         H           -3.490225630288    -0.834503779472     0.360004491180     1.007825032230

  Basis Set: AUG-CC-PVTZ
    Blend: AUG-CC-PVTZ
  Basis Set: (AUG-CC-PVTZ AUX)
    Blend: AUG-CC-PVTZ-JKFIT
	 Reference Energy          =    -383.7624981260629511 [Eh]
	 Singles Energy            =      -0.0000000000000000 [Eh]
	 Same-Spin Energy          =      -0.4129504283265639 [Eh]
	 Opposite-Spin Energy      =      -1.3191994310342525 [Eh]
	 Correlation Energy        =      -1.7321498593608164 [Eh]
	 Total Energy              =    -385.4946479854237396 [Eh]

	 ================> DF-SCS-MP2 Energies <==================
	-----------------------------------------------------------
	 SCS Same-Spin Scale       =       0.3333333333333333 [-]
	 SCS Opposite-Spin Scale   =       1.2000000000000000 [-]
	 SCS Same-Spin Energy      =      -0.1376501427755213 [Eh]
	 SCS Opposite-Spin Energy  =      -1.5830393172411030 [Eh]
	 SCS Correlation Energy    =      -1.7206894600166243 [Eh]
	 SCS Total Energy          =    -385.4831875860795662 [Eh]
	-----------------------------------------------------------

  Dipole Moment: [D]
     X:     0.4642      Y:    -1.2722      Z:    -0.0461     Total:     1.3550

*** Psi4 exiting successfully. Buy a developer a beer!
