                               Psi4 1.4a3.dev225

  ==> Input File <==

--------------------------------------------------------------------------
#psi4
#
memory 32 gb

molecule  {
0 1
  O        3.2216350    -0.1065060     0.2904990
  C       -0.9146420     0.0169590    -0.3639610
  C       -2.4121960     0.0318470    -0.5323860
  C       -0.1907600     1.2076380    -0.2374780
  C       -0.2237945    -1.1757409    -0.2555532
  C       -3.1413340    -0.0192130     0.8137010
  C        1.1888560     1.1991780    -0.0236810
  C        1.1619340    -1.2201410    -0.0407060
  C        1.8648900    -0.0185630     0.0807020
  H       -2.7091570     0.9353730    -1.0779940
  H       -2.7186560    -0.8212200    -1.1493620
  H       -0.7079800     2.1625600    -0.3214960
  H       -0.7531780    -2.1343060    -0.3521420
  H       -2.8726550    -0.9274190     1.3607640
  H       -4.2274440    -0.0080790     0.6778440
  H       -2.8630000     0.8390280     1.4320080
  H        1.7343360     2.1384520     0.0639930
  H        1.7070130    -2.1569100     0.0367280
  H        3.5799610     0.7963060     0.3524270
units angstrom
no_reorient  #important for SAPT in psi4, default
symmetry c1  #important for SAPT in psi4, default
}

set PROPERTIES_ORIGIN ["COM"]
properties('MP2/aug-cc-pvtz', properties = ['dipole'])
--------------------------------------------------------------------------

    Molecular point group: c1
  Charge       = 0
  Multiplicity = 1
  Basis Set: AUG-CC-PVTZ
    Blend: AUG-CC-PVTZ
  Basis Set: (AUG-CC-PVTZ AUX)
    Blend: AUG-CC-PVTZ-JKFIT

    Orbital Energies [Eh]
    ---------------------

    Doubly Occupied:

       1A    -20.589306     2A    -11.299625     3A    -11.239333
       4A    -11.236552     5A    -11.235350     6A    -11.229772
       7A    -11.229211     8A    -11.227275     9A    -11.215493
      10A     -1.397716    11A     -1.151748    12A     -1.057981
      13A     -1.015376    14A     -0.976202    15A     -0.860774
      16A     -0.842951    17A     -0.791801    18A     -0.726636
      19A     -0.671923    20A     -0.647401    21A     -0.612515
      22A     -0.596034    23A     -0.587274    24A     -0.585088
      25A     -0.567577    26A     -0.555960    27A     -0.522945
      28A     -0.497730    29A     -0.480470    30A     -0.478992
      31A     -0.468155    32A     -0.339614    33A     -0.306944

  @DF-RHF Final Energy:  -383.76583347628718

   => Energetics <=

    Nuclear Repulsion Energy =            418.3289248597442338
    One-Electron Energy =               -1349.7060717035597008
    Two-Electron Energy =                 547.6113133675282825
    Total Energy =                       -383.7658334762871846
  Basis Set: (AUG-CC-PVTZ AUX)
    Blend: AUG-CC-PVTZ-RI
    Molecular point group: c1

    Geometry (in Angstrom), charge = 0, multiplicity = 1:

       Center              X                  Y                   Z               Mass
    ------------   -----------------  -----------------  -----------------  -----------------
         O            3.142850012725    -0.101511011686     0.298978066552    15.994914619570
         C           -0.993426987275     0.021953988314    -0.355481933448    12.000000000000
         C           -2.490980987275     0.036841988314    -0.523906933448    12.000000000000
         C           -0.269544987275     1.212632988314    -0.228998933448    12.000000000000
         C           -0.302579487275    -1.170745911686    -0.247074133448    12.000000000000
         C           -3.220118987275    -0.014218011686     0.822180066552    12.000000000000
         C            1.110071012725     1.204172988314    -0.015201933448    12.000000000000
         C            1.083149012725    -1.215146011686    -0.032226933448    12.000000000000
         C            1.786105012725    -0.013568011686     0.089181066552    12.000000000000
         H           -2.787941987275     0.940367988314    -1.069514933448     1.007825032230
         H           -2.797440987275    -0.816225011686    -1.140882933448     1.007825032230
         H           -0.786764987275     2.167554988314    -0.313016933448     1.007825032230
         H           -0.831962987275    -2.129311011686    -0.343662933448     1.007825032230
         H           -2.951439987275    -0.922424011686     1.369243066552     1.007825032230
         H           -4.306228987275    -0.003084011686     0.686323066552     1.007825032230
         H           -2.941784987275     0.844022988314     1.440487066552     1.007825032230
         H            1.655551012725     2.143446988314     0.072472066552     1.007825032230
         H            1.628228012725    -2.151915011686     0.045207066552     1.007825032230
         H            3.501176012725     0.801300988314     0.360906066552     1.007825032230

  Basis Set: AUG-CC-PVTZ
    Blend: AUG-CC-PVTZ
  Basis Set: (AUG-CC-PVTZ AUX)
    Blend: AUG-CC-PVTZ-JKFIT
	 Reference Energy          =    -383.7658334762871846 [Eh]
	 Singles Energy            =      -0.0000000000000000 [Eh]
	 Same-Spin Energy          =      -0.4128213353536211 [Eh]
	 Opposite-Spin Energy      =      -1.3190007767012033 [Eh]
	 Correlation Energy        =      -1.7318221120548243 [Eh]
	 Total Energy              =    -385.4976555883420133 [Eh]

	 ================> DF-SCS-MP2 Energies <==================
	-----------------------------------------------------------
	 SCS Same-Spin Scale       =       0.3333333333333333 [-]
	 SCS Opposite-Spin Scale   =       1.2000000000000000 [-]
	 SCS Same-Spin Energy      =      -0.1376071117845404 [Eh]
	 SCS Opposite-Spin Energy  =      -1.5828009320414440 [Eh]
	 SCS Correlation Energy    =      -1.7204080438259843 [Eh]
	 SCS Total Energy          =    -385.4862415201131967 [Eh]
	-----------------------------------------------------------

  Dipole Moment: [D]
     X:    -0.4595      Y:     1.2847      Z:    -0.0031     Total:     1.3644

*** Psi4 exiting successfully. Buy a developer a beer!
