                               Psi4 1.3.2 release

  ==> Input File <==

--------------------------------------------------------------------------
#psi4
#
memory 32 gb

molecule  {
0 1
  O       -3.1417080     0.0705380     0.3169670
  C        0.9902420    -0.0039870    -0.3612050
  C        2.5865875    -0.0052901    -0.5515670
  C        0.2806140    -1.2015640    -0.2442060
  C        0.2798770     1.1950560    -0.2368630
  C        3.2312830    -0.0061060     0.7967240
  C       -1.0960700    -1.2065460    -0.0157640
  C       -1.0950530     1.2066380    -0.0091780
  C       -1.7865290     0.0017960     0.1015840
  H        2.7838010    -0.8823900    -1.1265120
  H        2.7835740     0.8731460    -1.1246690
  H        0.8095070    -2.1483250    -0.3363770
  H        0.8092330     2.1418130    -0.3228610
  H        2.9650580     0.8755680     1.3857970
  H        4.3169070    -0.0053560     0.6533480
  H        2.9660240    -0.8892340     1.3840690
  H       -1.6288030    -2.1532140     0.0657430
  H       -1.6431320     2.1402150     0.0795740
  H       -3.4941530    -0.8345020     0.3676020
units angstrom
no_reorient  #important for SAPT in psi4, default
symmetry c1  #important for SAPT in psi4, default
}

set PROPERTIES_ORIGIN ["COM"]
properties('MP2/aug-cc-pvtz', properties = ['dipole'])
--------------------------------------------------------------------------

    Molecular point group: c1
  Charge       = 0
  Multiplicity = 1
  Basis Set: AUG-CC-PVTZ
    Blend: AUG-CC-PVTZ
  Basis Set: (AUG-CC-PVTZ AUX)
    Blend: AUG-CC-PVTZ-JKFIT

    Orbital Energies [Eh]
    ---------------------

    Doubly Occupied:

       1A    -20.588513     2A    -11.298196     3A    -11.237278
       4A    -11.235525     5A    -11.233859     6A    -11.233258
       7A    -11.227560     8A    -11.227325     9A    -11.214356
      10A     -1.397689    11A     -1.147022    12A     -1.055274
      13A     -1.015504    14A     -0.979103    15A     -0.857147
      16A     -0.840846    17A     -0.793900    18A     -0.727382
      19A     -0.670015    20A     -0.640900    21A     -0.617059
      22A     -0.598085    23A     -0.586766    24A     -0.584787
      25A     -0.569613    26A     -0.554730    27A     -0.535712
      28A     -0.501066    29A     -0.484734    30A     -0.472061
      31A     -0.452171    32A     -0.339511    33A     -0.306202

  @DF-RHF Final Energy:  -383.75899221637138

   => Energetics <=

    Nuclear Repulsion Energy =            417.0380806666456124
    One-Electron Energy =               -1347.1478466470996409
    Two-Electron Energy =                 546.3507737640826463
    Total Energy =                       -383.7589922163714391
  Basis Set: (AUG-CC-PVTZ AUX)
    Blend: AUG-CC-PVTZ-RI
    Molecular point group: c1

    Geometry (in Angstrom), charge = 0, multiplicity = 1:

       Center              X                  Y                   Z               Mass
    ------------   -----------------  -----------------  -----------------  -----------------
         O           -3.151469034294     0.070545952396     0.318131053154    15.994914619570
         C            0.980480965706    -0.003979047604    -0.360040946846    12.000000000000
         C            2.576826465706    -0.005282147604    -0.550402946846    12.000000000000
         C            0.270852965706    -1.201556047604    -0.243041946846    12.000000000000
         C            0.270115965706     1.195063952396    -0.235698946846    12.000000000000
         C            3.221521965706    -0.006098047604     0.797888053154    12.000000000000
         C           -1.105831034294    -1.206538047604    -0.014599946846    12.000000000000
         C           -1.104814034294     1.206645952396    -0.008013946846    12.000000000000
         C           -1.796290034294     0.001803952396     0.102748053154    12.000000000000
         H            2.774039965706    -0.882382047604    -1.125347946846     1.007825032230
         H            2.773812965706     0.873153952396    -1.123504946846     1.007825032230
         H            0.799745965706    -2.148317047604    -0.335212946846     1.007825032230
         H            0.799471965706     2.141820952396    -0.321696946846     1.007825032230
         H            2.955296965706     0.875575952396     1.386961053154     1.007825032230
         H            4.307145965706    -0.005348047604     0.654512053154     1.007825032230
         H            2.956262965706    -0.889226047604     1.385233053154     1.007825032230
         H           -1.638564034294    -2.153206047604     0.066907053154     1.007825032230
         H           -1.652893034294     2.140222952396     0.080738053154     1.007825032230
         H           -3.503914034294    -0.834494047604     0.368766053154     1.007825032230

  Basis Set: AUG-CC-PVTZ
    Blend: AUG-CC-PVTZ
  Basis Set: (AUG-CC-PVTZ AUX)
    Blend: AUG-CC-PVTZ-JKFIT
	 Reference Energy          =    -383.7589922163713823 [Eh]
	 Singles Energy            =      -0.0000000000000000 [Eh]
	 Same-Spin Energy          =      -0.4125507558820851 [Eh]
	 Opposite-Spin Energy      =      -1.3188195584115641 [Eh]
	 Correlation Energy        =      -1.7313703142936492 [Eh]
	 Total Energy              =    -385.4903625306650383 [Eh]

	 ================> DF-SCS-MP2 Energies <==================
	-----------------------------------------------------------
	 SCS Same-Spin Scale       =       0.3333333333333333 [-]
	 SCS Opposite-Spin Scale   =       1.2000000000000000 [-]
	 SCS Same-Spin Energy      =      -0.1375169186273617 [Eh]
	 SCS Opposite-Spin Energy  =      -1.5825834700938768 [Eh]
	 SCS Correlation Energy    =      -1.7201003887212385 [Eh]
	 SCS Total Energy          =    -385.4790926050926032 [Eh]
	-----------------------------------------------------------

  Dipole Moment: [D]
     X:     0.5289      Y:    -1.2719      Z:    -0.0146     Total:     1.3775

*** Psi4 exiting successfully. Buy a developer a beer!
