                               Psi4 1.3.2 release

  ==> Input File <==

--------------------------------------------------------------------------
#psi4
#
memory 32 gb

molecule  {
0 1
  O       -3.1417080     0.0705380     0.3169670
  C        0.9911331     0.0071726    -0.3542935
  C        2.4872910    -0.0052090    -0.5397260
  C        0.2806140    -1.2015640    -0.2442060
  C        0.2798770     1.1950560    -0.2368630
  C        3.2312830    -0.0061060     0.7967240
  C       -1.0960700    -1.2065460    -0.0157640
  C       -1.0950530     1.2066380    -0.0091780
  C       -1.7865290     0.0017960     0.1015840
  H        2.7929494    -0.8796650    -1.1258848
  H        2.7835740     0.8731460    -1.1246690
  H        0.8095070    -2.1483250    -0.3363770
  H        0.8092330     2.1418130    -0.3228610
  H        2.9650580     0.8755680     1.3857970
  H        4.3169070    -0.0053560     0.6533480
  H        2.9660240    -0.8892340     1.3840690
  H       -1.6288030    -2.1532140     0.0657430
  H       -1.6431320     2.1402150     0.0795740
  H       -3.4941530    -0.8345020     0.3676020
units angstrom
no_reorient  #important for SAPT in psi4, default
symmetry c1  #important for SAPT in psi4, default
}

set PROPERTIES_ORIGIN ["COM"]
properties('MP2/aug-cc-pvtz', properties = ['dipole'])
--------------------------------------------------------------------------

    Molecular point group: c1
  Charge       = 0
  Multiplicity = 1
  Basis Set: AUG-CC-PVTZ
    Blend: AUG-CC-PVTZ
  Basis Set: (AUG-CC-PVTZ AUX)
    Blend: AUG-CC-PVTZ-JKFIT

    Orbital Energies [Eh]
    ---------------------

    Doubly Occupied:

       1A    -20.589358     2A    -11.299250     3A    -11.239312
       4A    -11.235194     5A    -11.235036     6A    -11.231030
       7A    -11.227859     8A    -11.227069     9A    -11.215070
      10A     -1.398521    11A     -1.151150    12A     -1.058042
      13A     -1.016741    14A     -0.975765    15A     -0.861402
      16A     -0.842472    17A     -0.791945    18A     -0.728541
      19A     -0.671789    20A     -0.647270    21A     -0.613281
      22A     -0.595421    23A     -0.587913    24A     -0.585998
      25A     -0.569948    26A     -0.555093    27A     -0.522998
      28A     -0.497895    29A     -0.480945    30A     -0.477271
      31A     -0.468141    32A     -0.340666    33A     -0.305695

  @DF-RHF Final Energy:  -383.76656328252244

   => Energetics <=

    Nuclear Repulsion Energy =            418.3318205716486773
    One-Electron Energy =               -1349.7086071705975883
    Two-Electron Energy =                 547.6102233164264135
    Total Energy =                       -383.7665632825224975
  Basis Set: (AUG-CC-PVTZ AUX)
    Blend: AUG-CC-PVTZ-RI
    Molecular point group: c1

    Geometry (in Angstrom), charge = 0, multiplicity = 1:

       Center              X                  Y                   Z               Mass
    ------------   -----------------  -----------------  -----------------  -----------------
         O           -3.141871144258     0.069418475090     0.316282472363    15.994914619570
         C            0.990969955742     0.006053075090    -0.354978027637    12.000000000000
         C            2.487127855742    -0.006328524910    -0.540410527637    12.000000000000
         C            0.280450855742    -1.202683524910    -0.244890527637    12.000000000000
         C            0.279713855742     1.193936475090    -0.237547527637    12.000000000000
         C            3.231119855742    -0.007225524910     0.796039472363    12.000000000000
         C           -1.096233144258    -1.207665524910    -0.016448527637    12.000000000000
         C           -1.095216144258     1.205518475090    -0.009862527637    12.000000000000
         C           -1.786692144258     0.000676475090     0.100899472363    12.000000000000
         H            2.792786255742    -0.880784524910    -1.126569327637     1.007825032230
         H            2.783410855742     0.872026475090    -1.125353527637     1.007825032230
         H            0.809343855742    -2.149444524910    -0.337061527637     1.007825032230
         H            0.809069855742     2.140693475090    -0.323545527637     1.007825032230
         H            2.964894855742     0.874448475090     1.385112472363     1.007825032230
         H            4.316743855742    -0.006475524910     0.652663472363     1.007825032230
         H            2.965860855742    -0.890353524910     1.383384472363     1.007825032230
         H           -1.628966144258    -2.154333524910     0.065058472363     1.007825032230
         H           -1.643295144258     2.139095475090     0.078889472363     1.007825032230
         H           -3.494316144258    -0.835621524910     0.366917472363     1.007825032230

  Basis Set: AUG-CC-PVTZ
    Blend: AUG-CC-PVTZ
  Basis Set: (AUG-CC-PVTZ AUX)
    Blend: AUG-CC-PVTZ-JKFIT
	 Reference Energy          =    -383.7665632825224407 [Eh]
	 Singles Energy            =      -0.0000000000000000 [Eh]
	 Same-Spin Energy          =      -0.4127579960077118 [Eh]
	 Opposite-Spin Energy      =      -1.3187511779408050 [Eh]
	 Correlation Energy        =      -1.7315091739485169 [Eh]
	 Total Energy              =    -385.4980724564709362 [Eh]

	 ================> DF-SCS-MP2 Energies <==================
	-----------------------------------------------------------
	 SCS Same-Spin Scale       =       0.3333333333333333 [-]
	 SCS Opposite-Spin Scale   =       1.2000000000000000 [-]
	 SCS Same-Spin Energy      =      -0.1375859986692373 [Eh]
	 SCS Opposite-Spin Energy  =      -1.5825014135289659 [Eh]
	 SCS Correlation Energy    =      -1.7200874121982030 [Eh]
	 SCS Total Energy          =    -385.4866506947206517 [Eh]
	-----------------------------------------------------------

  Dipole Moment: [D]
     X:     0.4659      Y:    -1.2824      Z:    -0.0241     Total:     1.3646

*** Psi4 exiting successfully. Buy a developer a beer!
