                               Psi4 1.3.2 release

  ==> Input File <==

--------------------------------------------------------------------------
#psi4
#
memory 32 gb

molecule  {
0 1
  O       -3.1417080     0.0705380     0.3169670
  C        0.9902420    -0.0039870    -0.3612050
  C        2.4872910    -0.0052090    -0.5397260
  C        0.2703411    -1.1952423    -0.2424410
  C        0.2695853     1.1887172    -0.2351330
  C        3.2312830    -0.0061060     0.7967240
  C       -1.0960700    -1.2065460    -0.0157640
  C       -1.0950530     1.2066380    -0.0091780
  C       -1.7865290     0.0017960     0.1015840
  H        2.7838010    -0.8823900    -1.1265120
  H        2.7835740     0.8731460    -1.1246690
  H        0.8095070    -2.1483250    -0.3363770
  H        0.8092330     2.1418130    -0.3228610
  H        2.9650580     0.8755680     1.3857970
  H        4.3169070    -0.0053560     0.6533480
  H        2.9660240    -0.8892340     1.3840690
  H       -1.6288030    -2.1532140     0.0657430
  H       -1.6431320     2.1402150     0.0795740
  H       -3.4941530    -0.8345020     0.3676020
units angstrom
no_reorient  #important for SAPT in psi4, default
symmetry c1  #important for SAPT in psi4, default
}

set PROPERTIES_ORIGIN ["COM"]
properties('MP2/aug-cc-pvtz', properties = ['dipole'])
--------------------------------------------------------------------------

    Molecular point group: c1
  Charge       = 0
  Multiplicity = 1
  Basis Set: AUG-CC-PVTZ
    Blend: AUG-CC-PVTZ
  Basis Set: (AUG-CC-PVTZ AUX)
    Blend: AUG-CC-PVTZ-JKFIT

    Orbital Energies [Eh]
    ---------------------

    Doubly Occupied:

       1A    -20.589574     2A    -11.299503     3A    -11.237800
       4A    -11.235949     5A    -11.233345     6A    -11.230440
       7A    -11.227588     8A    -11.226718     9A    -11.215351
      10A     -1.398725    11A     -1.152873    12A     -1.058339
      13A     -1.018581    14A     -0.975620    15A     -0.862091
      16A     -0.841068    17A     -0.792595    18A     -0.727852
      19A     -0.673142    20A     -0.646565    21A     -0.611133
      22A     -0.595613    23A     -0.587744    24A     -0.585129
      25A     -0.570552    26A     -0.555717    27A     -0.523829
      28A     -0.496008    29A     -0.481737    30A     -0.476506
      31A     -0.469596    32A     -0.342703    33A     -0.305156

  @DF-RHF Final Energy:  -383.76659336909006

   => Energetics <=

    Nuclear Repulsion Energy =            418.6355837055791085
    One-Electron Energy =               -1350.3140699340451647
    Two-Electron Energy =                 547.9118928593759392
    Total Energy =                       -383.7665933690900602
  Basis Set: (AUG-CC-PVTZ AUX)
    Blend: AUG-CC-PVTZ-RI
    Molecular point group: c1

    Geometry (in Angstrom), charge = 0, multiplicity = 1:

       Center              X                  Y                   Z               Mass
    ------------   -----------------  -----------------  -----------------  -----------------
         O           -3.139686484045     0.070539661087     0.316623498237    15.994914619570
         C            0.992263515955    -0.003985338913    -0.361548501763    12.000000000000
         C            2.489312515955    -0.005207338913    -0.540069501763    12.000000000000
         C            0.272362615955    -1.195240638913    -0.242784501763    12.000000000000
         C            0.271606815955     1.188718861087    -0.235476501763    12.000000000000
         C            3.233304515955    -0.006104338913     0.796380498237    12.000000000000
         C           -1.094048484045    -1.206544338913    -0.016107501763    12.000000000000
         C           -1.093031484045     1.206639661087    -0.009521501763    12.000000000000
         C           -1.784507484045     0.001797661087     0.101240498237    12.000000000000
         H            2.785822515955    -0.882388338913    -1.126855501763     1.007825032230
         H            2.785595515955     0.873147661087    -1.125012501763     1.007825032230
         H            0.811528515955    -2.148323338913    -0.336720501763     1.007825032230
         H            0.811254515955     2.141814661087    -0.323204501763     1.007825032230
         H            2.967079515955     0.875569661087     1.385453498237     1.007825032230
         H            4.318928515955    -0.005354338913     0.653004498237     1.007825032230
         H            2.968045515955    -0.889232338913     1.383725498237     1.007825032230
         H           -1.626781484045    -2.153212338913     0.065399498237     1.007825032230
         H           -1.641110484045     2.140216661087     0.079230498237     1.007825032230
         H           -3.492131484045    -0.834500338913     0.367258498237     1.007825032230

  Basis Set: AUG-CC-PVTZ
    Blend: AUG-CC-PVTZ
  Basis Set: (AUG-CC-PVTZ AUX)
    Blend: AUG-CC-PVTZ-JKFIT
	 Reference Energy          =    -383.7665933690900602 [Eh]
	 Singles Energy            =      -0.0000000000000000 [Eh]
	 Same-Spin Energy          =      -0.4127544227971789 [Eh]
	 Opposite-Spin Energy      =      -1.3186086626685374 [Eh]
	 Correlation Energy        =      -1.7313630854657163 [Eh]
	 Total Energy              =    -385.4979564545557764 [Eh]

	 ================> DF-SCS-MP2 Energies <==================
	-----------------------------------------------------------
	 SCS Same-Spin Scale       =       0.3333333333333333 [-]
	 SCS Opposite-Spin Scale   =       1.2000000000000000 [-]
	 SCS Same-Spin Energy      =      -0.1375848075990596 [Eh]
	 SCS Opposite-Spin Energy  =      -1.5823303952022447 [Eh]
	 SCS Correlation Energy    =      -1.7199152028013043 [Eh]
	 SCS Total Energy          =    -385.4865085718913633 [Eh]
	-----------------------------------------------------------

  Dipole Moment: [D]
     X:     0.4588      Y:    -1.2739      Z:    -0.0157     Total:     1.3540

*** Psi4 exiting successfully. Buy a developer a beer!
