                               Psi4 1.3.2 release

  ==> Input File <==

--------------------------------------------------------------------------
#psi4
#
memory 32 gb

molecule  {
0 1
  O       -3.1417080     0.0705380     0.3169670
  C        0.9902420    -0.0039870    -0.3612050
  C        2.4872910    -0.0052090    -0.5397260
  C        0.3822112    -1.0301073    -0.2609567
  C        0.2798770     1.1950560    -0.2368630
  C        3.2312830    -0.0061060     0.7967240
  C       -1.0960700    -1.2065460    -0.0157640
  C       -1.0950530     1.2066380    -0.0091780
  C       -1.7865290     0.0017960     0.1015840
  H        2.7838010    -0.8823900    -1.1265120
  H        2.7835740     0.8731460    -1.1246690
  H        0.8095070    -2.1483250    -0.3363770
  H        0.8092330     2.1418130    -0.3228610
  H        2.9650580     0.8755680     1.3857970
  H        4.3169070    -0.0053560     0.6533480
  H        2.9660240    -0.8892340     1.3840690
  H       -1.6288030    -2.1532140     0.0657430
  H       -1.6431320     2.1402150     0.0795740
  H       -3.4941530    -0.8345020     0.3676020
units angstrom
no_reorient  #important for SAPT in psi4, default
symmetry c1  #important for SAPT in psi4, default
}

set PROPERTIES_ORIGIN ["COM"]
properties('MP2/aug-cc-pvtz', properties = ['dipole'])
--------------------------------------------------------------------------

    Molecular point group: c1
  Charge       = 0
  Multiplicity = 1
  Basis Set: AUG-CC-PVTZ
    Blend: AUG-CC-PVTZ
  Basis Set: (AUG-CC-PVTZ AUX)
    Blend: AUG-CC-PVTZ-JKFIT

    Orbital Energies [Eh]
    ---------------------

    Doubly Occupied:

       1A    -20.588950     2A    -11.300009     3A    -11.242170
       4A    -11.237198     5A    -11.232084     6A    -11.229747
       7A    -11.226842     8A    -11.215817     9A    -11.205343
      10A     -1.398474    11A     -1.173452    12A     -1.064750
      13A     -1.006188    14A     -0.987772    15A     -0.864356
      16A     -0.851759    17A     -0.785690    18A     -0.722565
      19A     -0.675716    20A     -0.646211    21A     -0.615850
      22A     -0.602189    23A     -0.587761    24A     -0.572593
      25A     -0.571185    26A     -0.553966    27A     -0.528353
      28A     -0.501420    29A     -0.485514    30A     -0.476164
      31A     -0.446853    32A     -0.343822    33A     -0.317372

  @DF-RHF Final Energy:  -383.70517629201794

   => Energetics <=

    Nuclear Repulsion Energy =            420.9645574085146222
    One-Electron Energy =               -1354.8231977739640115
    Two-Electron Energy =                 550.1534640734315644
    Total Energy =                       -383.7051762920178817
  Basis Set: (AUG-CC-PVTZ AUX)
    Blend: AUG-CC-PVTZ-RI
    Molecular point group: c1

    Geometry (in Angstrom), charge = 0, multiplicity = 1:

       Center              X                  Y                   Z               Mass
    ------------   -----------------  -----------------  -----------------  -----------------
         O           -3.151695197022     0.053683494534     0.318613685025    15.994914619570
         C            0.980254802978    -0.020841505466    -0.359558314975    12.000000000000
         C            2.477303802978    -0.022063505466    -0.538079314975    12.000000000000
         C            0.372224002978    -1.046961805466    -0.259310014975    12.000000000000
         C            0.269889802978     1.178201494534    -0.235216314975    12.000000000000
         C            3.221295802978    -0.022960505466     0.798370685025    12.000000000000
         C           -1.106057197022    -1.223400505466    -0.014117314975    12.000000000000
         C           -1.105040197022     1.189783494534    -0.007531314975    12.000000000000
         C           -1.796516197022    -0.015058505466     0.103230685025    12.000000000000
         H            2.773813802978    -0.899244505466    -1.124865314975     1.007825032230
         H            2.773586802978     0.856291494534    -1.123022314975     1.007825032230
         H            0.799519802978    -2.165179505466    -0.334730314975     1.007825032230
         H            0.799245802978     2.124958494534    -0.321214314975     1.007825032230
         H            2.955070802978     0.858713494534     1.387443685025     1.007825032230
         H            4.306919802978    -0.022210505466     0.654994685025     1.007825032230
         H            2.956036802978    -0.906088505466     1.385715685025     1.007825032230
         H           -1.638790197022    -2.170068505466     0.067389685025     1.007825032230
         H           -1.653119197022     2.123360494534     0.081220685025     1.007825032230
         H           -3.504140197022    -0.851356505466     0.369248685025     1.007825032230

  Basis Set: AUG-CC-PVTZ
    Blend: AUG-CC-PVTZ
  Basis Set: (AUG-CC-PVTZ AUX)
    Blend: AUG-CC-PVTZ-JKFIT
	 Reference Energy          =    -383.7051762920179385 [Eh]
	 Singles Energy            =      -0.0000000000000000 [Eh]
	 Same-Spin Energy          =      -0.4119601166020508 [Eh]
	 Opposite-Spin Energy      =      -1.3200110617306176 [Eh]
	 Correlation Energy        =      -1.7319711783326683 [Eh]
	 Total Energy              =    -385.4371474703506237 [Eh]

	 ================> DF-SCS-MP2 Energies <==================
	-----------------------------------------------------------
	 SCS Same-Spin Scale       =       0.3333333333333333 [-]
	 SCS Opposite-Spin Scale   =       1.2000000000000000 [-]
	 SCS Same-Spin Energy      =      -0.1373200388673503 [Eh]
	 SCS Opposite-Spin Energy  =      -1.5840132740767410 [Eh]
	 SCS Correlation Energy    =      -1.7213333129440913 [Eh]
	 SCS Total Energy          =    -385.4265096049620070 [Eh]
	-----------------------------------------------------------

  Dipole Moment: [D]
     X:     0.4187      Y:    -1.1139      Z:    -0.0084     Total:     1.1900

*** Psi4 exiting successfully. Buy a developer a beer!
