                               Psi4 1.3.2 release

  ==> Input File <==

--------------------------------------------------------------------------
#psi4
#
memory 32 gb

molecule  {
0 1
  O       -3.1417080     0.0705380     0.3169670
  C        0.9274425     0.0320122    -0.3507614
  C        2.4872910    -0.0052090    -0.5397260
  C        0.2806140    -1.2015640    -0.2442060
  C        0.2798770     1.1950560    -0.2368630
  C        3.2312830    -0.0061060     0.7967240
  C       -1.0944331    -1.1335039    -0.0159895
  C       -1.0950530     1.2066380    -0.0091780
  C       -1.7865290     0.0017960     0.1015840
  H        2.7838010    -0.8823900    -1.1265120
  H        2.7835740     0.8731460    -1.1246690
  H        0.8095070    -2.1483250    -0.3363770
  H        0.8092330     2.1418130    -0.3228610
  H        2.9650580     0.8755680     1.3857970
  H        4.3169070    -0.0053560     0.6533480
  H        2.9660240    -0.8892340     1.3840690
  H       -1.6288030    -2.1532140     0.0657430
  H       -1.6431320     2.1402150     0.0795740
  H       -3.4941530    -0.8345020     0.3676020
units angstrom
no_reorient  #important for SAPT in psi4, default
symmetry c1  #important for SAPT in psi4, default
}

set PROPERTIES_ORIGIN ["COM"]
properties('MP2/aug-cc-pvtz', properties = ['dipole'])
--------------------------------------------------------------------------

    Molecular point group: c1
  Charge       = 0
  Multiplicity = 1
  Basis Set: AUG-CC-PVTZ
    Blend: AUG-CC-PVTZ
  Basis Set: (AUG-CC-PVTZ AUX)
    Blend: AUG-CC-PVTZ-JKFIT

    Orbital Energies [Eh]
    ---------------------

    Doubly Occupied:

       1A    -20.587801     2A    -11.290220     3A    -11.238368
       4A    -11.234404     5A    -11.229578     6A    -11.228854
       7A    -11.228411     8A    -11.226891     9A    -11.214614
      10A     -1.397666    11A     -1.162724    12A     -1.055069
      13A     -1.019052    14A     -0.982923    15A     -0.854924
      16A     -0.849449    17A     -0.791869    18A     -0.730508
      19A     -0.674959    20A     -0.637125    21A     -0.612372
      22A     -0.594776    23A     -0.590836    24A     -0.588871
      25A     -0.568936    26A     -0.553814    27A     -0.520860
      28A     -0.500717    29A     -0.483330    30A     -0.475979
      31A     -0.456374    32A     -0.343637    33A     -0.313568

  @DF-RHF Final Energy:  -383.75334533914304

   => Energetics <=

    Nuclear Repulsion Energy =            420.0767913184516260
    One-Electron Energy =               -1353.1813165521116389
    Two-Electron Energy =                 549.3511798945170312
    Total Energy =                       -383.7533453391430385
  Basis Set: (AUG-CC-PVTZ AUX)
    Blend: AUG-CC-PVTZ-RI
    Molecular point group: c1

    Geometry (in Angstrom), charge = 0, multiplicity = 1:

       Center              X                  Y                   Z               Mass
    ------------   -----------------  -----------------  -----------------  -----------------
         O           -3.135695631508     0.059819034645     0.315962606058    15.994914619570
         C            0.933454868492     0.021293234645    -0.351765793942    12.000000000000
         C            2.493303368492    -0.015927965355    -0.540730393942    12.000000000000
         C            0.286626368492    -1.212282965355    -0.245210393942    12.000000000000
         C            0.285889368492     1.184337034645    -0.237867393942    12.000000000000
         C            3.237295368492    -0.016824965355     0.795719606058    12.000000000000
         C           -1.088420731508    -1.144222865355    -0.016993893942    12.000000000000
         C           -1.089040631508     1.195919034645    -0.010182393942    12.000000000000
         C           -1.780516631508    -0.008922965355     0.100579606058    12.000000000000
         H            2.789813368492    -0.893108965355    -1.127516393942     1.007825032230
         H            2.789586368492     0.862427034645    -1.125673393942     1.007825032230
         H            0.815519368492    -2.159043965355    -0.337381393942     1.007825032230
         H            0.815245368492     2.131094034645    -0.323865393942     1.007825032230
         H            2.971070368492     0.864849034645     1.384792606058     1.007825032230
         H            4.322919368492    -0.016074965355     0.652343606058     1.007825032230
         H            2.972036368492    -0.899952965355     1.383064606058     1.007825032230
         H           -1.622790631508    -2.163932965355     0.064738606058     1.007825032230
         H           -1.637119631508     2.129496034645     0.078569606058     1.007825032230
         H           -3.488140631508    -0.845220965355     0.366597606058     1.007825032230

  Basis Set: AUG-CC-PVTZ
    Blend: AUG-CC-PVTZ
  Basis Set: (AUG-CC-PVTZ AUX)
    Blend: AUG-CC-PVTZ-JKFIT
	 Reference Energy          =    -383.7533453391430385 [Eh]
	 Singles Energy            =      -0.0000000000000000 [Eh]
	 Same-Spin Energy          =      -0.4127662770540867 [Eh]
	 Opposite-Spin Energy      =      -1.3185068727470859 [Eh]
	 Correlation Energy        =      -1.7312731498011726 [Eh]
	 Total Energy              =    -385.4846184889441929 [Eh]

	 ================> DF-SCS-MP2 Energies <==================
	-----------------------------------------------------------
	 SCS Same-Spin Scale       =       0.3333333333333333 [-]
	 SCS Opposite-Spin Scale   =       1.2000000000000000 [-]
	 SCS Same-Spin Energy      =      -0.1375887590180289 [Eh]
	 SCS Opposite-Spin Energy  =      -1.5822082472965031 [Eh]
	 SCS Correlation Energy    =      -1.7197970063145320 [Eh]
	 SCS Total Energy          =    -385.4731423454575747 [Eh]
	-----------------------------------------------------------

  Dipole Moment: [D]
     X:     0.5092      Y:    -1.2766      Z:    -0.0366     Total:     1.3749

*** Psi4 exiting successfully. Buy a developer a beer!
