                               Psi4 1.4a3.dev225

  ==> Input File <==

--------------------------------------------------------------------------
#psi4
#
memory 32 gb

molecule  {
0 1
  O        3.2216350    -0.1065060     0.2904990
  C       -0.9146420     0.0169590    -0.3639610
  C       -2.4618803     0.0323409    -0.5379738
  C       -0.1907600     1.2076380    -0.2374780
  C       -0.2138010    -1.1929940    -0.2539850
  C       -3.1413340    -0.0192130     0.8137010
  C        1.1888560     1.1991780    -0.0236810
  C        1.1619340    -1.2201410    -0.0407060
  C        1.8648900    -0.0185630     0.0807020
  H       -2.7091570     0.9353730    -1.0779940
  H       -2.7186560    -0.8212200    -1.1493620
  H       -0.7079800     2.1625600    -0.3214960
  H       -0.7531780    -2.1343060    -0.3521420
  H       -2.8726550    -0.9274190     1.3607640
  H       -4.2274440    -0.0080790     0.6778440
  H       -2.8630000     0.8390280     1.4320080
  H        1.7343360     2.1384520     0.0639930
  H        1.7070130    -2.1569100     0.0367280
  H        3.5799610     0.7963060     0.3524270
units angstrom
no_reorient  #important for SAPT in psi4, default
symmetry c1  #important for SAPT in psi4, default
}

set PROPERTIES_ORIGIN ["COM"]
properties('MP2/aug-cc-pvtz', properties = ['dipole'])
--------------------------------------------------------------------------

    Molecular point group: c1
  Charge       = 0
  Multiplicity = 1
  Basis Set: AUG-CC-PVTZ
    Blend: AUG-CC-PVTZ
  Basis Set: (AUG-CC-PVTZ AUX)
    Blend: AUG-CC-PVTZ-JKFIT

    Orbital Energies [Eh]
    ---------------------

    Doubly Occupied:

       1A    -20.588976     2A    -11.299250     3A    -11.238308
       4A    -11.236589     5A    -11.234571     6A    -11.233204
       7A    -11.228372     8A    -11.227305     9A    -11.214881
      10A     -1.397363    11A     -1.148090    12A     -1.055789
      13A     -1.016215    14A     -0.976530    15A     -0.858925
      16A     -0.841185    17A     -0.792495    18A     -0.726868
      19A     -0.670464    20A     -0.643939    21A     -0.614512
      22A     -0.596978    23A     -0.586901    24A     -0.585376
      25A     -0.569015    26A     -0.555075    27A     -0.528513
      28A     -0.499384    29A     -0.482379    30A     -0.470786
      31A     -0.466200    32A     -0.340351    33A     -0.305476

  @DF-RHF Final Energy:  -383.76443673823013

   => Energetics <=

    Nuclear Repulsion Energy =            417.4455748162173450
    One-Electron Energy =               -1347.9594914232422980
    Two-Electron Energy =                 546.7494798687947650
    Total Energy =                       -383.7644367382301880
  Basis Set: (AUG-CC-PVTZ AUX)
    Blend: AUG-CC-PVTZ-RI
    Molecular point group: c1

    Geometry (in Angstrom), charge = 0, multiplicity = 1:

       Center              X                  Y                   Z               Mass
    ------------   -----------------  -----------------  -----------------  -----------------
         O            3.146751685957    -0.099863553786     0.299373200077    15.994914619570
         C           -0.989525314043     0.023601446214    -0.355086799923    12.000000000000
         C           -2.536763614043     0.038983346214    -0.529099599923    12.000000000000
         C           -0.265643314043     1.214280446214    -0.228603799923    12.000000000000
         C           -0.288684314043    -1.186351553786    -0.245110799923    12.000000000000
         C           -3.216217314043    -0.012570553786     0.822575200077    12.000000000000
         C            1.113972685957     1.205820446214    -0.014806799923    12.000000000000
         C            1.087050685957    -1.213498553786    -0.031831799923    12.000000000000
         C            1.790006685957    -0.011920553786     0.089576200077    12.000000000000
         H           -2.784040314043     0.942015446214    -1.069119799923     1.007825032230
         H           -2.793539314043    -0.814577553786    -1.140487799923     1.007825032230
         H           -0.782863314043     2.169202446214    -0.312621799923     1.007825032230
         H           -0.828061314043    -2.127663553786    -0.343267799923     1.007825032230
         H           -2.947538314043    -0.920776553786     1.369638200077     1.007825032230
         H           -4.302327314043    -0.001436553786     0.686718200077     1.007825032230
         H           -2.937883314043     0.845670446214     1.440882200077     1.007825032230
         H            1.659452685957     2.145094446214     0.072867200077     1.007825032230
         H            1.632129685957    -2.150267553786     0.045602200077     1.007825032230
         H            3.505077685957     0.802948446214     0.361301200077     1.007825032230

  Basis Set: AUG-CC-PVTZ
    Blend: AUG-CC-PVTZ
  Basis Set: (AUG-CC-PVTZ AUX)
    Blend: AUG-CC-PVTZ-JKFIT
	 Reference Energy          =    -383.7644367382301311 [Eh]
	 Singles Energy            =      -0.0000000000000000 [Eh]
	 Same-Spin Energy          =      -0.4125866447648081 [Eh]
	 Opposite-Spin Energy      =      -1.3188513657585674 [Eh]
	 Correlation Energy        =      -1.7314380105233755 [Eh]
	 Total Energy              =    -385.4958747487535220 [Eh]

	 ================> DF-SCS-MP2 Energies <==================
	-----------------------------------------------------------
	 SCS Same-Spin Scale       =       0.3333333333333333 [-]
	 SCS Opposite-Spin Scale   =       1.2000000000000000 [-]
	 SCS Same-Spin Energy      =      -0.1375288815882694 [Eh]
	 SCS Opposite-Spin Energy  =      -1.5826216389102810 [Eh]
	 SCS Correlation Energy    =      -1.7201505204985503 [Eh]
	 SCS Total Energy          =    -385.4845872587287090 [Eh]
	-----------------------------------------------------------

  Dipole Moment: [D]
     X:    -0.4957      Y:     1.2740      Z:    -0.0035     Total:     1.3670

*** Psi4 exiting successfully. Buy a developer a beer!
