                               Psi4 1.3.2 release

  ==> Input File <==

--------------------------------------------------------------------------
#psi4
#
memory 32 gb

molecule  {
0 1
  O       -3.1417080     0.0705380     0.3169670
  C        0.9902420    -0.0039870    -0.3612050
  C        2.6858839    -0.0053711    -0.5634079
  C        0.2806140    -1.2015640    -0.2442060
  C        0.2798770     1.1950560    -0.2368630
  C        3.2312830    -0.0061060     0.7967240
  C       -1.0960700    -1.2065460    -0.0157640
  C       -1.0950530     1.2066380    -0.0091780
  C       -1.7865290     0.0017960     0.1015840
  H        2.7838010    -0.8823900    -1.1265120
  H        2.7835740     0.8731460    -1.1246690
  H        0.8095070    -2.1483250    -0.3363770
  H        0.8092330     2.1418130    -0.3228610
  H        2.9650580     0.8755680     1.3857970
  H        4.3169070    -0.0053560     0.6533480
  H        2.9660240    -0.8892340     1.3840690
  H       -1.6288030    -2.1532140     0.0657430
  H       -1.6431320     2.1402150     0.0795740
  H       -3.4941530    -0.8345020     0.3676020
units angstrom
no_reorient  #important for SAPT in psi4, default
symmetry c1  #important for SAPT in psi4, default
}

set PROPERTIES_ORIGIN ["COM"]
properties('MP2/aug-cc-pvtz', properties = ['dipole'])
--------------------------------------------------------------------------

    Molecular point group: c1
  Charge       = 0
  Multiplicity = 1
  Basis Set: AUG-CC-PVTZ
    Blend: AUG-CC-PVTZ
  Basis Set: (AUG-CC-PVTZ AUX)
    Blend: AUG-CC-PVTZ-JKFIT

    Orbital Energies [Eh]
    ---------------------

    Doubly Occupied:

       1A    -20.587595     2A    -11.296988     3A    -11.236342
       4A    -11.234776     5A    -11.233577     6A    -11.232880
       7A    -11.231063     8A    -11.226385     9A    -11.214854
      10A     -1.396778    11A     -1.143865    12A     -1.055725
      13A     -1.014228    14A     -0.981139    15A     -0.854629
      16A     -0.839270    17A     -0.795291    18A     -0.726222
      19A     -0.668530    20A     -0.636888    21A     -0.623409
      22A     -0.598314    23A     -0.585646    24A     -0.583785
      25A     -0.568703    26A     -0.556383    27A     -0.548325
      28A     -0.506222    29A     -0.486220    30A     -0.473006
      31A     -0.422312    32A     -0.338450    33A     -0.305639

  @DF-RHF Final Energy:  -383.73741041783086

   => Energetics <=

    Nuclear Repulsion Energy =            415.8074100228561747
    One-Electron Energy =               -1344.6827624997438306
    Two-Electron Energy =                 545.1379420590567406
    Total Energy =                       -383.7374104178309153
  Basis Set: (AUG-CC-PVTZ AUX)
    Blend: AUG-CC-PVTZ-RI
    Molecular point group: c1

    Geometry (in Angstrom), charge = 0, multiplicity = 1:

       Center              X                  Y                   Z               Mass
    ------------   -----------------  -----------------  -----------------  -----------------
         O           -3.161230039512     0.070553914834     0.319295033789    15.994914619570
         C            0.970719960488    -0.003971085166    -0.358876966211    12.000000000000
         C            2.666361860488    -0.005355185166    -0.561079866211    12.000000000000
         C            0.261091960488    -1.201548085166    -0.241877966211    12.000000000000
         C            0.260354960488     1.195071914834    -0.234534966211    12.000000000000
         C            3.211760960488    -0.006090085166     0.799052033789    12.000000000000
         C           -1.115592039512    -1.206530085166    -0.013435966211    12.000000000000
         C           -1.114575039512     1.206653914834    -0.006849966211    12.000000000000
         C           -1.806051039512     0.001811914834     0.103912033789    12.000000000000
         H            2.764278960488    -0.882374085166    -1.124183966211     1.007825032230
         H            2.764051960488     0.873161914834    -1.122340966211     1.007825032230
         H            0.789984960488    -2.148309085166    -0.334048966211     1.007825032230
         H            0.789710960488     2.141828914834    -0.320532966211     1.007825032230
         H            2.945535960488     0.875583914834     1.388125033789     1.007825032230
         H            4.297384960488    -0.005340085166     0.655676033789     1.007825032230
         H            2.946501960488    -0.889218085166     1.386397033789     1.007825032230
         H           -1.648325039512    -2.153198085166     0.068071033789     1.007825032230
         H           -1.662654039512     2.140230914834     0.081902033789     1.007825032230
         H           -3.513675039512    -0.834486085166     0.369930033789     1.007825032230

  Basis Set: AUG-CC-PVTZ
    Blend: AUG-CC-PVTZ
  Basis Set: (AUG-CC-PVTZ AUX)
    Blend: AUG-CC-PVTZ-JKFIT
	 Reference Energy          =    -383.7374104178308585 [Eh]
	 Singles Energy            =      -0.0000000000000000 [Eh]
	 Same-Spin Energy          =      -0.4131465785924951 [Eh]
	 Opposite-Spin Energy      =      -1.3203185131438691 [Eh]
	 Correlation Energy        =      -1.7334650917363641 [Eh]
	 Total Energy              =    -385.4708755095672359 [Eh]

	 ================> DF-SCS-MP2 Energies <==================
	-----------------------------------------------------------
	 SCS Same-Spin Scale       =       0.3333333333333333 [-]
	 SCS Opposite-Spin Scale   =       1.2000000000000000 [-]
	 SCS Same-Spin Energy      =      -0.1377155261974984 [Eh]
	 SCS Opposite-Spin Energy  =      -1.5843822157726428 [Eh]
	 SCS Correlation Energy    =      -1.7220977419701411 [Eh]
	 SCS Total Energy          =    -385.4595081598009756 [Eh]
	-----------------------------------------------------------

  Dipole Moment: [D]
     X:     0.5862      Y:    -1.2712      Z:     0.0016     Total:     1.3999

*** Psi4 exiting successfully. Buy a developer a beer!
