                               Psi4 1.3.2 release

  ==> Input File <==

--------------------------------------------------------------------------
#psi4
#
memory 32 gb

molecule  {
0 1
  O       -3.1417080     0.0705380     0.3169670
  C        0.9902420    -0.0039870    -0.3612050
  C        2.4872910    -0.0052090    -0.5397260
  C        0.2806140    -1.2015640    -0.2442060
  C        0.2798770     1.1950560    -0.2368630
  C        3.2312830    -0.0061060     0.7967240
  C       -1.0960700    -1.2065460    -0.0157640
  C       -1.0950530     1.2066380    -0.0091780
  C       -1.7865290     0.0017960     0.1015840
  H        2.7838010    -0.8823900    -1.1265120
  H        2.7835740     0.8731460    -1.1246690
  H        0.8095070    -2.1483250    -0.3363770
  H        0.8092330     2.1418130    -0.3228610
  H        2.9650580     0.8755680     1.3857970
  H        4.3169070    -0.0053560     0.6533480
  H        2.9660240    -0.8892340     1.3840690
  H       -1.6288030    -2.1532140     0.0657430
  H       -1.6431320     2.1402150     0.0795740
  H       -3.4216754    -0.6483876     0.3571893
units angstrom
no_reorient  #important for SAPT in psi4, default
symmetry c1  #important for SAPT in psi4, default
}

set PROPERTIES_ORIGIN ["COM"]
properties('MP2/aug-cc-pvtz', properties = ['dipole'])
--------------------------------------------------------------------------

    Molecular point group: c1
  Charge       = 0
  Multiplicity = 1
  Basis Set: AUG-CC-PVTZ
    Blend: AUG-CC-PVTZ
  Basis Set: (AUG-CC-PVTZ AUX)
    Blend: AUG-CC-PVTZ-JKFIT

    Orbital Energies [Eh]
    ---------------------

    Doubly Occupied:

       1A    -20.568879     2A    -11.301153     3A    -11.239269
       4A    -11.237163     5A    -11.236566     6A    -11.232526
       7A    -11.229544     8A    -11.227966     9A    -11.216012
      10A     -1.457935    11A     -1.155093    12A     -1.063013
      13A     -1.018229    14A     -0.983377    15A     -0.874416
      16A     -0.845681    17A     -0.803277    18A     -0.753549
      19A     -0.675819    20A     -0.648823    21A     -0.619758
      22A     -0.598743    23A     -0.593915    24A     -0.588025
      25A     -0.573088    26A     -0.561306    27A     -0.524601
      28A     -0.500333    29A     -0.481078    30A     -0.479132
      31A     -0.470959    32A     -0.341484    33A     -0.308495

  @DF-RHF Final Energy:  -383.72042910789241

   => Energetics <=

    Nuclear Repulsion Energy =            419.7399015319312525
    One-Electron Energy =               -1352.1022491924481983
    Two-Electron Energy =                 548.6419185526244746
    Total Energy =                       -383.7204291078924143
  Basis Set: (AUG-CC-PVTZ AUX)
    Blend: AUG-CC-PVTZ-RI
    Molecular point group: c1

    Geometry (in Angstrom), charge = 0, multiplicity = 1:

       Center              X                  Y                   Z               Mass
    ------------   -----------------  -----------------  -----------------  -----------------
         O           -3.142306387770     0.069001436439     0.317053029001    15.994914619570
         C            0.989643612230    -0.005523563561    -0.361118970999    12.000000000000
         C            2.486692612230    -0.006745563561    -0.539639970999    12.000000000000
         C            0.280015612230    -1.203100563561    -0.244119970999    12.000000000000
         C            0.279278612230     1.193519436439    -0.236776970999    12.000000000000
         C            3.230684612230    -0.007642563561     0.796810029001    12.000000000000
         C           -1.096668387770    -1.208082563561    -0.015677970999    12.000000000000
         C           -1.095651387770     1.205101436439    -0.009091970999    12.000000000000
         C           -1.787127387770     0.000259436439     0.101670029001    12.000000000000
         H            2.783202612230    -0.883926563561    -1.126425970999     1.007825032230
         H            2.782975612230     0.871609436439    -1.124582970999     1.007825032230
         H            0.808908612230    -2.149861563561    -0.336290970999     1.007825032230
         H            0.808634612230     2.140276436439    -0.322774970999     1.007825032230
         H            2.964459612230     0.874031436439     1.385883029001     1.007825032230
         H            4.316308612230    -0.006892563561     0.653434029001     1.007825032230
         H            2.965425612230    -0.890770563561     1.384155029001     1.007825032230
         H           -1.629401387770    -2.154750563561     0.065829029001     1.007825032230
         H           -1.643730387770     2.138678436439     0.079660029001     1.007825032230
         H           -3.422273787770    -0.649924163561     0.357275329001     1.007825032230

  Basis Set: AUG-CC-PVTZ
    Blend: AUG-CC-PVTZ
  Basis Set: (AUG-CC-PVTZ AUX)
    Blend: AUG-CC-PVTZ-JKFIT
	 Reference Energy          =    -383.7204291078924143 [Eh]
	 Singles Energy            =      -0.0000000000000000 [Eh]
	 Same-Spin Energy          =      -0.4102988005180004 [Eh]
	 Opposite-Spin Energy      =      -1.3130967767491759 [Eh]
	 Correlation Energy        =      -1.7233955772671763 [Eh]
	 Total Energy              =    -385.4438246851595977 [Eh]

	 ================> DF-SCS-MP2 Energies <==================
	-----------------------------------------------------------
	 SCS Same-Spin Scale       =       0.3333333333333333 [-]
	 SCS Opposite-Spin Scale   =       1.2000000000000000 [-]
	 SCS Same-Spin Energy      =      -0.1367662668393335 [Eh]
	 SCS Opposite-Spin Energy  =      -1.5757161320990110 [Eh]
	 SCS Correlation Energy    =      -1.7124823989383444 [Eh]
	 SCS Total Energy          =    -385.4329115068307487 [Eh]
	-----------------------------------------------------------

  Dipole Moment: [D]
     X:     0.6553      Y:    -1.1211      Z:    -0.0446     Total:     1.2993

*** Psi4 exiting successfully. Buy a developer a beer!
