                               Psi4 1.3.2 release

  ==> Input File <==

--------------------------------------------------------------------------
#psi4
#
memory 32 gb

molecule  {
0 1
  O       -3.1417080     0.0705380     0.3169670
  C        1.0005361     0.0023518    -0.3629210
  C        2.4872910    -0.0052090    -0.5397260
  C        0.2806140    -1.2015640    -0.2442060
  C        0.2798770     1.1950560    -0.2368630
  C        3.2312830    -0.0061060     0.7967240
  C       -1.0960700    -1.2065460    -0.0157640
  C       -1.0950530     1.2066380    -0.0091780
  C       -1.7865290     0.0017960     0.1015840
  H        2.7838010    -0.8823900    -1.1265120
  H        2.7835740     0.8731460    -1.1246690
  H        0.8095070    -2.1483250    -0.3363770
  H        0.8173566     2.1370971    -0.3242504
  H        2.9650580     0.8755680     1.3857970
  H        4.3169070    -0.0053560     0.6533480
  H        2.9660240    -0.8892340     1.3840690
  H       -1.6288030    -2.1532140     0.0657430
  H       -1.6431320     2.1402150     0.0795740
  H       -3.4941530    -0.8345020     0.3676020
units angstrom
no_reorient  #important for SAPT in psi4, default
symmetry c1  #important for SAPT in psi4, default
}

set PROPERTIES_ORIGIN ["COM"]
properties('MP2/aug-cc-pvtz', properties = ['dipole'])
--------------------------------------------------------------------------

    Molecular point group: c1
  Charge       = 0
  Multiplicity = 1
  Basis Set: AUG-CC-PVTZ
    Blend: AUG-CC-PVTZ
  Basis Set: (AUG-CC-PVTZ AUX)
    Blend: AUG-CC-PVTZ-JKFIT

    Orbital Energies [Eh]
    ---------------------

    Doubly Occupied:

       1A    -20.589517     2A    -11.299504     3A    -11.239310
       4A    -11.236231     5A    -11.234902     6A    -11.231513
       7A    -11.228105     8A    -11.226807     9A    -11.215477
      10A     -1.398656    11A     -1.150318    12A     -1.059444
      13A     -1.016169    14A     -0.975227    15A     -0.862791
      16A     -0.842225    17A     -0.791297    18A     -0.728401
      19A     -0.671909    20A     -0.647532    21A     -0.613225
      22A     -0.595876    23A     -0.587457    24A     -0.585358
      25A     -0.570270    26A     -0.555109    27A     -0.523994
      28A     -0.497939    29A     -0.482591    30A     -0.476849
      31A     -0.467421    32A     -0.340414    33A     -0.304988

  @DF-RHF Final Energy:  -383.76629221845928

   => Energetics <=

    Nuclear Repulsion Energy =            418.2533080816849065
    One-Electron Energy =               -1349.5455426772361989
    Two-Electron Energy =                 547.5259423770919511
    Total Energy =                       -383.7662922184592844
  Basis Set: (AUG-CC-PVTZ AUX)
    Blend: AUG-CC-PVTZ-RI
    Molecular point group: c1

    Geometry (in Angstrom), charge = 0, multiplicity = 1:

       Center              X                  Y                   Z               Mass
    ------------   -----------------  -----------------  -----------------  -----------------
         O           -3.142787014515     0.069953799338     0.317147219172    15.994914619570
         C            0.999457085485     0.001767599338    -0.362740780828    12.000000000000
         C            2.486211985485    -0.005793200662    -0.539545780828    12.000000000000
         C            0.279534985485    -1.202148200662    -0.244025780828    12.000000000000
         C            0.278797985485     1.194471799338    -0.236682780828    12.000000000000
         C            3.230203985485    -0.006690200662     0.796904219172    12.000000000000
         C           -1.097149014515    -1.207130200662    -0.015583780828    12.000000000000
         C           -1.096132014515     1.206053799338    -0.008997780828    12.000000000000
         C           -1.787608014515     0.001211799338     0.101764219172    12.000000000000
         H            2.782721985485    -0.882974200662    -1.126331780828     1.007825032230
         H            2.782494985485     0.872561799338    -1.124488780828     1.007825032230
         H            0.808427985485    -2.148909200662    -0.336196780828     1.007825032230
         H            0.816277585485     2.136512899338    -0.324070180828     1.007825032230
         H            2.963978985485     0.874983799338     1.385977219172     1.007825032230
         H            4.315827985485    -0.005940200662     0.653528219172     1.007825032230
         H            2.964944985485    -0.889818200662     1.384249219172     1.007825032230
         H           -1.629882014515    -2.153798200662     0.065923219172     1.007825032230
         H           -1.644211014515     2.139630799338     0.079754219172     1.007825032230
         H           -3.495232014515    -0.835086200662     0.367782219172     1.007825032230

  Basis Set: AUG-CC-PVTZ
    Blend: AUG-CC-PVTZ
  Basis Set: (AUG-CC-PVTZ AUX)
    Blend: AUG-CC-PVTZ-JKFIT
	 Reference Energy          =    -383.7662922184592844 [Eh]
	 Singles Energy            =      -0.0000000000000000 [Eh]
	 Same-Spin Energy          =      -0.4128641184383944 [Eh]
	 Opposite-Spin Energy      =      -1.3189121033955984 [Eh]
	 Correlation Energy        =      -1.7317762218339929 [Eh]
	 Total Energy              =    -385.4980684402932525 [Eh]

	 ================> DF-SCS-MP2 Energies <==================
	-----------------------------------------------------------
	 SCS Same-Spin Scale       =       0.3333333333333333 [-]
	 SCS Opposite-Spin Scale   =       1.2000000000000000 [-]
	 SCS Same-Spin Energy      =      -0.1376213728127981 [Eh]
	 SCS Opposite-Spin Energy  =      -1.5826945240747181 [Eh]
	 SCS Correlation Energy    =      -1.7203158968875163 [Eh]
	 SCS Total Energy          =    -385.4866081153468258 [Eh]
	-----------------------------------------------------------

  Dipole Moment: [D]
     X:     0.4761      Y:    -1.2802      Z:    -0.0178     Total:     1.3660

*** Psi4 exiting successfully. Buy a developer a beer!
