                               Psi4 1.4a3.dev225

  ==> Input File <==

--------------------------------------------------------------------------
#psi4
#
memory 32 gb

molecule  {
0 1
  O        3.2216350    -0.1065060     0.2904990
  C       -0.9146420     0.0169590    -0.3639610
  C       -2.3923223     0.0316494    -0.5301509
  C       -0.1907600     1.2076380    -0.2374780
  C       -0.2138010    -1.1929940    -0.2539850
  C       -3.1413340    -0.0192130     0.8137010
  C        1.1888560     1.1991780    -0.0236810
  C        1.1619340    -1.2201410    -0.0407060
  C        1.8648900    -0.0185630     0.0807020
  H       -2.7091570     0.9353730    -1.0779940
  H       -2.7186560    -0.8212200    -1.1493620
  H       -0.7079800     2.1625600    -0.3214960
  H       -0.7531780    -2.1343060    -0.3521420
  H       -2.8726550    -0.9274190     1.3607640
  H       -4.2274440    -0.0080790     0.6778440
  H       -2.8630000     0.8390280     1.4320080
  H        1.7343360     2.1384520     0.0639930
  H        1.7070130    -2.1569100     0.0367280
  H        3.5799610     0.7963060     0.3524270
units angstrom
no_reorient  #important for SAPT in psi4, default
symmetry c1  #important for SAPT in psi4, default
}

set PROPERTIES_ORIGIN ["COM"]
properties('MP2/aug-cc-pvtz', properties = ['dipole'])
--------------------------------------------------------------------------

    Molecular point group: c1
  Charge       = 0
  Multiplicity = 1
  Basis Set: AUG-CC-PVTZ
    Blend: AUG-CC-PVTZ
  Basis Set: (AUG-CC-PVTZ AUX)
    Blend: AUG-CC-PVTZ-JKFIT

    Orbital Energies [Eh]
    ---------------------

    Doubly Occupied:

       1A    -20.589588     2A    -11.300045     3A    -11.238912
       4A    -11.237158     5A    -11.235121     6A    -11.231056
       7A    -11.228934     8A    -11.227575     9A    -11.215802
      10A     -1.397963    11A     -1.151292    12A     -1.058613
      13A     -1.017055    14A     -0.973849    15A     -0.862669
      16A     -0.842640    17A     -0.790472    18A     -0.727666
      19A     -0.672147    20A     -0.648386    21A     -0.612418
      22A     -0.595433    23A     -0.587631    24A     -0.585937
      25A     -0.568616    26A     -0.555687    27A     -0.521122
      28A     -0.498014    29A     -0.485126    30A     -0.476238
      31A     -0.466543    32A     -0.341014    33A     -0.304939

  @DF-RHF Final Energy:  -383.76562741408242

   => Energetics <=

    Nuclear Repulsion Energy =            418.3682283399010089
    One-Electron Energy =               -1349.7763884633232010
    Two-Electron Energy =                 547.6425327093397755
    Total Energy =                       -383.7656274140824735
  Basis Set: (AUG-CC-PVTZ AUX)
    Blend: AUG-CC-PVTZ-RI
    Molecular point group: c1

    Geometry (in Angstrom), charge = 0, multiplicity = 1:

       Center              X                  Y                   Z               Mass
    ------------   -----------------  -----------------  -----------------  -----------------
         O            3.139914016102    -0.099795578158     0.298604195685    15.994914619570
         C           -0.996362983898     0.023669421842    -0.355855804315    12.000000000000
         C           -2.474043283898     0.038359821842    -0.522045704315    12.000000000000
         C           -0.272480983898     1.214348421842    -0.229372804315    12.000000000000
         C           -0.295521983898    -1.186283578158    -0.245879804315    12.000000000000
         C           -3.223054983898    -0.012502578158     0.821806195685    12.000000000000
         C            1.107135016102     1.205888421842    -0.015575804315    12.000000000000
         C            1.080213016102    -1.213430578158    -0.032600804315    12.000000000000
         C            1.783169016102    -0.011852578158     0.088807195685    12.000000000000
         H           -2.790877983898     0.942083421842    -1.069888804315     1.007825032230
         H           -2.800376983898    -0.814509578158    -1.141256804315     1.007825032230
         H           -0.789700983898     2.169270421842    -0.313390804315     1.007825032230
         H           -0.834898983898    -2.127595578158    -0.344036804315     1.007825032230
         H           -2.954375983898    -0.920708578158     1.368869195685     1.007825032230
         H           -4.309164983898    -0.001368578158     0.685949195685     1.007825032230
         H           -2.944720983898     0.845738421842     1.440113195685     1.007825032230
         H            1.652615016102     2.145162421842     0.072098195685     1.007825032230
         H            1.625292016102    -2.150199578158     0.044833195685     1.007825032230
         H            3.498240016102     0.803016421842     0.360532195685     1.007825032230

  Basis Set: AUG-CC-PVTZ
    Blend: AUG-CC-PVTZ
  Basis Set: (AUG-CC-PVTZ AUX)
    Blend: AUG-CC-PVTZ-JKFIT
	 Reference Energy          =    -383.7656274140824166 [Eh]
	 Singles Energy            =      -0.0000000000000000 [Eh]
	 Same-Spin Energy          =      -0.4129421299453243 [Eh]
	 Opposite-Spin Energy      =      -1.3191628761020970 [Eh]
	 Correlation Energy        =      -1.7321050060474215 [Eh]
	 Total Energy              =    -385.4977324201298643 [Eh]

	 ================> DF-SCS-MP2 Energies <==================
	-----------------------------------------------------------
	 SCS Same-Spin Scale       =       0.3333333333333333 [-]
	 SCS Opposite-Spin Scale   =       1.2000000000000000 [-]
	 SCS Same-Spin Energy      =      -0.1376473766484414 [Eh]
	 SCS Opposite-Spin Energy  =      -1.5829954513225164 [Eh]
	 SCS Correlation Energy    =      -1.7206428279709578 [Eh]
	 SCS Total Energy          =    -385.4862702420533651 [Eh]
	-----------------------------------------------------------

  Dipole Moment: [D]
     X:    -0.4495      Y:     1.2738      Z:    -0.0030     Total:     1.3508

*** Psi4 exiting successfully. Buy a developer a beer!
