                               Psi4 1.3.2 release

  ==> Input File <==

--------------------------------------------------------------------------
#psi4
#
memory 32 gb

molecule  {
0 1
  O       -3.1417080     0.0705380     0.3169670
  C        0.9902420    -0.0039870    -0.3612050
  C        2.4869396    -0.0315069    -0.5405537
  C        0.2806140    -1.2015640    -0.2442060
  C        0.2591461     1.1823129    -0.2348128
  C        3.2312830    -0.0061060     0.7967240
  C       -1.0960700    -1.2065460    -0.0157640
  C       -1.0950530     1.2066380    -0.0091780
  C       -1.7865290     0.0017960     0.1015840
  H        2.7838010    -0.8823900    -1.1265120
  H        2.7835740     0.8731460    -1.1246690
  H        0.8095070    -2.1483250    -0.3363770
  H        0.8092330     2.1418130    -0.3228610
  H        2.9650580     0.8755680     1.3857970
  H        4.3169070    -0.0053560     0.6533480
  H        2.9660240    -0.8892340     1.3840690
  H       -1.6288030    -2.1532140     0.0657430
  H       -1.6431320     2.1402150     0.0795740
  H       -3.4941530    -0.8345020     0.3676020
units angstrom
no_reorient  #important for SAPT in psi4, default
symmetry c1  #important for SAPT in psi4, default
}

set PROPERTIES_ORIGIN ["COM"]
properties('MP2/aug-cc-pvtz', properties = ['dipole'])
--------------------------------------------------------------------------

    Molecular point group: c1
  Charge       = 0
  Multiplicity = 1
  Basis Set: AUG-CC-PVTZ
    Blend: AUG-CC-PVTZ
  Basis Set: (AUG-CC-PVTZ AUX)
    Blend: AUG-CC-PVTZ-JKFIT

    Orbital Energies [Eh]
    ---------------------

    Doubly Occupied:

       1A    -20.589595     2A    -11.299577     3A    -11.237455
       4A    -11.236312     5A    -11.233632     6A    -11.230551
       7A    -11.227684     8A    -11.226384     9A    -11.215452
      10A     -1.398743    11A     -1.152922    12A     -1.058428
      13A     -1.018474    14A     -0.975530    15A     -0.862535
      16A     -0.840710    17A     -0.793613    18A     -0.727211
      19A     -0.671765    20A     -0.648085    21A     -0.612346
      22A     -0.594590    23A     -0.587885    24A     -0.584159
      25A     -0.572116    26A     -0.555331    27A     -0.523739
      28A     -0.496417    29A     -0.483308    30A     -0.474655
      31A     -0.468735    32A     -0.342768    33A     -0.305214

  @DF-RHF Final Energy:  -383.76536592154548

   => Energetics <=

    Nuclear Repulsion Energy =            418.6318647521170533
    One-Electron Energy =               -1350.3026214436740702
    Two-Electron Energy =                 547.9053907700115360
    Total Energy =                       -383.7653659215454809
  Basis Set: (AUG-CC-PVTZ AUX)
    Blend: AUG-CC-PVTZ-RI
    Molecular point group: c1

    Geometry (in Angstrom), charge = 0, multiplicity = 1:

       Center              X                  Y                   Z               Mass
    ------------   -----------------  -----------------  -----------------  -----------------
         O           -3.139635593254     0.074375776914     0.316846888857    15.994914619570
         C            0.992314406746    -0.000149223086    -0.361325111143    12.000000000000
         C            2.489012006746    -0.027669123086    -0.540673811143    12.000000000000
         C            0.282686406746    -1.197726223086    -0.244326111143    12.000000000000
         C            0.261218506746     1.186150676914    -0.234932911143    12.000000000000
         C            3.233355406746    -0.002268223086     0.796603888857    12.000000000000
         C           -1.093997593254    -1.202708223086    -0.015884111143    12.000000000000
         C           -1.092980593254     1.210475776914    -0.009298111143    12.000000000000
         C           -1.784456593254     0.005633776914     0.101463888857    12.000000000000
         H            2.785873406746    -0.878552223086    -1.126632111143     1.007825032230
         H            2.785646406746     0.876983776914    -1.124789111143     1.007825032230
         H            0.811579406746    -2.144487223086    -0.336497111143     1.007825032230
         H            0.811305406746     2.145650776914    -0.322981111143     1.007825032230
         H            2.967130406746     0.879405776914     1.385676888857     1.007825032230
         H            4.318979406746    -0.001518223086     0.653227888857     1.007825032230
         H            2.968096406746    -0.885396223086     1.383948888857     1.007825032230
         H           -1.626730593254    -2.149376223086     0.065622888857     1.007825032230
         H           -1.641059593254     2.144052776914     0.079453888857     1.007825032230
         H           -3.492080593254    -0.830664223086     0.367481888857     1.007825032230

  Basis Set: AUG-CC-PVTZ
    Blend: AUG-CC-PVTZ
  Basis Set: (AUG-CC-PVTZ AUX)
    Blend: AUG-CC-PVTZ-JKFIT
	 Reference Energy          =    -383.7653659215454809 [Eh]
	 Singles Energy            =      -0.0000000000000000 [Eh]
	 Same-Spin Energy          =      -0.4127589713232732 [Eh]
	 Opposite-Spin Energy      =      -1.3186712166355279 [Eh]
	 Correlation Energy        =      -1.7314301879588010 [Eh]
	 Total Energy              =    -385.4967961095042597 [Eh]

	 ================> DF-SCS-MP2 Energies <==================
	-----------------------------------------------------------
	 SCS Same-Spin Scale       =       0.3333333333333333 [-]
	 SCS Opposite-Spin Scale   =       1.2000000000000000 [-]
	 SCS Same-Spin Energy      =      -0.1375863237744244 [Eh]
	 SCS Opposite-Spin Energy  =      -1.5824054599626334 [Eh]
	 SCS Correlation Energy    =      -1.7199917837370577 [Eh]
	 SCS Total Energy          =    -385.4853577052825244 [Eh]
	-----------------------------------------------------------

  Dipole Moment: [D]
     X:     0.4581      Y:    -1.2890      Z:    -0.0142     Total:     1.3680

*** Psi4 exiting successfully. Buy a developer a beer!
