                               Psi4 1.3.2 release

  ==> Input File <==

--------------------------------------------------------------------------
#psi4
#
memory 32 gb

molecule  {
0 1
  O       -3.1417080     0.0705380     0.3169670
  C        0.9902420    -0.0039870    -0.3612050
  C        2.4872910    -0.0052090    -0.5397260
  C        0.2806140    -1.2015640    -0.2442060
  C        0.2798770     1.1950560    -0.2368630
  C        3.2312830    -0.0061060     0.7967240
  C       -1.0548719    -1.1813681    -0.0224936
  C       -1.0539980     1.1814646    -0.0160249
  C       -1.7865290     0.0017960     0.1015840
  H        2.7838010    -0.8823900    -1.1265120
  H        2.7835740     0.8731460    -1.1246690
  H        0.8095070    -2.1483250    -0.3363770
  H        0.8092330     2.1418130    -0.3228610
  H        2.9650580     0.8755680     1.3857970
  H        4.3169070    -0.0053560     0.6533480
  H        2.9660240    -0.8892340     1.3840690
  H       -1.6288030    -2.1532140     0.0657430
  H       -1.6431320     2.1402150     0.0795740
  H       -3.4941530    -0.8345020     0.3676020
units angstrom
no_reorient  #important for SAPT in psi4, default
symmetry c1  #important for SAPT in psi4, default
}

set PROPERTIES_ORIGIN ["COM"]
properties('MP2/aug-cc-pvtz', properties = ['dipole'])
--------------------------------------------------------------------------

    Molecular point group: c1
  Charge       = 0
  Multiplicity = 1
  Basis Set: AUG-CC-PVTZ
    Blend: AUG-CC-PVTZ
  Basis Set: (AUG-CC-PVTZ AUX)
    Blend: AUG-CC-PVTZ-JKFIT

    Orbital Energies [Eh]
    ---------------------

    Doubly Occupied:

       1A    -20.593531     2A    -11.298739     3A    -11.234802
       4A    -11.231938     5A    -11.230766     6A    -11.229693
       7A    -11.227244     8A    -11.226554     9A    -11.215270
      10A     -1.400325    11A     -1.159516    12A     -1.058745
      13A     -1.024177    14A     -0.975830    15A     -0.864843
      16A     -0.836892    17A     -0.791580    18A     -0.732226
      19A     -0.676226    20A     -0.641259    21A     -0.609857
      22A     -0.593271    23A     -0.589632    24A     -0.583231
      25A     -0.572708    26A     -0.560158    27A     -0.524708
      28A     -0.492849    29A     -0.480505    30A     -0.474465
      31A     -0.469221    32A     -0.349484    33A     -0.303297

  @DF-RHF Final Energy:  -383.76016932943429

   => Energetics <=

    Nuclear Repulsion Energy =            419.7492091868107877
    One-Electron Energy =               -1352.5116746836199582
    Two-Electron Energy =                 549.0022961673749933
    Total Energy =                       -383.7601693294342340
  Basis Set: (AUG-CC-PVTZ AUX)
    Blend: AUG-CC-PVTZ-RI
    Molecular point group: c1

    Geometry (in Angstrom), charge = 0, multiplicity = 1:

       Center              X                  Y                   Z               Mass
    ------------   -----------------  -----------------  -----------------  -----------------
         O           -3.149793639050     0.070537537770     0.318301655759    15.994914619570
         C            0.982156360950    -0.003987462230    -0.359870344241    12.000000000000
         C            2.479205360950    -0.005209462230    -0.538391344241    12.000000000000
         C            0.272528360950    -1.201564462230    -0.242871344241    12.000000000000
         C            0.271791360950     1.195055537770    -0.235528344241    12.000000000000
         C            3.223197360950    -0.006106462230     0.798058655759    12.000000000000
         C           -1.062957539050    -1.181368562230    -0.021158944241    12.000000000000
         C           -1.062083639050     1.181464137770    -0.014690244241    12.000000000000
         C           -1.794614639050     0.001795537770     0.102918655759    12.000000000000
         H            2.775715360950    -0.882390462230    -1.125177344241     1.007825032230
         H            2.775488360950     0.873145537770    -1.123334344241     1.007825032230
         H            0.801421360950    -2.148325462230    -0.335042344241     1.007825032230
         H            0.801147360950     2.141812537770    -0.321526344241     1.007825032230
         H            2.956972360950     0.875567537770     1.387131655759     1.007825032230
         H            4.308821360950    -0.005356462230     0.654682655759     1.007825032230
         H            2.957938360950    -0.889234462230     1.385403655759     1.007825032230
         H           -1.636888639050    -2.153214462230     0.067077655759     1.007825032230
         H           -1.651217639050     2.140214537770     0.080908655759     1.007825032230
         H           -3.502238639050    -0.834502462230     0.368936655759     1.007825032230

  Basis Set: AUG-CC-PVTZ
    Blend: AUG-CC-PVTZ
  Basis Set: (AUG-CC-PVTZ AUX)
    Blend: AUG-CC-PVTZ-JKFIT
	 Reference Energy          =    -383.7601693294342908 [Eh]
	 Singles Energy            =      -0.0000000000000000 [Eh]
	 Same-Spin Energy          =      -0.4131362221850303 [Eh]
	 Opposite-Spin Energy      =      -1.3188796993372072 [Eh]
	 Correlation Energy        =      -1.7320159215222375 [Eh]
	 Total Energy              =    -385.4921852509565383 [Eh]

	 ================> DF-SCS-MP2 Energies <==================
	-----------------------------------------------------------
	 SCS Same-Spin Scale       =       0.3333333333333333 [-]
	 SCS Opposite-Spin Scale   =       1.2000000000000000 [-]
	 SCS Same-Spin Energy      =      -0.1377120740616768 [Eh]
	 SCS Opposite-Spin Energy  =      -1.5826556392046485 [Eh]
	 SCS Correlation Energy    =      -1.7203677132663253 [Eh]
	 SCS Total Energy          =    -385.4805370427006324 [Eh]
	-----------------------------------------------------------

  Dipole Moment: [D]
     X:     0.4375      Y:    -1.2757      Z:    -0.0165     Total:     1.3487

*** Psi4 exiting successfully. Buy a developer a beer!
