                               Psi4 1.3.2 release

  ==> Input File <==

--------------------------------------------------------------------------
#psi4
#
memory 32 gb

molecule  {
0 1
  O       -3.1417080     0.0705380     0.3169670
  C        1.0512140     0.0353969    -0.3710775
  C        2.4872910    -0.0052090    -0.5397260
  C        0.2806140    -1.2015640    -0.2442060
  C        0.2798770     1.1950560    -0.2368630
  C        3.2312830    -0.0061060     0.7967240
  C       -1.0960700    -1.2065460    -0.0157640
  C       -1.0925046     1.2795592    -0.0091899
  C       -1.7865290     0.0017960     0.1015840
  H        2.7838010    -0.8823900    -1.1265120
  H        2.7835740     0.8731460    -1.1246690
  H        0.8095070    -2.1483250    -0.3363770
  H        0.8092330     2.1418130    -0.3228610
  H        2.9650580     0.8755680     1.3857970
  H        4.3169070    -0.0053560     0.6533480
  H        2.9660240    -0.8892340     1.3840690
  H       -1.6288030    -2.1532140     0.0657430
  H       -1.6431320     2.1402150     0.0795740
  H       -3.4941530    -0.8345020     0.3676020
units angstrom
no_reorient  #important for SAPT in psi4, default
symmetry c1  #important for SAPT in psi4, default
}

set PROPERTIES_ORIGIN ["COM"]
properties('MP2/aug-cc-pvtz', properties = ['dipole'])
--------------------------------------------------------------------------

    Molecular point group: c1
  Charge       = 0
  Multiplicity = 1
  Basis Set: AUG-CC-PVTZ
    Blend: AUG-CC-PVTZ
  Basis Set: (AUG-CC-PVTZ AUX)
    Blend: AUG-CC-PVTZ-JKFIT

    Orbital Energies [Eh]
    ---------------------

    Doubly Occupied:

       1A    -20.591516     2A    -11.308251     3A    -11.246478
       4A    -11.236969     5A    -11.235019     6A    -11.234625
       7A    -11.229940     8A    -11.224990     9A    -11.215897
      10A     -1.399815    11A     -1.143027    12A     -1.063195
      13A     -1.015927    14A     -0.968520    15A     -0.866648
      16A     -0.839193    17A     -0.795195    18A     -0.723979
      19A     -0.673340    20A     -0.659338    21A     -0.611423
      22A     -0.598451    23A     -0.587505    24A     -0.584778
      25A     -0.568373    26A     -0.554825    27A     -0.527590
      28A     -0.498430    29A     -0.494404    30A     -0.465818
      31A     -0.461264    32A     -0.342472    33A     -0.294641

  @DF-RHF Final Energy:  -383.75017659942125

   => Energetics <=

    Nuclear Repulsion Energy =            416.7323853983778577
    One-Electron Energy =               -1346.4414489512746513
    Two-Electron Energy =                 545.9588869534755986
    Total Energy =                       -383.7501765994212519
  Basis Set: (AUG-CC-PVTZ AUX)
    Blend: AUG-CC-PVTZ-RI
    Molecular point group: c1

    Geometry (in Angstrom), charge = 0, multiplicity = 1:

       Center              X                  Y                   Z               Mass
    ------------   -----------------  -----------------  -----------------  -----------------
         O           -3.147952182739     0.059498197547     0.317938716042    15.994914619570
         C            1.044969817261     0.024357097547    -0.370105783958    12.000000000000
         C            2.481046817261    -0.016248802453    -0.538754283958    12.000000000000
         C            0.274369817261    -1.212603802453    -0.243234283958    12.000000000000
         C            0.273632817261     1.184016197547    -0.235891283958    12.000000000000
         C            3.225038817261    -0.017145802453     0.797695716042    12.000000000000
         C           -1.102314182739    -1.217585802453    -0.014792283958    12.000000000000
         C           -1.098748782739     1.268519397547    -0.008218183958    12.000000000000
         C           -1.792773182739    -0.009243802453     0.102555716042    12.000000000000
         H            2.777556817261    -0.893429802453    -1.125540283958     1.007825032230
         H            2.777329817261     0.862106197547    -1.123697283958     1.007825032230
         H            0.803262817261    -2.159364802453    -0.335405283958     1.007825032230
         H            0.802988817261     2.130773197547    -0.321889283958     1.007825032230
         H            2.958813817261     0.864528197547     1.386768716042     1.007825032230
         H            4.310662817261    -0.016395802453     0.654319716042     1.007825032230
         H            2.959779817261    -0.900273802453     1.385040716042     1.007825032230
         H           -1.635047182739    -2.164253802453     0.066714716042     1.007825032230
         H           -1.649376182739     2.129175197547     0.080545716042     1.007825032230
         H           -3.500397182739    -0.845541802453     0.368573716042     1.007825032230

  Basis Set: AUG-CC-PVTZ
    Blend: AUG-CC-PVTZ
  Basis Set: (AUG-CC-PVTZ AUX)
    Blend: AUG-CC-PVTZ-JKFIT
	 Reference Energy          =    -383.7501765994212519 [Eh]
	 Singles Energy            =      -0.0000000000000000 [Eh]
	 Same-Spin Energy          =      -0.4136923777301222 [Eh]
	 Opposite-Spin Energy      =      -1.3209849668824345 [Eh]
	 Correlation Energy        =      -1.7346773446125567 [Eh]
	 Total Energy              =    -385.4848539440338300 [Eh]

	 ================> DF-SCS-MP2 Energies <==================
	-----------------------------------------------------------
	 SCS Same-Spin Scale       =       0.3333333333333333 [-]
	 SCS Opposite-Spin Scale   =       1.2000000000000000 [-]
	 SCS Same-Spin Energy      =      -0.1378974592433740 [Eh]
	 SCS Opposite-Spin Energy  =      -1.5851819602589214 [Eh]
	 SCS Correlation Energy    =      -1.7230794195022954 [Eh]
	 SCS Total Energy          =    -385.4732560189235642 [Eh]
	-----------------------------------------------------------

  Dipole Moment: [D]
     X:     0.4496      Y:    -1.3005      Z:    -0.0038     Total:     1.3760

*** Psi4 exiting successfully. Buy a developer a beer!
