                               Psi4 1.3.2 release

  ==> Input File <==

--------------------------------------------------------------------------
#psi4
#
memory 32 gb

molecule  {
0 1
  O       -3.1417080     0.0705380     0.3169670
  C        0.9902420    -0.0039870    -0.3612050
  C        2.4872652    -0.0183608    -0.5393675
  C        0.2910418    -1.2077861    -0.2452816
  C        0.2798770     1.1950560    -0.2368630
  C        3.2312830    -0.0061060     0.7967240
  C       -1.0960700    -1.2065460    -0.0157640
  C       -1.0950530     1.2066380    -0.0091780
  C       -1.7865290     0.0017960     0.1015840
  H        2.7838010    -0.8823900    -1.1265120
  H        2.7835740     0.8731460    -1.1246690
  H        0.8095070    -2.1483250    -0.3363770
  H        0.8092330     2.1418130    -0.3228610
  H        2.9650580     0.8755680     1.3857970
  H        4.3169070    -0.0053560     0.6533480
  H        2.9660240    -0.8892340     1.3840690
  H       -1.6288030    -2.1532140     0.0657430
  H       -1.6431320     2.1402150     0.0795740
  H       -3.4941530    -0.8345020     0.3676020
units angstrom
no_reorient  #important for SAPT in psi4, default
symmetry c1  #important for SAPT in psi4, default
}

set PROPERTIES_ORIGIN ["COM"]
properties('MP2/aug-cc-pvtz', properties = ['dipole'])
--------------------------------------------------------------------------

    Molecular point group: c1
  Charge       = 0
  Multiplicity = 1
  Basis Set: AUG-CC-PVTZ
    Blend: AUG-CC-PVTZ
  Basis Set: (AUG-CC-PVTZ AUX)
    Blend: AUG-CC-PVTZ-JKFIT

    Orbital Energies [Eh]
    ---------------------

    Doubly Occupied:

       1A    -20.589316     2A    -11.299309     3A    -11.238159
       4A    -11.236684     5A    -11.235462     6A    -11.231228
       7A    -11.228714     8A    -11.226842     9A    -11.215192
      10A     -1.398482    11A     -1.150269    12A     -1.057906
      13A     -1.015777    14A     -0.975703    15A     -0.861714
      16A     -0.843387    17A     -0.791286    18A     -0.728564
      19A     -0.671012    20A     -0.647530    21A     -0.614740
      22A     -0.595603    23A     -0.587931    24A     -0.585663
      25A     -0.569756    26A     -0.554983    27A     -0.523065
      28A     -0.499331    29A     -0.480649    30A     -0.476768
      31A     -0.467385    32A     -0.339411    33A     -0.306257

  @DF-RHF Final Energy:  -383.76619028190794

   => Energetics <=

    Nuclear Repulsion Energy =            418.1746540057581001
    One-Electron Energy =               -1349.3935327309848162
    Two-Electron Energy =                 547.4526884433187206
    Total Energy =                       -383.7661902819079387
  Basis Set: (AUG-CC-PVTZ AUX)
    Blend: AUG-CC-PVTZ-RI
    Molecular point group: c1

    Geometry (in Angstrom), charge = 0, multiplicity = 1:

       Center              X                  Y                   Z               Mass
    ------------   -----------------  -----------------  -----------------  -----------------
         O           -3.142730553560     0.072442467491     0.317037554840    15.994914619570
         C            0.989219446440    -0.002082532509    -0.361134445160    12.000000000000
         C            2.486242646440    -0.016456332509    -0.539296945160    12.000000000000
         C            0.290019246440    -1.205881632509    -0.245211045160    12.000000000000
         C            0.278854446440     1.196960467491    -0.236792445160    12.000000000000
         C            3.230260446440    -0.004201532509     0.796794554840    12.000000000000
         C           -1.097092553560    -1.204641532509    -0.015693445160    12.000000000000
         C           -1.096075553560     1.208542467491    -0.009107445160    12.000000000000
         C           -1.787551553560     0.003700467491     0.101654554840    12.000000000000
         H            2.782778446440    -0.880485532509    -1.126441445160     1.007825032230
         H            2.782551446440     0.875050467491    -1.124598445160     1.007825032230
         H            0.808484446440    -2.146420532509    -0.336306445160     1.007825032230
         H            0.808210446440     2.143717467491    -0.322790445160     1.007825032230
         H            2.964035446440     0.877472467491     1.385867554840     1.007825032230
         H            4.315884446440    -0.003451532509     0.653418554840     1.007825032230
         H            2.965001446440    -0.887329532509     1.384139554840     1.007825032230
         H           -1.629825553560    -2.151309532509     0.065813554840     1.007825032230
         H           -1.644154553560     2.142119467491     0.079644554840     1.007825032230
         H           -3.495175553560    -0.832597532509     0.367672554840     1.007825032230

  Basis Set: AUG-CC-PVTZ
    Blend: AUG-CC-PVTZ
  Basis Set: (AUG-CC-PVTZ AUX)
    Blend: AUG-CC-PVTZ-JKFIT
	 Reference Energy          =    -383.7661902819079387 [Eh]
	 Singles Energy            =      -0.0000000000000000 [Eh]
	 Same-Spin Energy          =      -0.4127552428868511 [Eh]
	 Opposite-Spin Energy      =      -1.3188351612972744 [Eh]
	 Correlation Energy        =      -1.7315904041841255 [Eh]
	 Total Energy              =    -385.4977806860920850 [Eh]

	 ================> DF-SCS-MP2 Energies <==================
	-----------------------------------------------------------
	 SCS Same-Spin Scale       =       0.3333333333333333 [-]
	 SCS Opposite-Spin Scale   =       1.2000000000000000 [-]
	 SCS Same-Spin Energy      =      -0.1375850809622837 [Eh]
	 SCS Opposite-Spin Energy  =      -1.5826021935567292 [Eh]
	 SCS Correlation Energy    =      -1.7201872745190128 [Eh]
	 SCS Total Energy          =    -385.4863775564269304 [Eh]
	-----------------------------------------------------------

  Dipole Moment: [D]
     X:     0.4659      Y:    -1.2783      Z:    -0.0195     Total:     1.3607

*** Psi4 exiting successfully. Buy a developer a beer!
