                               Psi4 1.3.2 release

  ==> Input File <==

--------------------------------------------------------------------------
#psi4
#
memory 32 gb

molecule  {
0 1
  O       -3.1417080     0.0705380     0.3169670
  C        0.9902420    -0.0039870    -0.3612050
  C        2.4872910    -0.0052090    -0.5397260
  C        0.2198147    -1.1622829    -0.2337545
  C        0.2189656     1.1556705    -0.2266293
  C        3.2312830    -0.0061060     0.7967240
  C       -1.0960700    -1.2065460    -0.0157640
  C       -1.0950530     1.2066380    -0.0091780
  C       -1.7865290     0.0017960     0.1015840
  H        2.7838010    -0.8823900    -1.1265120
  H        2.7835740     0.8731460    -1.1246690
  H        0.8095070    -2.1483250    -0.3363770
  H        0.8092330     2.1418130    -0.3228610
  H        2.9650580     0.8755680     1.3857970
  H        4.3169070    -0.0053560     0.6533480
  H        2.9660240    -0.8892340     1.3840690
  H       -1.6288030    -2.1532140     0.0657430
  H       -1.6431320     2.1402150     0.0795740
  H       -3.4941530    -0.8345020     0.3676020
units angstrom
no_reorient  #important for SAPT in psi4, default
symmetry c1  #important for SAPT in psi4, default
}

set PROPERTIES_ORIGIN ["COM"]
properties('MP2/aug-cc-pvtz', properties = ['dipole'])
--------------------------------------------------------------------------

    Molecular point group: c1
  Charge       = 0
  Multiplicity = 1
  Basis Set: AUG-CC-PVTZ
    Blend: AUG-CC-PVTZ
  Basis Set: (AUG-CC-PVTZ AUX)
    Blend: AUG-CC-PVTZ-JKFIT

    Orbital Energies [Eh]
    ---------------------

    Doubly Occupied:

       1A    -20.590877     2A    -11.300873     3A    -11.236539
       4A    -11.234502     5A    -11.230349     6A    -11.228452
       7A    -11.227032     8A    -11.219973     9A    -11.215814
      10A     -1.399994    11A     -1.163167    12A     -1.060086
      13A     -1.029265    14A     -0.975729    15A     -0.864413
      16A     -0.832829    17A     -0.799039    18A     -0.725863
      19A     -0.678310    20A     -0.647186    21A     -0.605568
      22A     -0.593166    23A     -0.587092    24A     -0.583770
      25A     -0.573621    26A     -0.555026    27A     -0.526078
      28A     -0.491062    29A     -0.489438    30A     -0.477046
      31A     -0.460173    32A     -0.354542    33A     -0.302039

  @DF-RHF Final Energy:  -383.75274151996541

   => Energetics <=

    Nuclear Repulsion Energy =            420.2768717028724836
    One-Electron Energy =               -1353.5413983079909030
    Two-Electron Energy =                 549.5117850851529511
    Total Energy =                       -383.7527415199654115
  Basis Set: (AUG-CC-PVTZ AUX)
    Blend: AUG-CC-PVTZ-RI
    Molecular point group: c1

    Geometry (in Angstrom), charge = 0, multiplicity = 1:

       Center              X                  Y                   Z               Mass
    ------------   -----------------  -----------------  -----------------  -----------------
         O           -3.129743650167     0.070548242826     0.314933672303    15.994914619570
         C            1.002206349833    -0.003976757174    -0.363238327697    12.000000000000
         C            2.499255349833    -0.005198757174    -0.541759327697    12.000000000000
         C            0.231779049833    -1.162272657174    -0.235787827697    12.000000000000
         C            0.230929949833     1.155680742826    -0.228662627697    12.000000000000
         C            3.243247349833    -0.006095757174     0.794690672303    12.000000000000
         C           -1.084105650167    -1.206535757174    -0.017797327697    12.000000000000
         C           -1.083088650167     1.206648242826    -0.011211327697    12.000000000000
         C           -1.774564650167     0.001806242826     0.099550672303    12.000000000000
         H            2.795765349833    -0.882379757174    -1.128545327697     1.007825032230
         H            2.795538349833     0.873156242826    -1.126702327697     1.007825032230
         H            0.821471349833    -2.148314757174    -0.338410327697     1.007825032230
         H            0.821197349833     2.141823242826    -0.324894327697     1.007825032230
         H            2.977022349833     0.875578242826     1.383763672303     1.007825032230
         H            4.328871349833    -0.005345757174     0.651314672303     1.007825032230
         H            2.977988349833    -0.889223757174     1.382035672303     1.007825032230
         H           -1.616838650167    -2.153203757174     0.063709672303     1.007825032230
         H           -1.631167650167     2.140225242826     0.077540672303     1.007825032230
         H           -3.482188650167    -0.834491757174     0.365568672303     1.007825032230

  Basis Set: AUG-CC-PVTZ
    Blend: AUG-CC-PVTZ
  Basis Set: (AUG-CC-PVTZ AUX)
    Blend: AUG-CC-PVTZ-JKFIT
	 Reference Energy          =    -383.7527415199654115 [Eh]
	 Singles Energy            =      -0.0000000000000000 [Eh]
	 Same-Spin Energy          =      -0.4131097704263650 [Eh]
	 Opposite-Spin Energy      =      -1.3188282055680340 [Eh]
	 Correlation Energy        =      -1.7319379759943989 [Eh]
	 Total Energy              =    -385.4846794959598242 [Eh]

	 ================> DF-SCS-MP2 Energies <==================
	-----------------------------------------------------------
	 SCS Same-Spin Scale       =       0.3333333333333333 [-]
	 SCS Opposite-Spin Scale   =       1.2000000000000000 [-]
	 SCS Same-Spin Energy      =      -0.1377032568087883 [Eh]
	 SCS Opposite-Spin Energy  =      -1.5825938466816407 [Eh]
	 SCS Correlation Energy    =      -1.7202971034904291 [Eh]
	 SCS Total Energy          =    -385.4730386234558637 [Eh]
	-----------------------------------------------------------

  Dipole Moment: [D]
     X:     0.4116      Y:    -1.2814      Z:     0.0016     Total:     1.3459

*** Psi4 exiting successfully. Buy a developer a beer!
