                               Psi4 1.3.2 release

  ==> Input File <==

--------------------------------------------------------------------------
#psi4
#
memory 32 gb

molecule  {
0 1
  O       -3.1417080     0.0705380     0.3169670
  C        0.9485327    -0.0284243    -0.3542475
  C        2.4872910    -0.0052090    -0.5397260
  C        0.2806140    -1.2015640    -0.2442060
  C        0.2798770     1.1950560    -0.2368630
  C        3.2312830    -0.0061060     0.7967240
  C       -1.0960700    -1.2065460    -0.0157640
  C       -1.0950530     1.2066380    -0.0091780
  C       -1.7865290     0.0017960     0.1015840
  H        2.7838010    -0.8823900    -1.1265120
  H        2.7835740     0.8731460    -1.1246690
  H        0.8095070    -2.1483250    -0.3363770
  H        0.7763417     2.1599522    -0.3172390
  H        2.9650580     0.8755680     1.3857970
  H        4.3169070    -0.0053560     0.6533480
  H        2.9660240    -0.8892340     1.3840690
  H       -1.6288030    -2.1532140     0.0657430
  H       -1.6431320     2.1402150     0.0795740
  H       -3.4941530    -0.8345020     0.3676020
units angstrom
no_reorient  #important for SAPT in psi4, default
symmetry c1  #important for SAPT in psi4, default
}

set PROPERTIES_ORIGIN ["COM"]
properties('MP2/aug-cc-pvtz', properties = ['dipole'])
--------------------------------------------------------------------------

    Molecular point group: c1
  Charge       = 0
  Multiplicity = 1
  Basis Set: AUG-CC-PVTZ
    Blend: AUG-CC-PVTZ
  Basis Set: (AUG-CC-PVTZ AUX)
    Blend: AUG-CC-PVTZ-JKFIT

    Orbital Energies [Eh]
    ---------------------

    Doubly Occupied:

       1A    -20.588878     2A    -11.298663     3A    -11.236793
       4A    -11.234268     5A    -11.232795     6A    -11.228710
       7A    -11.228340     8A    -11.227893     9A    -11.214363
      10A     -1.398128    11A     -1.154792    12A     -1.052642
      13A     -1.019194    14A     -0.977257    15A     -0.857989
      16A     -0.844498    17A     -0.791831    18A     -0.728868
      19A     -0.673588    20A     -0.644043    21A     -0.612226
      22A     -0.597825    23A     -0.589407    24A     -0.586144
      25A     -0.566706    26A     -0.556345    27A     -0.521089
      28A     -0.499612    29A     -0.482418    30A     -0.471581
      31A     -0.466805    32A     -0.341139    33A     -0.309035

  @DF-RHF Final Energy:  -383.76432097178900

   => Energetics <=

    Nuclear Repulsion Energy =            418.6337614138333265
    One-Electron Energy =               -1350.3284323212246818
    Two-Electron Energy =                 547.9303499356024076
    Total Energy =                       -383.7643209717889476
  Basis Set: (AUG-CC-PVTZ AUX)
    Blend: AUG-CC-PVTZ-RI
    Molecular point group: c1

    Geometry (in Angstrom), charge = 0, multiplicity = 1:

       Center              X                  Y                   Z               Mass
    ------------   -----------------  -----------------  -----------------  -----------------
         O           -3.137336376422     0.072790452736     0.316236713866    15.994914619570
         C            0.952904323578    -0.026171847264    -0.354977786134    12.000000000000
         C            2.491662623578    -0.002956547264    -0.540456286134    12.000000000000
         C            0.284985623578    -1.199311547264    -0.244936286134    12.000000000000
         C            0.284248623578     1.197308452736    -0.237593286134    12.000000000000
         C            3.235654623578    -0.003853547264     0.795993713866    12.000000000000
         C           -1.091698376422    -1.204293547264    -0.016494286134    12.000000000000
         C           -1.090681376422     1.208890452736    -0.009908286134    12.000000000000
         C           -1.782157376422     0.004048452736     0.100853713866    12.000000000000
         H            2.788172623578    -0.880137547264    -1.127242286134     1.007825032230
         H            2.787945623578     0.875398452736    -1.125399286134     1.007825032230
         H            0.813878623578    -2.146072547264    -0.337107286134     1.007825032230
         H            0.780713323578     2.162204652736    -0.317969286134     1.007825032230
         H            2.969429623578     0.877820452736     1.385066713866     1.007825032230
         H            4.321278623578    -0.003103547264     0.652617713866     1.007825032230
         H            2.970395623578    -0.886981547264     1.383338713866     1.007825032230
         H           -1.624431376422    -2.150961547264     0.065012713866     1.007825032230
         H           -1.638760376422     2.142467452736     0.078843713866     1.007825032230
         H           -3.489781376422    -0.832249547264     0.366871713866     1.007825032230

  Basis Set: AUG-CC-PVTZ
    Blend: AUG-CC-PVTZ
  Basis Set: (AUG-CC-PVTZ AUX)
    Blend: AUG-CC-PVTZ-JKFIT
	 Reference Energy          =    -383.7643209717890045 [Eh]
	 Singles Energy            =      -0.0000000000000000 [Eh]
	 Same-Spin Energy          =      -0.4123988737806248 [Eh]
	 Opposite-Spin Energy      =      -1.3182998985563605 [Eh]
	 Correlation Energy        =      -1.7306987723369853 [Eh]
	 Total Energy              =    -385.4950197441260116 [Eh]

	 ================> DF-SCS-MP2 Energies <==================
	-----------------------------------------------------------
	 SCS Same-Spin Scale       =       0.3333333333333333 [-]
	 SCS Opposite-Spin Scale   =       1.2000000000000000 [-]
	 SCS Same-Spin Energy      =      -0.1374662912602083 [Eh]
	 SCS Opposite-Spin Energy  =      -1.5819598782676325 [Eh]
	 SCS Correlation Energy    =      -1.7194261695278408 [Eh]
	 SCS Total Energy          =    -385.4837471413168259 [Eh]
	-----------------------------------------------------------

  Dipole Moment: [D]
     X:     0.4175      Y:    -1.2420      Z:    -0.0201     Total:     1.3104

*** Psi4 exiting successfully. Buy a developer a beer!
