                               Psi4 1.3.2 release

  ==> Input File <==

--------------------------------------------------------------------------
#psi4
#
memory 32 gb

molecule  {
0 1
  O       -3.1417080     0.0705380     0.3169670
  C        1.0510965    -0.0432687    -0.3713279
  C        2.4872910    -0.0052090    -0.5397260
  C        0.2806140    -1.2015640    -0.2442060
  C        0.2798770     1.1950560    -0.2368630
  C        3.2312830    -0.0061060     0.7967240
  C       -1.0939335    -1.2795744    -0.0161646
  C       -1.0950530     1.2066380    -0.0091780
  C       -1.7865290     0.0017960     0.1015840
  H        2.7838010    -0.8823900    -1.1265120
  H        2.7835740     0.8731460    -1.1246690
  H        0.8095070    -2.1483250    -0.3363770
  H        0.8092330     2.1418130    -0.3228610
  H        2.9650580     0.8755680     1.3857970
  H        4.3169070    -0.0053560     0.6533480
  H        2.9660240    -0.8892340     1.3840690
  H       -1.6288030    -2.1532140     0.0657430
  H       -1.6431320     2.1402150     0.0795740
  H       -3.4941530    -0.8345020     0.3676020
units angstrom
no_reorient  #important for SAPT in psi4, default
symmetry c1  #important for SAPT in psi4, default
}

set PROPERTIES_ORIGIN ["COM"]
properties('MP2/aug-cc-pvtz', properties = ['dipole'])
--------------------------------------------------------------------------

    Molecular point group: c1
  Charge       = 0
  Multiplicity = 1
  Basis Set: AUG-CC-PVTZ
    Blend: AUG-CC-PVTZ
  Basis Set: (AUG-CC-PVTZ AUX)
    Blend: AUG-CC-PVTZ-JKFIT

    Orbital Energies [Eh]
    ---------------------

    Doubly Occupied:

       1A    -20.591548     2A    -11.308664     3A    -11.244957
       4A    -11.238936     5A    -11.235459     6A    -11.234292
       7A    -11.228187     8A    -11.224919     9A    -11.215862
      10A     -1.399881    11A     -1.143067    12A     -1.063218
      13A     -1.016475    14A     -0.968284    15A     -0.868364
      16A     -0.841273    17A     -0.787666    18A     -0.726591
      19A     -0.674456    20A     -0.655835    21A     -0.616536
      22A     -0.598640    23A     -0.587390    24A     -0.585125
      25A     -0.569782    26A     -0.551117    27A     -0.529036
      28A     -0.500106    29A     -0.492658    30A     -0.464674
      31A     -0.461176    32A     -0.341663    33A     -0.295550

  @DF-RHF Final Energy:  -383.75038784966068

   => Energetics <=

    Nuclear Repulsion Energy =            416.7421442610519762
    One-Electron Energy =               -1346.4622923286769947
    Two-Electron Energy =                 545.9697602179643354
    Total Energy =                       -383.7503878496606831
  Basis Set: (AUG-CC-PVTZ AUX)
    Blend: AUG-CC-PVTZ-RI
    Molecular point group: c1

    Geometry (in Angstrom), charge = 0, multiplicity = 1:

       Center              X                  Y                   Z               Mass
    ------------   -----------------  -----------------  -----------------  -----------------
         O           -3.147900141817     0.081578254218     0.318001540660    15.994914619570
         C            1.044904358183    -0.032228445782    -0.370293359340    12.000000000000
         C            2.481098858183     0.005831254218    -0.538691459340    12.000000000000
         C            0.274421858183    -1.190523745782    -0.243171459340    12.000000000000
         C            0.273684858183     1.206096254218    -0.235828459340    12.000000000000
         C            3.225090858183     0.004934254218     0.797758540660    12.000000000000
         C           -1.100125641817    -1.268534145782    -0.015130059340    12.000000000000
         C           -1.101245141817     1.217678254218    -0.008143459340    12.000000000000
         C           -1.792721141817     0.012836254218     0.102618540660    12.000000000000
         H            2.777608858183    -0.871349745782    -1.125477459340     1.007825032230
         H            2.777381858183     0.884186254218    -1.123634459340     1.007825032230
         H            0.803314858183    -2.137284745782    -0.335342459340     1.007825032230
         H            0.803040858183     2.152853254218    -0.321826459340     1.007825032230
         H            2.958865858183     0.886608254218     1.386831540660     1.007825032230
         H            4.310714858183     0.005684254218     0.654382540660     1.007825032230
         H            2.959831858183    -0.878193745782     1.385103540660     1.007825032230
         H           -1.634995141817    -2.142173745782     0.066777540660     1.007825032230
         H           -1.649324141817     2.151255254218     0.080608540660     1.007825032230
         H           -3.500345141817    -0.823461745782     0.368636540660     1.007825032230

  Basis Set: AUG-CC-PVTZ
    Blend: AUG-CC-PVTZ
  Basis Set: (AUG-CC-PVTZ AUX)
    Blend: AUG-CC-PVTZ-JKFIT
	 Reference Energy          =    -383.7503878496606831 [Eh]
	 Singles Energy            =      -0.0000000000000000 [Eh]
	 Same-Spin Energy          =      -0.4136080724441212 [Eh]
	 Opposite-Spin Energy      =      -1.3208999396289303 [Eh]
	 Correlation Energy        =      -1.7345080120730514 [Eh]
	 Total Energy              =    -385.4848958617337189 [Eh]

	 ================> DF-SCS-MP2 Energies <==================
	-----------------------------------------------------------
	 SCS Same-Spin Scale       =       0.3333333333333333 [-]
	 SCS Opposite-Spin Scale   =       1.2000000000000000 [-]
	 SCS Same-Spin Energy      =      -0.1378693574813737 [Eh]
	 SCS Opposite-Spin Energy  =      -1.5850799275547163 [Eh]
	 SCS Correlation Energy    =      -1.7229492850360899 [Eh]
	 SCS Total Energy          =    -385.4733371346967488 [Eh]
	-----------------------------------------------------------

  Dipole Moment: [D]
     X:     0.4394      Y:    -1.2414      Z:    -0.0018     Total:     1.3169

*** Psi4 exiting successfully. Buy a developer a beer!
