                               Psi4 1.3.2 release

  ==> Input File <==

--------------------------------------------------------------------------
#psi4
#
memory 32 gb

molecule  {
0 1
  O       -3.1417080     0.0705380     0.3169670
  C        0.9902420    -0.0039870    -0.3612050
  C        2.4872910    -0.0052090    -0.5397260
  C        0.2806140    -1.2015640    -0.2442060
  C        0.2798770     1.1950560    -0.2368630
  C        3.2312830    -0.0061060     0.7967240
  C       -1.0960700    -1.2065460    -0.0157640
  C       -1.0950530     1.2066380    -0.0091780
  C       -1.7879419    -0.0221411     0.1016686
  H        2.7838010    -0.8823900    -1.1265120
  H        2.7835740     0.8731460    -1.1246690
  H        0.8095070    -2.1483250    -0.3363770
  H        0.8092330     2.1418130    -0.3228610
  H        2.9650580     0.8755680     1.3857970
  H        4.3169070    -0.0053560     0.6533480
  H        2.9660240    -0.8892340     1.3840690
  H       -1.6288030    -2.1532140     0.0657430
  H       -1.6431320     2.1402150     0.0795740
  H       -3.4785046    -0.8405776     0.3650842
units angstrom
no_reorient  #important for SAPT in psi4, default
symmetry c1  #important for SAPT in psi4, default
}

set PROPERTIES_ORIGIN ["COM"]
properties('MP2/aug-cc-pvtz', properties = ['dipole'])
--------------------------------------------------------------------------

    Molecular point group: c1
  Charge       = 0
  Multiplicity = 1
  Basis Set: AUG-CC-PVTZ
    Blend: AUG-CC-PVTZ
  Basis Set: (AUG-CC-PVTZ AUX)
    Blend: AUG-CC-PVTZ-JKFIT

    Orbital Energies [Eh]
    ---------------------

    Doubly Occupied:

       1A    -20.590734     2A    -11.299217     3A    -11.238049
       4A    -11.236178     5A    -11.232638     6A    -11.231128
       7A    -11.230609     8A    -11.227126     9A    -11.215301
      10A     -1.400320    11A     -1.151115    12A     -1.058123
      13A     -1.016606    14A     -0.975531    15A     -0.860780
      16A     -0.844126    17A     -0.791257    18A     -0.726787
      19A     -0.674004    20A     -0.645762    21A     -0.612302
      22A     -0.596312    23A     -0.587727    24A     -0.586547
      25A     -0.568579    26A     -0.558001    27A     -0.523448
      28A     -0.498286    29A     -0.480067    30A     -0.478128
      31A     -0.468410    32A     -0.340959    33A     -0.305672

  @DF-RHF Final Energy:  -383.76573168570002

   => Energetics <=

    Nuclear Repulsion Energy =            418.3432870203261587
    One-Electron Energy =               -1349.7183829816206071
    Two-Electron Energy =                 547.6093642755943165
    Total Energy =                       -383.7657316857000751
  Basis Set: (AUG-CC-PVTZ AUX)
    Blend: AUG-CC-PVTZ-RI
    Molecular point group: c1

    Geometry (in Angstrom), charge = 0, multiplicity = 1:

       Center              X                  Y                   Z               Mass
    ------------   -----------------  -----------------  -----------------  -----------------
         O           -3.141698320548     0.072941197427     0.316979533095    15.994914619570
         C            0.990251679452    -0.001583802573    -0.361192466905    12.000000000000
         C            2.487300679452    -0.002805802573    -0.539713466905    12.000000000000
         C            0.280623679452    -1.199160802573    -0.244193466905    12.000000000000
         C            0.279886679452     1.197459197427    -0.236850466905    12.000000000000
         C            3.231292679452    -0.003702802573     0.796736533095    12.000000000000
         C           -1.096060320548    -1.204142802573    -0.015751466905    12.000000000000
         C           -1.095043320548     1.209041197427    -0.009165466905    12.000000000000
         C           -1.787932220548    -0.019737902573     0.101681133095    12.000000000000
         H            2.783810679452    -0.879986802573    -1.126499466905     1.007825032230
         H            2.783583679452     0.875549197427    -1.124656466905     1.007825032230
         H            0.809516679452    -2.145921802573    -0.336364466905     1.007825032230
         H            0.809242679452     2.144216197427    -0.322848466905     1.007825032230
         H            2.965067679452     0.877971197427     1.385809533095     1.007825032230
         H            4.316916679452    -0.002952802573     0.653360533095     1.007825032230
         H            2.966033679452    -0.886830802573     1.384081533095     1.007825032230
         H           -1.628793320548    -2.150810802573     0.065755533095     1.007825032230
         H           -1.643122320548     2.142618197427     0.079586533095     1.007825032230
         H           -3.478494920548    -0.838174402573     0.365096733095     1.007825032230

  Basis Set: AUG-CC-PVTZ
    Blend: AUG-CC-PVTZ
  Basis Set: (AUG-CC-PVTZ AUX)
    Blend: AUG-CC-PVTZ-JKFIT
	 Reference Energy          =    -383.7657316857000183 [Eh]
	 Singles Energy            =      -0.0000000000000000 [Eh]
	 Same-Spin Energy          =      -0.4127956386964512 [Eh]
	 Opposite-Spin Energy      =      -1.3189661794439924 [Eh]
	 Correlation Energy        =      -1.7317618181404435 [Eh]
	 Total Energy              =    -385.4974935038404737 [Eh]

	 ================> DF-SCS-MP2 Energies <==================
	-----------------------------------------------------------
	 SCS Same-Spin Scale       =       0.3333333333333333 [-]
	 SCS Opposite-Spin Scale   =       1.2000000000000000 [-]
	 SCS Same-Spin Energy      =      -0.1375985462321504 [Eh]
	 SCS Opposite-Spin Energy  =      -1.5827594153327909 [Eh]
	 SCS Correlation Energy    =      -1.7203579615649414 [Eh]
	 SCS Total Energy          =    -385.4860896472649756 [Eh]
	-----------------------------------------------------------

  Dipole Moment: [D]
     X:     0.4792      Y:    -1.2756      Z:    -0.0207     Total:     1.3628

*** Psi4 exiting successfully. Buy a developer a beer!
