                               Psi4 1.3.2 release

  ==> Input File <==

--------------------------------------------------------------------------
#psi4
#
memory 32 gb

molecule  {
0 1
  O       -3.1417080     0.0705380     0.3169670
  C        0.9902420    -0.0039870    -0.3612050
  C        2.4872910    -0.0052090    -0.5397260
  C        0.2806140    -1.2015640    -0.2442060
  C        0.3306461     1.1093616    -0.2457496
  C        3.2312830    -0.0061060     0.7967240
  C       -1.0960700    -1.2065460    -0.0157640
  C       -1.0950530     1.2066380    -0.0091780
  C       -1.7865290     0.0017960     0.1015840
  H        2.7838010    -0.8823900    -1.1265120
  H        2.7835740     0.8731460    -1.1246690
  H        0.8095070    -2.1483250    -0.3363770
  H        0.8092330     2.1418130    -0.3228610
  H        2.9650580     0.8755680     1.3857970
  H        4.3169070    -0.0053560     0.6533480
  H        2.9660240    -0.8892340     1.3840690
  H       -1.6288030    -2.1532140     0.0657430
  H       -1.6431320     2.1402150     0.0795740
  H       -3.4941530    -0.8345020     0.3676020
units angstrom
no_reorient  #important for SAPT in psi4, default
symmetry c1  #important for SAPT in psi4, default
}

set PROPERTIES_ORIGIN ["COM"]
properties('MP2/aug-cc-pvtz', properties = ['dipole'])
--------------------------------------------------------------------------

    Molecular point group: c1
  Charge       = 0
  Multiplicity = 1
  Basis Set: AUG-CC-PVTZ
    Blend: AUG-CC-PVTZ
  Basis Set: (AUG-CC-PVTZ AUX)
    Blend: AUG-CC-PVTZ-JKFIT

    Orbital Energies [Eh]
    ---------------------

    Doubly Occupied:

       1A    -20.588914     2A    -11.298419     3A    -11.241233
       4A    -11.236768     5A    -11.233338     6A    -11.230156
       7A    -11.226772     8A    -11.219506     9A    -11.215421
      10A     -1.398207    11A     -1.159993    12A     -1.060428
      13A     -1.009934    14A     -0.983572    15A     -0.858522
      16A     -0.847360    17A     -0.793466    18A     -0.725114
      19A     -0.673437    20A     -0.648031    21A     -0.612525
      22A     -0.597138    23A     -0.587995    24A     -0.584283
      25A     -0.563120    26A     -0.556494    27A     -0.523697
      28A     -0.497327    29A     -0.483998    30A     -0.471742
      31A     -0.470045    32A     -0.337716    33A     -0.313378

  @DF-RHF Final Energy:  -383.75307699706337

   => Energetics <=

    Nuclear Repulsion Energy =            419.5385586980061703
    One-Electron Energy =               -1352.0871733782030333
    Two-Electron Energy =                 548.7955376831334888
    Total Energy =                       -383.7530769970633173
  Basis Set: (AUG-CC-PVTZ AUX)
    Blend: AUG-CC-PVTZ-RI
    Molecular point group: c1

    Geometry (in Angstrom), charge = 0, multiplicity = 1:

       Center              X                  Y                   Z               Mass
    ------------   -----------------  -----------------  -----------------  -----------------
         O           -3.146698708234     0.078961885583     0.317840630603    15.994914619570
         C            0.985251291766     0.004436885583    -0.360331369397    12.000000000000
         C            2.482300291766     0.003214885583    -0.538852369397    12.000000000000
         C            0.275623291766    -1.193140114417    -0.243332369397    12.000000000000
         C            0.325655391766     1.117785485583    -0.244875969397    12.000000000000
         C            3.226292291766     0.002317885583     0.797597630603    12.000000000000
         C           -1.101060708234    -1.198122114417    -0.014890369397    12.000000000000
         C           -1.100043708234     1.215061885583    -0.008304369397    12.000000000000
         C           -1.791519708234     0.010219885583     0.102457630603    12.000000000000
         H            2.778810291766    -0.873966114417    -1.125638369397     1.007825032230
         H            2.778583291766     0.881569885583    -1.123795369397     1.007825032230
         H            0.804516291766    -2.139901114417    -0.335503369397     1.007825032230
         H            0.804242291766     2.150236885583    -0.321987369397     1.007825032230
         H            2.960067291766     0.883991885583     1.386670630603     1.007825032230
         H            4.311916291766     0.003067885583     0.654221630603     1.007825032230
         H            2.961033291766    -0.880810114417     1.384942630603     1.007825032230
         H           -1.633793708234    -2.144790114417     0.066616630603     1.007825032230
         H           -1.648122708234     2.148638885583     0.080447630603     1.007825032230
         H           -3.499143708234    -0.826078114417     0.368475630603     1.007825032230

  Basis Set: AUG-CC-PVTZ
    Blend: AUG-CC-PVTZ
  Basis Set: (AUG-CC-PVTZ AUX)
    Blend: AUG-CC-PVTZ-JKFIT
	 Reference Energy          =    -383.7530769970633742 [Eh]
	 Singles Energy            =      -0.0000000000000000 [Eh]
	 Same-Spin Energy          =      -0.4126924402974668 [Eh]
	 Opposite-Spin Energy      =      -1.3191571968637263 [Eh]
	 Correlation Energy        =      -1.7318496371611931 [Eh]
	 Total Energy              =    -385.4849266342245642 [Eh]

	 ================> DF-SCS-MP2 Energies <==================
	-----------------------------------------------------------
	 SCS Same-Spin Scale       =       0.3333333333333333 [-]
	 SCS Opposite-Spin Scale   =       1.2000000000000000 [-]
	 SCS Same-Spin Energy      =      -0.1375641467658223 [Eh]
	 SCS Opposite-Spin Energy  =      -1.5829886362364716 [Eh]
	 SCS Correlation Energy    =      -1.7205527830022938 [Eh]
	 SCS Total Energy          =    -385.4736297800656644 [Eh]
	-----------------------------------------------------------

  Dipole Moment: [D]
     X:     0.4463      Y:    -1.3348      Z:    -0.0151     Total:     1.4075

*** Psi4 exiting successfully. Buy a developer a beer!
