                               Psi4 1.3.2 release

  ==> Input File <==

--------------------------------------------------------------------------
#psi4
#
memory 32 gb

molecule  {
0 1
  O       -3.1417080     0.0705380     0.3169670
  C        0.9902420    -0.0039870    -0.3612050
  C        2.4872910    -0.0052090    -0.5397260
  C        0.2806140    -1.2015640    -0.2442060
  C        0.2291079     1.2807504    -0.2279764
  C        3.2312830    -0.0061060     0.7967240
  C       -1.0960700    -1.2065460    -0.0157640
  C       -1.0950530     1.2066380    -0.0091780
  C       -1.7865290     0.0017960     0.1015840
  H        2.7838010    -0.8823900    -1.1265120
  H        2.7835740     0.8731460    -1.1246690
  H        0.8095070    -2.1483250    -0.3363770
  H        0.8092330     2.1418130    -0.3228610
  H        2.9650580     0.8755680     1.3857970
  H        4.3169070    -0.0053560     0.6533480
  H        2.9660240    -0.8892340     1.3840690
  H       -1.6288030    -2.1532140     0.0657430
  H       -1.6431320     2.1402150     0.0795740
  H       -3.4941530    -0.8345020     0.3676020
units angstrom
no_reorient  #important for SAPT in psi4, default
symmetry c1  #important for SAPT in psi4, default
}

set PROPERTIES_ORIGIN ["COM"]
properties('MP2/aug-cc-pvtz', properties = ['dipole'])
--------------------------------------------------------------------------

    Molecular point group: c1
  Charge       = 0
  Multiplicity = 1
  Basis Set: AUG-CC-PVTZ
    Blend: AUG-CC-PVTZ
  Basis Set: (AUG-CC-PVTZ AUX)
    Blend: AUG-CC-PVTZ-JKFIT

    Orbital Energies [Eh]
    ---------------------

    Doubly Occupied:

       1A    -20.589939     2A    -11.300346     3A    -11.239760
       4A    -11.237772     5A    -11.235209     6A    -11.233104
       7A    -11.227466     8A    -11.226004     9A    -11.215157
      10A     -1.398930    11A     -1.145672    12A     -1.057092
      13A     -1.023736    14A     -0.968992    15A     -0.865455
      16A     -0.840272    17A     -0.786712    18A     -0.733305
      19A     -0.670757    20A     -0.644611    21A     -0.618056
      22A     -0.597723    23A     -0.592119    24A     -0.587686
      25A     -0.571308    26A     -0.552215    27A     -0.523513
      28A     -0.500164    29A     -0.481963    30A     -0.466398
      31A     -0.464616    32A     -0.348612    33A     -0.296997

  @DF-RHF Final Energy:  -383.75539669594309

   => Energetics <=

    Nuclear Repulsion Energy =            417.2483017349404122
    One-Electron Energy =               -1347.5240722190810629
    Two-Electron Energy =                 546.5203737881975030
    Total Energy =                       -383.7553966959430909
  Basis Set: (AUG-CC-PVTZ AUX)
    Blend: AUG-CC-PVTZ-RI
    Molecular point group: c1

    Geometry (in Angstrom), charge = 0, multiplicity = 1:

       Center              X                  Y                   Z               Mass
    ------------   -----------------  -----------------  -----------------  -----------------
         O           -3.136717330258     0.062114074674     0.316093494776    15.994914619570
         C            0.995232669742    -0.012410925326    -0.362078505224    12.000000000000
         C            2.492281669742    -0.013632925326    -0.540599505224    12.000000000000
         C            0.285604669742    -1.209987925326    -0.245079505224    12.000000000000
         C            0.234098569742     1.272326474674    -0.228849905224    12.000000000000
         C            3.236273669742    -0.014529925326     0.795850494776    12.000000000000
         C           -1.091079330258    -1.214969925326    -0.016637505224    12.000000000000
         C           -1.090062330258     1.198214074674    -0.010051505224    12.000000000000
         C           -1.781538330258    -0.006627925326     0.100710494776    12.000000000000
         H            2.788791669742    -0.890813925326    -1.127385505224     1.007825032230
         H            2.788564669742     0.864722074674    -1.125542505224     1.007825032230
         H            0.814497669742    -2.156748925326    -0.337250505224     1.007825032230
         H            0.814223669742     2.133389074674    -0.323734505224     1.007825032230
         H            2.970048669742     0.867144074674     1.384923494776     1.007825032230
         H            4.321897669742    -0.013779925326     0.652474494776     1.007825032230
         H            2.971014669742    -0.897657925326     1.383195494776     1.007825032230
         H           -1.623812330258    -2.161637925326     0.064869494776     1.007825032230
         H           -1.638141330258     2.131791074674     0.078700494776     1.007825032230
         H           -3.489162330258    -0.842925925326     0.366728494776     1.007825032230

  Basis Set: AUG-CC-PVTZ
    Blend: AUG-CC-PVTZ
  Basis Set: (AUG-CC-PVTZ AUX)
    Blend: AUG-CC-PVTZ-JKFIT
	 Reference Energy          =    -383.7553966959430909 [Eh]
	 Singles Energy            =      -0.0000000000000000 [Eh]
	 Same-Spin Energy          =      -0.4125212583649684 [Eh]
	 Opposite-Spin Energy      =      -1.3193756729120507 [Eh]
	 Correlation Energy        =      -1.7318969312770192 [Eh]
	 Total Energy              =    -385.4872936272200832 [Eh]

	 ================> DF-SCS-MP2 Energies <==================
	-----------------------------------------------------------
	 SCS Same-Spin Scale       =       0.3333333333333333 [-]
	 SCS Opposite-Spin Scale   =       1.2000000000000000 [-]
	 SCS Same-Spin Energy      =      -0.1375070861216561 [Eh]
	 SCS Opposite-Spin Energy  =      -1.5832508074944609 [Eh]
	 SCS Correlation Energy    =      -1.7207578936161170 [Eh]
	 SCS Total Energy          =    -385.4761545895592008 [Eh]
	-----------------------------------------------------------

  Dipole Moment: [D]
     X:     0.4743      Y:    -1.2257      Z:    -0.0204     Total:     1.3144

*** Psi4 exiting successfully. Buy a developer a beer!
