                               Psi4 1.3.2 release

  ==> Input File <==

--------------------------------------------------------------------------
#psi4
#
memory 32 gb

molecule  {
0 1
  O       -3.1434762    -0.0013695     0.3167810
  C        0.9902420    -0.0039870    -0.3612050
  C        2.4872910    -0.0052090    -0.5397260
  C        0.2806140    -1.2015640    -0.2442060
  C        0.2798770     1.1950560    -0.2368630
  C        3.2312830    -0.0061060     0.7967240
  C       -1.1595133    -1.2415410    -0.0059286
  C       -1.0950530     1.2066380    -0.0091780
  C       -1.7865290     0.0017960     0.1015840
  H        2.7838010    -0.8823900    -1.1265120
  H        2.7835740     0.8731460    -1.1246690
  H        0.8095070    -2.1483250    -0.3363770
  H        0.8092330     2.1418130    -0.3228610
  H        2.9650580     0.8755680     1.3857970
  H        4.3169070    -0.0053560     0.6533480
  H        2.9660240    -0.8892340     1.3840690
  H       -1.6288030    -2.1532140     0.0657430
  H       -1.6431320     2.1402150     0.0795740
  H       -3.4941530    -0.8345020     0.3676020
units angstrom
no_reorient  #important for SAPT in psi4, default
symmetry c1  #important for SAPT in psi4, default
}

set PROPERTIES_ORIGIN ["COM"]
properties('MP2/aug-cc-pvtz', properties = ['dipole'])
--------------------------------------------------------------------------

    Molecular point group: c1
  Charge       = 0
  Multiplicity = 1
  Basis Set: AUG-CC-PVTZ
    Blend: AUG-CC-PVTZ
  Basis Set: (AUG-CC-PVTZ AUX)
    Blend: AUG-CC-PVTZ-JKFIT

    Orbital Energies [Eh]
    ---------------------

    Doubly Occupied:

       1A    -20.576900     2A    -11.302462     3A    -11.244390
       4A    -11.239867     5A    -11.233395     6A    -11.232002
       7A    -11.231492     8A    -11.227834     9A    -11.215576
      10A     -1.409155    11A     -1.147247    12A     -1.059215
      13A     -1.012153    14A     -0.978450    15A     -0.865199
      16A     -0.846396    17A     -0.797149    18A     -0.739422
      19A     -0.666234    20A     -0.658385    21A     -0.621369
      22A     -0.596531    23A     -0.587789    24A     -0.585445
      25A     -0.572262    26A     -0.546151    27A     -0.522790
      28A     -0.501954    29A     -0.481846    30A     -0.476006
      31A     -0.464535    32A     -0.334613    33A     -0.308736

  @DF-RHF Final Energy:  -383.75760642613852

   => Energetics <=

    Nuclear Repulsion Energy =            417.6431602051828236
    One-Electron Energy =               -1348.2356313146299271
    Two-Electron Energy =                 546.8348646833086377
    Total Energy =                       -383.7576064261385227
  Basis Set: (AUG-CC-PVTZ AUX)
    Blend: AUG-CC-PVTZ-RI
    Molecular point group: c1

    Geometry (in Angstrom), charge = 0, multiplicity = 1:

       Center              X                  Y                   Z               Mass
    ------------   -----------------  -----------------  -----------------  -----------------
         O           -3.137007952380     0.011492392275     0.315838597194    15.994914619570
         C            0.996710247620     0.008874892275    -0.362147402806    12.000000000000
         C            2.493759247620     0.007652892275    -0.540668402806    12.000000000000
         C            0.287082247620    -1.188702107725    -0.245148402806    12.000000000000
         C            0.286345247620     1.207917892275    -0.237805402806    12.000000000000
         C            3.237751247620     0.006755892275     0.795781597194    12.000000000000
         C           -1.153045052380    -1.228679107725    -0.006871002806    12.000000000000
         C           -1.088584752380     1.219499892275    -0.010120402806    12.000000000000
         C           -1.780060752380     0.014657892275     0.100641597194    12.000000000000
         H            2.790269247620    -0.869528107725    -1.127454402806     1.007825032230
         H            2.790042247620     0.886007892275    -1.125611402806     1.007825032230
         H            0.815975247620    -2.135463107725    -0.337319402806     1.007825032230
         H            0.815701247620     2.154674892275    -0.323803402806     1.007825032230
         H            2.971526247620     0.888429892275     1.384854597194     1.007825032230
         H            4.323375247620     0.007505892275     0.652405597194     1.007825032230
         H            2.972492247620    -0.876372107725     1.383126597194     1.007825032230
         H           -1.622334752380    -2.140352107725     0.064800597194     1.007825032230
         H           -1.636663752380     2.153076892275     0.078631597194     1.007825032230
         H           -3.487684752380    -0.821640107725     0.366659597194     1.007825032230

  Basis Set: AUG-CC-PVTZ
    Blend: AUG-CC-PVTZ
  Basis Set: (AUG-CC-PVTZ AUX)
    Blend: AUG-CC-PVTZ-JKFIT
	 Reference Energy          =    -383.7576064261385227 [Eh]
	 Singles Energy            =      -0.0000000000000000 [Eh]
	 Same-Spin Energy          =      -0.4116579430640198 [Eh]
	 Opposite-Spin Energy      =      -1.3169263073011757 [Eh]
	 Correlation Energy        =      -1.7285842503651954 [Eh]
	 Total Energy              =    -385.4861906765037247 [Eh]

	 ================> DF-SCS-MP2 Energies <==================
	-----------------------------------------------------------
	 SCS Same-Spin Scale       =       0.3333333333333333 [-]
	 SCS Opposite-Spin Scale   =       1.2000000000000000 [-]
	 SCS Same-Spin Energy      =      -0.1372193143546732 [Eh]
	 SCS Opposite-Spin Energy  =      -1.5803115687614107 [Eh]
	 SCS Correlation Energy    =      -1.7175308831160838 [Eh]
	 SCS Total Energy          =    -385.4751373092545919 [Eh]
	-----------------------------------------------------------

  Dipole Moment: [D]
     X:     0.5566      Y:    -1.1797      Z:    -0.0287     Total:     1.3048

*** Psi4 exiting successfully. Buy a developer a beer!
