                               Psi4 1.4a3.dev225

  ==> Input File <==

--------------------------------------------------------------------------
#psi4
#
memory 32 gb

molecule  {
0 1
  O        3.2216350    -0.1065060     0.2904990
  C       -0.9146420     0.0169590    -0.3639610
  C       -2.4121960     0.0318470    -0.5323860
  C       -0.1907600     1.2076380    -0.2374780
  C       -0.2138010    -1.1929940    -0.2539850
  C       -3.1175329    -0.0175463     0.7697609
  C        1.1888560     1.1991780    -0.0236810
  C        1.1619340    -1.2201410    -0.0407060
  C        1.8648900    -0.0185630     0.0807020
  H       -2.7091570     0.9353730    -1.0779940
  H       -2.7186560    -0.8212200    -1.1493620
  H       -0.7079800     2.1625600    -0.3214960
  H       -0.7531780    -2.1343060    -0.3521420
  H       -2.8726550    -0.9274190     1.3607640
  H       -4.2274440    -0.0080790     0.6778440
  H       -2.8630000     0.8390280     1.4320080
  H        1.7343360     2.1384520     0.0639930
  H        1.7070130    -2.1569100     0.0367280
  H        3.5799610     0.7963060     0.3524270
units angstrom
no_reorient  #important for SAPT in psi4, default
symmetry c1  #important for SAPT in psi4, default
}

set PROPERTIES_ORIGIN ["COM"]
properties('MP2/aug-cc-pvtz', properties = ['dipole'])
--------------------------------------------------------------------------

    Molecular point group: c1
  Charge       = 0
  Multiplicity = 1
  Basis Set: AUG-CC-PVTZ
    Blend: AUG-CC-PVTZ
  Basis Set: (AUG-CC-PVTZ AUX)
    Blend: AUG-CC-PVTZ-JKFIT

    Orbital Energies [Eh]
    ---------------------

    Doubly Occupied:

       1A    -20.589557     2A    -11.300031     3A    -11.239015
       4A    -11.237263     5A    -11.235074     6A    -11.231926
       7A    -11.228878     8A    -11.225450     9A    -11.217931
      10A     -1.397933    11A     -1.151143    12A     -1.063645
      13A     -1.016987    14A     -0.977220    15A     -0.858292
      16A     -0.842016    17A     -0.791050    18A     -0.727645
      19A     -0.672468    20A     -0.648203    21A     -0.613526
      22A     -0.596260    23A     -0.587782    24A     -0.585958
      25A     -0.570053    26A     -0.557008    27A     -0.528472
      28A     -0.495101    29A     -0.474636    30A     -0.473320
      31A     -0.470508    32A     -0.340910    33A     -0.305999

  @DF-RHF Final Energy:  -383.76331252638721

   => Energetics <=

    Nuclear Repulsion Energy =            418.8001088696681222
    One-Electron Energy =               -1350.6243226574690652
    Two-Electron Energy =                 548.0609012614137328
    Total Energy =                       -383.7633125263872671
  Basis Set: (AUG-CC-PVTZ AUX)
    Blend: AUG-CC-PVTZ-RI
    Molecular point group: c1

    Geometry (in Angstrom), charge = 0, multiplicity = 1:

       Center              X                  Y                   Z               Mass
    ------------   -----------------  -----------------  -----------------  -----------------
         O            3.139527945994    -0.099978842023     0.303143296479    15.994914619570
         C           -0.996749054006     0.023486157977    -0.351316703521    12.000000000000
         C           -2.494303054006     0.038374157977    -0.519741703521    12.000000000000
         C           -0.272867054006     1.214165157977    -0.224833703521    12.000000000000
         C           -0.295908054006    -1.186466842023    -0.241340703521    12.000000000000
         C           -3.199639954006    -0.011019142023     0.782405196479    12.000000000000
         C            1.106748945994     1.205705157977    -0.011036703521    12.000000000000
         C            1.079826945994    -1.213613842023    -0.028061703521    12.000000000000
         C            1.782782945994    -0.012035842023     0.093346296479    12.000000000000
         H           -2.791264054006     0.941900157977    -1.065349703521     1.007825032230
         H           -2.800763054006    -0.814692842023    -1.136717703521     1.007825032230
         H           -0.790087054006     2.169087157977    -0.308851703521     1.007825032230
         H           -0.835285054006    -2.127778842023    -0.339497703521     1.007825032230
         H           -2.954762054006    -0.920891842023     1.373408296479     1.007825032230
         H           -4.309551054006    -0.001551842023     0.690488296479     1.007825032230
         H           -2.945107054006     0.845555157977     1.444652296479     1.007825032230
         H            1.652228945994     2.144979157977     0.076637296479     1.007825032230
         H            1.624905945994    -2.150382842023     0.049372296479     1.007825032230
         H            3.497853945994     0.802833157977     0.365071296479     1.007825032230

  Basis Set: AUG-CC-PVTZ
    Blend: AUG-CC-PVTZ
  Basis Set: (AUG-CC-PVTZ AUX)
    Blend: AUG-CC-PVTZ-JKFIT
	 Reference Energy          =    -383.7633125263872103 [Eh]
	 Singles Energy            =      -0.0000000000000000 [Eh]
	 Same-Spin Energy          =      -0.4131632640267782 [Eh]
	 Opposite-Spin Energy      =      -1.3193733810326165 [Eh]
	 Correlation Energy        =      -1.7325366450593946 [Eh]
	 Total Energy              =    -385.4958491714465936 [Eh]

	 ================> DF-SCS-MP2 Energies <==================
	-----------------------------------------------------------
	 SCS Same-Spin Scale       =       0.3333333333333333 [-]
	 SCS Opposite-Spin Scale   =       1.2000000000000000 [-]
	 SCS Same-Spin Energy      =      -0.1377210880089261 [Eh]
	 SCS Opposite-Spin Energy  =      -1.5832480572391396 [Eh]
	 SCS Correlation Energy    =      -1.7209691452480658 [Eh]
	 SCS Total Energy          =    -385.4842816716353013 [Eh]
	-----------------------------------------------------------

  Dipole Moment: [D]
     X:    -0.4484      Y:     1.2738      Z:    -0.0084     Total:     1.3504

*** Psi4 exiting successfully. Buy a developer a beer!
