                               Psi4 1.3.2 release

  ==> Input File <==

--------------------------------------------------------------------------
#psi4
#
memory 32 gb

molecule  {
0 1
  O       -3.1417080     0.0705380     0.3169670
  C        0.9902420    -0.0039870    -0.3612050
  C        2.4872910    -0.0052090    -0.5397260
  C        0.2806140    -1.2015640    -0.2442060
  C        0.2798770     1.1950560    -0.2368630
  C        3.2312830    -0.0061060     0.7967240
  C       -1.0960700    -1.2065460    -0.0157640
  C       -1.0950530     1.2066380    -0.0091780
  C       -1.7920043    -0.0699234     0.1020345
  H        2.7838010    -0.8823900    -1.1265120
  H        2.7835740     0.8731460    -1.1246690
  H        0.8095070    -2.1483250    -0.3363770
  H        0.8092330     2.1418130    -0.3228610
  H        2.9650580     0.8755680     1.3857970
  H        4.3169070    -0.0053560     0.6533480
  H        2.9660240    -0.8892340     1.3840690
  H       -1.6288030    -2.1532140     0.0657430
  H       -1.6431320     2.1402150     0.0795740
  H       -3.4469049    -0.8518943     0.3600053
units angstrom
no_reorient  #important for SAPT in psi4, default
symmetry c1  #important for SAPT in psi4, default
}

set PROPERTIES_ORIGIN ["COM"]
properties('MP2/aug-cc-pvtz', properties = ['dipole'])
--------------------------------------------------------------------------

    Molecular point group: c1
  Charge       = 0
  Multiplicity = 1
  Basis Set: AUG-CC-PVTZ
    Blend: AUG-CC-PVTZ
  Basis Set: (AUG-CC-PVTZ AUX)
    Blend: AUG-CC-PVTZ-JKFIT

    Orbital Energies [Eh]
    ---------------------

    Doubly Occupied:

       1A    -20.593323     2A    -11.298694     3A    -11.237794
       4A    -11.236095     5A    -11.234811     6A    -11.231712
       7A    -11.228402     8A    -11.227326     9A    -11.215474
      10A     -1.403899    11A     -1.151470    12A     -1.059573
      13A     -1.016453    14A     -0.974993    15A     -0.860232
      16A     -0.845176    17A     -0.790764    18A     -0.723468
      19A     -0.677585    20A     -0.644216    21A     -0.611300
      22A     -0.598805    23A     -0.589592    24A     -0.584786
      25A     -0.566297    26A     -0.562634    27A     -0.523801
      28A     -0.497421    29A     -0.480874    30A     -0.476535
      31A     -0.468921    32A     -0.343425    33A     -0.304704

  @DF-RHF Final Energy:  -383.75864437730957

   => Energetics <=

    Nuclear Repulsion Energy =            418.3887062585635022
    One-Electron Energy =               -1349.7735883792290679
    Two-Electron Energy =                 547.6262377433560005
    Total Energy =                       -383.7586443773095652
  Basis Set: (AUG-CC-PVTZ AUX)
    Blend: AUG-CC-PVTZ-RI
    Molecular point group: c1

    Geometry (in Angstrom), charge = 0, multiplicity = 1:

       Center              X                  Y                   Z               Mass
    ------------   -----------------  -----------------  -----------------  -----------------
         O           -3.141559863981     0.077731708543     0.316985495442    15.994914619570
         C            0.990390136019     0.003206708543    -0.361186504558    12.000000000000
         C            2.487439136019     0.001984708543    -0.539707504558    12.000000000000
         C            0.280762136019    -1.194370291457    -0.244187504558    12.000000000000
         C            0.280025136019     1.202249708543    -0.236844504558    12.000000000000
         C            3.231431136019     0.001087708543     0.796742495442    12.000000000000
         C           -1.095921863981    -1.199352291457    -0.015745504558    12.000000000000
         C           -1.094904863981     1.213831708543    -0.009159504558    12.000000000000
         C           -1.791856163981    -0.062729691457     0.102052995442    12.000000000000
         H            2.783949136019    -0.875196291457    -1.126493504558     1.007825032230
         H            2.783722136019     0.880339708543    -1.124650504558     1.007825032230
         H            0.809655136019    -2.141131291457    -0.336358504558     1.007825032230
         H            0.809381136019     2.149006708543    -0.322842504558     1.007825032230
         H            2.965206136019     0.882761708543     1.385815495442     1.007825032230
         H            4.317055136019     0.001837708543     0.653366495442     1.007825032230
         H            2.966172136019    -0.882040291457     1.384087495442     1.007825032230
         H           -1.628654863981    -2.146020291457     0.065761495442     1.007825032230
         H           -1.642983863981     2.147408708543     0.079592495442     1.007825032230
         H           -3.446756763981    -0.844700591457     0.360023795442     1.007825032230

  Basis Set: AUG-CC-PVTZ
    Blend: AUG-CC-PVTZ
  Basis Set: (AUG-CC-PVTZ AUX)
    Blend: AUG-CC-PVTZ-JKFIT
	 Reference Energy          =    -383.7586443773095652 [Eh]
	 Singles Energy            =      -0.0000000000000000 [Eh]
	 Same-Spin Energy          =      -0.4127976971480406 [Eh]
	 Opposite-Spin Energy      =      -1.3196398969564451 [Eh]
	 Correlation Energy        =      -1.7324375941044856 [Eh]
	 Total Energy              =    -385.4910819714140757 [Eh]

	 ================> DF-SCS-MP2 Energies <==================
	-----------------------------------------------------------
	 SCS Same-Spin Scale       =       0.3333333333333333 [-]
	 SCS Opposite-Spin Scale   =       1.2000000000000000 [-]
	 SCS Same-Spin Energy      =      -0.1375992323826802 [Eh]
	 SCS Opposite-Spin Energy  =      -1.5835678763477341 [Eh]
	 SCS Correlation Energy    =      -1.7211671087304143 [Eh]
	 SCS Total Energy          =    -385.4798114860399778 [Eh]
	-----------------------------------------------------------

  Dipole Moment: [D]
     X:     0.5104      Y:    -1.2809      Z:    -0.0251     Total:     1.3791

*** Psi4 exiting successfully. Buy a developer a beer!
