                               Psi4 1.4a3.dev225

  ==> Input File <==

--------------------------------------------------------------------------
#psi4
#
memory 32 gb

molecule  {
0 1
  O        3.2216350    -0.1065060     0.2904990
  C       -0.9146420     0.0169590    -0.3639610
  C       -2.4121960     0.0318470    -0.5323860
  C       -0.1907600     1.2076380    -0.2374780
  C       -0.2038075    -1.2102471    -0.2524168
  C       -3.1413340    -0.0192130     0.8137010
  C        1.1888560     1.1991780    -0.0236810
  C        1.1619340    -1.2201410    -0.0407060
  C        1.8648900    -0.0185630     0.0807020
  H       -2.7091570     0.9353730    -1.0779940
  H       -2.7186560    -0.8212200    -1.1493620
  H       -0.7079800     2.1625600    -0.3214960
  H       -0.7531780    -2.1343060    -0.3521420
  H       -2.8726550    -0.9274190     1.3607640
  H       -4.2274440    -0.0080790     0.6778440
  H       -2.8630000     0.8390280     1.4320080
  H        1.7343360     2.1384520     0.0639930
  H        1.7070130    -2.1569100     0.0367280
  H        3.5799610     0.7963060     0.3524270
units angstrom
no_reorient  #important for SAPT in psi4, default
symmetry c1  #important for SAPT in psi4, default
}

set PROPERTIES_ORIGIN ["COM"]
properties('MP2/aug-cc-pvtz', properties = ['dipole'])
--------------------------------------------------------------------------

    Molecular point group: c1
  Charge       = 0
  Multiplicity = 1
  Basis Set: AUG-CC-PVTZ
    Blend: AUG-CC-PVTZ
  Basis Set: (AUG-CC-PVTZ AUX)
    Blend: AUG-CC-PVTZ-JKFIT

    Orbital Energies [Eh]
    ---------------------

    Doubly Occupied:

       1A    -20.589522     2A    -11.300014     3A    -11.238173
       4A    -11.237376     5A    -11.234614     6A    -11.233647
       7A    -11.228331     8A    -11.227466     9A    -11.215457
      10A     -1.397868    11A     -1.148979    12A     -1.057322
      13A     -1.018259    14A     -0.973223    15A     -0.862197
      16A     -0.841542    17A     -0.790296    18A     -0.728294
      19A     -0.671322    20A     -0.646671    21A     -0.613312
      22A     -0.595913    23A     -0.587935    24A     -0.586435
      25A     -0.569726    26A     -0.554980    27A     -0.522893
      28A     -0.498728    29A     -0.481097    30A     -0.476191
      31A     -0.467199    32A     -0.342226    33A     -0.303353

  @DF-RHF Final Energy:  -383.76568015458162

   => Energetics <=

    Nuclear Repulsion Energy =            417.8765945323003734
    One-Electron Energy =               -1348.8034291080921321
    Two-Electron Energy =                 547.1611544212101990
    Total Energy =                       -383.7656801545815597
  Basis Set: (AUG-CC-PVTZ AUX)
    Blend: AUG-CC-PVTZ-RI
    Molecular point group: c1

    Geometry (in Angstrom), charge = 0, multiplicity = 1:

       Center              X                  Y                   Z               Mass
    ------------   -----------------  -----------------  -----------------  -----------------
         O            3.140885256588    -0.098118993464     0.298669753090    15.994914619570
         C           -0.995391743412     0.025346006536    -0.355790246910    12.000000000000
         C           -2.492945743412     0.040234006536    -0.524215246910    12.000000000000
         C           -0.271509743412     1.216025006536    -0.229307246910    12.000000000000
         C           -0.284557243412    -1.201860093464    -0.244246046910    12.000000000000
         C           -3.222083743412    -0.010825993464     0.821871753090    12.000000000000
         C            1.108106256588     1.207565006536    -0.015510246910    12.000000000000
         C            1.081184256588    -1.211753993464    -0.032535246910    12.000000000000
         C            1.784140256588    -0.010175993464     0.088872753090    12.000000000000
         H           -2.789906743412     0.943760006536    -1.069823246910     1.007825032230
         H           -2.799405743412    -0.812832993464    -1.141191246910     1.007825032230
         H           -0.788729743412     2.170947006536    -0.313325246910     1.007825032230
         H           -0.833927743412    -2.125918993464    -0.343971246910     1.007825032230
         H           -2.953404743412    -0.919031993464     1.368934753090     1.007825032230
         H           -4.308193743412     0.000308006536     0.686014753090     1.007825032230
         H           -2.943749743412     0.847415006536     1.440178753090     1.007825032230
         H            1.653586256588     2.146839006536     0.072163753090     1.007825032230
         H            1.626263256588    -2.148522993464     0.044898753090     1.007825032230
         H            3.499211256588     0.804693006536     0.360597753090     1.007825032230

  Basis Set: AUG-CC-PVTZ
    Blend: AUG-CC-PVTZ
  Basis Set: (AUG-CC-PVTZ AUX)
    Blend: AUG-CC-PVTZ-JKFIT
	 Reference Energy          =    -383.7656801545816165 [Eh]
	 Singles Energy            =      -0.0000000000000000 [Eh]
	 Same-Spin Energy          =      -0.4127549937348933 [Eh]
	 Opposite-Spin Energy      =      -1.3190320896121381 [Eh]
	 Correlation Energy        =      -1.7317870833470315 [Eh]
	 Total Energy              =    -385.4974672379286744 [Eh]

	 ================> DF-SCS-MP2 Energies <==================
	-----------------------------------------------------------
	 SCS Same-Spin Scale       =       0.3333333333333333 [-]
	 SCS Opposite-Spin Scale   =       1.2000000000000000 [-]
	 SCS Same-Spin Energy      =      -0.1375849979116311 [Eh]
	 SCS Opposite-Spin Energy  =      -1.5828385075345657 [Eh]
	 SCS Correlation Energy    =      -1.7204235054461967 [Eh]
	 SCS Total Energy          =    -385.4861036600278226 [Eh]
	-----------------------------------------------------------

  Dipole Moment: [D]
     X:    -0.4660      Y:     1.2636      Z:    -0.0045     Total:     1.3468

*** Psi4 exiting successfully. Buy a developer a beer!
