                               Psi4 1.3.2 release

  ==> Input File <==

--------------------------------------------------------------------------
#psi4
#
memory 32 gb

molecule  {
0 1
  O       -3.1417080     0.0705380     0.3169670
  C        0.9902420    -0.0039870    -0.3612050
  C        2.4872910    -0.0052090    -0.5397260
  C        0.2398546    -1.1757349    -0.2372009
  C        0.2390426     1.1691577    -0.2300009
  C        3.2312830    -0.0061060     0.7967240
  C       -1.0960700    -1.2065460    -0.0157640
  C       -1.0950530     1.2066380    -0.0091780
  C       -1.7865290     0.0017960     0.1015840
  H        2.7838010    -0.8823900    -1.1265120
  H        2.7835740     0.8731460    -1.1246690
  H        0.8095070    -2.1483250    -0.3363770
  H        0.8092330     2.1418130    -0.3228610
  H        2.9650580     0.8755680     1.3857970
  H        4.3169070    -0.0053560     0.6533480
  H        2.9660240    -0.8892340     1.3840690
  H       -1.6288030    -2.1532140     0.0657430
  H       -1.6431320     2.1402150     0.0795740
  H       -3.4941530    -0.8345020     0.3676020
units angstrom
no_reorient  #important for SAPT in psi4, default
symmetry c1  #important for SAPT in psi4, default
}

set PROPERTIES_ORIGIN ["COM"]
properties('MP2/aug-cc-pvtz', properties = ['dipole'])
--------------------------------------------------------------------------

    Molecular point group: c1
  Charge       = 0
  Multiplicity = 1
  Basis Set: AUG-CC-PVTZ
    Blend: AUG-CC-PVTZ
  Basis Set: (AUG-CC-PVTZ AUX)
    Blend: AUG-CC-PVTZ-JKFIT

    Orbital Energies [Eh]
    ---------------------

    Doubly Occupied:

       1A    -20.590280     2A    -11.300211     3A    -11.236952
       4A    -11.234993     5A    -11.229544     6A    -11.229452
       7A    -11.228847     8A    -11.222579     9A    -11.215644
      10A     -1.399406    11A     -1.158754    12A     -1.059376
      13A     -1.024731    14A     -0.975617    15A     -0.863421
      16A     -0.836047    17A     -0.796378    18A     -0.726420
      19A     -0.676181    20A     -0.646646    21A     -0.606877
      22A     -0.593648    23A     -0.587780    24A     -0.583904
      25A     -0.573086    26A     -0.555835    27A     -0.525235
      28A     -0.492053    29A     -0.486650    30A     -0.473973
      31A     -0.468201    32A     -0.349664    33A     -0.303207

  @DF-RHF Final Energy:  -383.76090277396287

   => Energetics <=

    Nuclear Repulsion Energy =            419.6040636845849576
    One-Electron Energy =               -1352.2267503449788819
    Two-Electron Energy =                 548.8617838864311125
    Total Energy =                       -383.7609027739628118
  Basis Set: (AUG-CC-PVTZ AUX)
    Blend: AUG-CC-PVTZ-RI
    Molecular point group: c1

    Geometry (in Angstrom), charge = 0, multiplicity = 1:

       Center              X                  Y                   Z               Mass
    ------------   -----------------  -----------------  -----------------  -----------------
         O           -3.133687209755     0.070544782606     0.315603893314    15.994914619570
         C            0.998262790245    -0.003980217394    -0.362568106686    12.000000000000
         C            2.495311790245    -0.005202217394    -0.541089106686    12.000000000000
         C            0.247875390245    -1.175728117394    -0.238564006686    12.000000000000
         C            0.247063390245     1.169164482606    -0.231364006686    12.000000000000
         C            3.239303790245    -0.006099217394     0.795360893314    12.000000000000
         C           -1.088049209755    -1.206539217394    -0.017127106686    12.000000000000
         C           -1.087032209755     1.206644782606    -0.010541106686    12.000000000000
         C           -1.778508209755     0.001802782606     0.100220893314    12.000000000000
         H            2.791821790245    -0.882383217394    -1.127875106686     1.007825032230
         H            2.791594790245     0.873152782606    -1.126032106686     1.007825032230
         H            0.817527790245    -2.148318217394    -0.337740106686     1.007825032230
         H            0.817253790245     2.141819782606    -0.324224106686     1.007825032230
         H            2.973078790245     0.875574782606     1.384433893314     1.007825032230
         H            4.324927790245    -0.005349217394     0.651984893314     1.007825032230
         H            2.974044790245    -0.889227217394     1.382705893314     1.007825032230
         H           -1.620782209755    -2.153207217394     0.064379893314     1.007825032230
         H           -1.635111209755     2.140221782606     0.078210893314     1.007825032230
         H           -3.486132209755    -0.834495217394     0.366238893314     1.007825032230

  Basis Set: AUG-CC-PVTZ
    Blend: AUG-CC-PVTZ
  Basis Set: (AUG-CC-PVTZ AUX)
    Blend: AUG-CC-PVTZ-JKFIT
	 Reference Energy          =    -383.7609027739628687 [Eh]
	 Singles Energy            =      -0.0000000000000000 [Eh]
	 Same-Spin Energy          =      -0.4129031465800006 [Eh]
	 Opposite-Spin Energy      =      -1.3185757175274675 [Eh]
	 Correlation Energy        =      -1.7314788641074681 [Eh]
	 Total Energy              =    -385.4923816380703556 [Eh]

	 ================> DF-SCS-MP2 Energies <==================
	-----------------------------------------------------------
	 SCS Same-Spin Scale       =       0.3333333333333333 [-]
	 SCS Opposite-Spin Scale   =       1.2000000000000000 [-]
	 SCS Same-Spin Energy      =      -0.1376343821933335 [Eh]
	 SCS Opposite-Spin Energy  =      -1.5822908610329609 [Eh]
	 SCS Correlation Energy    =      -1.7199252432262944 [Eh]
	 SCS Total Energy          =    -385.4808280171891397 [Eh]
	-----------------------------------------------------------

  Dipole Moment: [D]
     X:     0.4348      Y:    -1.2784      Z:    -0.0061     Total:     1.3503

*** Psi4 exiting successfully. Buy a developer a beer!
