                               Psi4 1.4a3.dev225

  ==> Input File <==

--------------------------------------------------------------------------
#psi4
#
memory 32 gb

molecule  {
0 1
  O       -0.7087730    -1.1193010    -0.2547420
  O       -0.7528450     2.5455330     0.2012150
  O        1.9863940     1.9788490    -0.3427120
  O        2.9116460    -0.6744970     0.1694850
  O        0.9156910    -2.7263170    -0.0671110
  O       -3.4138470    -0.8877920     0.1898460
  C       -0.3265376     1.2701182    -0.2321209
  C        1.1174820     1.0032940     0.2012350
  C       -1.2273260     0.1250970     0.2312670
  C        1.5822430    -0.3816820    -0.2226620
  C        0.5842200    -1.4279110     0.2862640
  C       -2.6461850     0.2016990    -0.2964600
  H       -0.3421180     1.3022200    -1.3325700
  H        1.1390340     1.0438120     1.3116130
  H       -1.2614040     0.1027740     1.3364960
  H        1.5822050    -0.4262820    -1.3195710
  H        0.5263940    -1.4152120     1.3863080
  H       -2.6088500     0.2174640    -1.3960030
  H       -3.1281860     1.1200450     0.0455410
  H       -0.8261980     2.5111300     1.1738140
  H        1.5071200     2.8252430    -0.2509020
  H        3.0032160    -0.4533580     1.1133610
  H        1.2544120    -2.7122960    -0.9801810
  H       -2.8913510    -1.6827050    -0.0240770
units angstrom
no_reorient  #important for SAPT in psi4, default
symmetry c1  #important for SAPT in psi4, default
}

set PROPERTIES_ORIGIN ["COM"]
properties('MP2/aug-cc-pvtz', properties = ['dipole'])
--------------------------------------------------------------------------

    Molecular point group: c1
  Charge       = 0
  Multiplicity = 1
  Basis Set: AUG-CC-PVTZ
    Blend: AUG-CC-PVTZ
  Basis Set: (AUG-CC-PVTZ AUX)
    Blend: AUG-CC-PVTZ-JKFIT

    Orbital Energies [Eh]
    ---------------------

    Doubly Occupied:

       1A    -20.600713     2A    -20.588541     3A    -20.583528
       4A    -20.579152     5A    -20.577052     6A    -20.562259
       7A    -11.356592     8A    -11.310536     9A    -11.309236
      10A    -11.307576    11A    -11.304919    12A    -11.286860
      13A     -1.439922    14A     -1.410507    15A     -1.388488
      16A     -1.373337    17A     -1.366120    18A     -1.352667
      19A     -1.078453    20A     -1.050182    21A     -0.945312
      22A     -0.891205    23A     -0.853631    24A     -0.842592
      25A     -0.754194    26A     -0.729658    27A     -0.721174
      28A     -0.712634    29A     -0.693340    30A     -0.674194
      31A     -0.659681    32A     -0.654744    33A     -0.624068
      34A     -0.615563    35A     -0.597938    36A     -0.587309
      37A     -0.569737    38A     -0.561961    39A     -0.557579
      40A     -0.543289    41A     -0.527327    42A     -0.517001
      43A     -0.501438    44A     -0.486894    45A     -0.473373
      46A     -0.461129    47A     -0.445755    48A     -0.429327

  @DF-RHF Final Energy:  -683.60393891835429

   => Energetics <=

    Nuclear Repulsion Energy =            824.5475787644660386
    One-Electron Energy =               -2577.3856622938515102
    Two-Electron Energy =                1069.2341446110312972
    Total Energy =                       -683.6039389183542880
  Basis Set: (AUG-CC-PVTZ AUX)
    Blend: AUG-CC-PVTZ-RI
    Molecular point group: c1

    Geometry (in Angstrom), charge = 0, multiplicity = 1:

       Center              X                  Y                   Z               Mass
    ------------   -----------------  -----------------  -----------------  -----------------
         O           -0.719616445240    -1.107123885318    -0.249292006318    15.994914619570
         O           -0.763688445240     2.557710114682     0.206664993682    15.994914619570
         O            1.975550554760     1.991026114682    -0.337262006318    15.994914619570
         O            2.900802554760    -0.662319885318     0.174934993682    15.994914619570
         O            0.904847554760    -2.714139885318    -0.061661006318    15.994914619570
         O           -3.424690445240    -0.875614885318     0.195295993682    15.994914619570
         C           -0.337381045240     1.282295314682    -0.226670906318    12.000000000000
         C            1.106638554760     1.015471114682     0.206684993682    12.000000000000
         C           -1.238169445240     0.137274114682     0.236716993682    12.000000000000
         C            1.571399554760    -0.369504885318    -0.217212006318    12.000000000000
         C            0.573376554760    -1.415733885318     0.291713993682    12.000000000000
         C           -2.657028445240     0.213876114682    -0.291010006318    12.000000000000
         H           -0.352961445240     1.314397114682    -1.327120006318     1.007825032230
         H            1.128190554760     1.055989114682     1.317062993682     1.007825032230
         H           -1.272247445240     0.114951114682     1.341945993682     1.007825032230
         H            1.571361554760    -0.414104885318    -1.314121006318     1.007825032230
         H            0.515550554760    -1.403034885318     1.391757993682     1.007825032230
         H           -2.619693445240     0.229641114682    -1.390553006318     1.007825032230
         H           -3.139029445240     1.132222114682     0.050990993682     1.007825032230
         H           -0.837041445240     2.523307114682     1.179263993682     1.007825032230
         H            1.496276554760     2.837420114682    -0.245452006318     1.007825032230
         H            2.992372554760    -0.441180885318     1.118810993682     1.007825032230
         H            1.243568554760    -2.700118885318    -0.974731006318     1.007825032230
         H           -2.902194445240    -1.670527885318    -0.018627006318     1.007825032230

  Basis Set: AUG-CC-PVTZ
    Blend: AUG-CC-PVTZ
  Basis Set: (AUG-CC-PVTZ AUX)
    Blend: AUG-CC-PVTZ-JKFIT
	 Reference Energy          =    -683.6039389183542880 [Eh]
	 Singles Energy            =      -0.0000000000000000 [Eh]
	 Same-Spin Energy          =      -0.6653908040400192 [Eh]
	 Opposite-Spin Energy      =      -2.0445786113131081 [Eh]
	 Correlation Energy        =      -2.7099694153531271 [Eh]
	 Total Energy              =    -686.3139083337074453 [Eh]

	 ================> DF-SCS-MP2 Energies <==================
	-----------------------------------------------------------
	 SCS Same-Spin Scale       =       0.3333333333333333 [-]
	 SCS Opposite-Spin Scale   =       1.2000000000000000 [-]
	 SCS Same-Spin Energy      =      -0.2217969346800064 [Eh]
	 SCS Opposite-Spin Energy  =      -2.4534943335757298 [Eh]
	 SCS Correlation Energy    =      -2.6752912682557359 [Eh]
	 SCS Total Energy          =    -686.2792301866099933 [Eh]
	-----------------------------------------------------------

  Dipole Moment: [D]
     X:     0.2023      Y:     1.6635      Z:     1.3866     Total:     2.1751

*** Psi4 exiting successfully. Buy a developer a beer!
