                               Psi4 1.4a3.dev225

  ==> Input File <==

--------------------------------------------------------------------------
#psi4
#
memory 32 gb

molecule  {
0 1
  O       -0.7087730    -1.1193010    -0.2547420
  O       -0.7528450     2.5455330     0.2012150
  O        1.9863940     1.9788490    -0.3427120
  O        2.9116460    -0.6744970     0.1694850
  O        0.9156910    -2.7263170    -0.0671110
  O       -3.4138470    -0.8877920     0.1898460
  C       -0.3205030     1.2520640    -0.2382550
  C        1.1052017     0.9895065     0.2089226
  C       -1.2273260     0.1250970     0.2312670
  C        1.5822430    -0.3816820    -0.2226620
  C        0.5842200    -1.4279110     0.2862640
  C       -2.6461850     0.2016990    -0.2964600
  H       -0.3421180     1.3022200    -1.3325700
  H        1.1390340     1.0438120     1.3116130
  H       -1.2614040     0.1027740     1.3364960
  H        1.5822050    -0.4262820    -1.3195710
  H        0.5263940    -1.4152120     1.3863080
  H       -2.6088500     0.2174640    -1.3960030
  H       -3.1281860     1.1200450     0.0455410
  H       -0.8261980     2.5111300     1.1738140
  H        1.5071200     2.8252430    -0.2509020
  H        3.0032160    -0.4533580     1.1133610
  H        1.2544120    -2.7122960    -0.9801810
  H       -2.8913510    -1.6827050    -0.0240770
units angstrom
no_reorient  #important for SAPT in psi4, default
symmetry c1  #important for SAPT in psi4, default
}

set PROPERTIES_ORIGIN ["COM"]
properties('MP2/aug-cc-pvtz', properties = ['dipole'])
--------------------------------------------------------------------------

    Molecular point group: c1
  Charge       = 0
  Multiplicity = 1
  Basis Set: AUG-CC-PVTZ
    Blend: AUG-CC-PVTZ
  Basis Set: (AUG-CC-PVTZ AUX)
    Blend: AUG-CC-PVTZ-JKFIT

    Orbital Energies [Eh]
    ---------------------

    Doubly Occupied:

       1A    -20.598794     2A    -20.588991     3A    -20.583888
       4A    -20.579884     5A    -20.575269     6A    -20.562827
       7A    -11.357065     8A    -11.310977     9A    -11.309524
      10A    -11.308141    11A    -11.305569    12A    -11.287397
      13A     -1.440529    14A     -1.403512    15A     -1.387068
      16A     -1.372341    17A     -1.361651    18A     -1.353216
      19A     -1.083482    20A     -1.052008    21A     -0.946858
      22A     -0.891336    23A     -0.854785    24A     -0.843147
      25A     -0.753495    26A     -0.729422    27A     -0.720431
      28A     -0.710770    29A     -0.693839    30A     -0.674541
      31A     -0.659562    32A     -0.652558    33A     -0.620064
      34A     -0.615759    35A     -0.597913    36A     -0.587412
      37A     -0.567992    38A     -0.561574    39A     -0.556176
      40A     -0.542430    41A     -0.527576    42A     -0.517136
      43A     -0.504333    44A     -0.487579    45A     -0.476170
      46A     -0.463315    47A     -0.447507    48A     -0.430992

  @DF-RHF Final Energy:  -683.60305765431121

   => Energetics <=

    Nuclear Repulsion Energy =            824.7781430582799658
    One-Electron Energy =               -2577.8487879180188429
    Two-Electron Energy =                1069.4675872054276624
    Total Energy =                       -683.6030576543112147
  Basis Set: (AUG-CC-PVTZ AUX)
    Blend: AUG-CC-PVTZ-RI
    Molecular point group: c1

    Geometry (in Angstrom), charge = 0, multiplicity = 1:

       Center              X                  Y                   Z               Mass
    ------------   -----------------  -----------------  -----------------  -----------------
         O           -0.719200211819    -1.105001852605    -0.249395536525    15.994914619570
         O           -0.763272211819     2.559832147395     0.206561463475    15.994914619570
         O            1.975966788181     1.993148147395    -0.337365536525    15.994914619570
         O            2.901218788181    -0.660197852605     0.174831463475    15.994914619570
         O            0.905263788181    -2.712017852605    -0.061764536525    15.994914619570
         O           -3.424274211819    -0.873492852605     0.195192463475    15.994914619570
         C           -0.330930211819     1.266363147395    -0.232908536525    12.000000000000
         C            1.094774488181     1.003805647395     0.214269063475    12.000000000000
         C           -1.237753211819     0.139396147395     0.236613463475    12.000000000000
         C            1.571815788181    -0.367382852605    -0.217315536525    12.000000000000
         C            0.573792788181    -1.413611852605     0.291610463475    12.000000000000
         C           -2.656612211819     0.215998147395    -0.291113536525    12.000000000000
         H           -0.352545211819     1.316519147395    -1.327223536525     1.007825032230
         H            1.128606788181     1.058111147395     1.316959463475     1.007825032230
         H           -1.271831211819     0.117073147395     1.341842463475     1.007825032230
         H            1.571777788181    -0.411982852605    -1.314224536525     1.007825032230
         H            0.515966788181    -1.400912852605     1.391654463475     1.007825032230
         H           -2.619277211819     0.231763147395    -1.390656536525     1.007825032230
         H           -3.138613211819     1.134344147395     0.050887463475     1.007825032230
         H           -0.836625211819     2.525429147395     1.179160463475     1.007825032230
         H            1.496692788181     2.839542147395    -0.245555536525     1.007825032230
         H            2.992788788181    -0.439058852605     1.118707463475     1.007825032230
         H            1.243984788181    -2.697996852605    -0.974834536525     1.007825032230
         H           -2.901778211819    -1.668405852605    -0.018730536525     1.007825032230

  Basis Set: AUG-CC-PVTZ
    Blend: AUG-CC-PVTZ
  Basis Set: (AUG-CC-PVTZ AUX)
    Blend: AUG-CC-PVTZ-JKFIT
	 Reference Energy          =    -683.6030576543112147 [Eh]
	 Singles Energy            =      -0.0000000000000000 [Eh]
	 Same-Spin Energy          =      -0.6655765985016648 [Eh]
	 Opposite-Spin Energy      =      -2.0452766725332645 [Eh]
	 Correlation Energy        =      -2.7108532710349293 [Eh]
	 Total Energy              =    -686.3139109253461356 [Eh]

	 ================> DF-SCS-MP2 Energies <==================
	-----------------------------------------------------------
	 SCS Same-Spin Scale       =       0.3333333333333333 [-]
	 SCS Opposite-Spin Scale   =       1.2000000000000000 [-]
	 SCS Same-Spin Energy      =      -0.2218588661672216 [Eh]
	 SCS Opposite-Spin Energy  =      -2.4543320070399175 [Eh]
	 SCS Correlation Energy    =      -2.6761908732071391 [Eh]
	 SCS Total Energy          =    -686.2792485275183481 [Eh]
	-----------------------------------------------------------

  Dipole Moment: [D]
     X:     0.1815      Y:     1.5496      Z:     1.3983     Total:     2.0951

*** Psi4 exiting successfully. Buy a developer a beer!
