                               Psi4 1.3.2 release

  ==> Input File <==

--------------------------------------------------------------------------
#psi4
#
memory 32 gb

molecule  {
0 1
  O       -0.7087550    -1.1193400    -0.2546710
  O       -0.7529000     2.5454980     0.2011280
  O        1.9863450     1.9788980    -0.3426730
  O        2.9116540    -0.6744470     0.1695670
  O        0.9157630    -2.7262860    -0.0672430
  O       -3.5279198    -0.8315120     0.1132660
  C       -0.3205170     1.2520290    -0.2382820
  C        1.1174580     1.0033160     0.2012620
  C       -1.2273170     0.1250620     0.2312770
  C        1.5822600    -0.3816350    -0.2226430
  C        0.5842790    -1.4279170     0.2862350
  C       -2.6461720     0.2016390    -0.2964840
  H       -0.3421210     1.3021240    -1.3326030
  H        1.1389810     1.0438400     1.3116400
  H       -1.2614020     0.1027960     1.3365120
  H        1.5823060    -0.4261990    -1.3195550
  H        0.5265370    -1.4152780     1.3862880
  H       -2.6088310     0.2173240    -1.3960300
  H       -3.1281770     1.1200080     0.0454480
  H       -0.8264260     2.5110960     1.1737150
  H        1.5069660     2.8252470    -0.2509780
  H        3.0031740    -0.4532420     1.1134330
  H        1.2543330    -2.7122130    -0.9803670
  H       -2.8912910    -1.6827110    -0.0238270
units angstrom
no_reorient  #important for SAPT in psi4, default
symmetry c1  #important for SAPT in psi4, default
}

set PROPERTIES_ORIGIN ["COM"]
properties('MP2/aug-cc-pvtz', properties = ['dipole'])
--------------------------------------------------------------------------

    Molecular point group: c1
  Charge       = 0
  Multiplicity = 1
  Basis Set: AUG-CC-PVTZ
    Blend: AUG-CC-PVTZ
  Basis Set: (AUG-CC-PVTZ AUX)
    Blend: AUG-CC-PVTZ-JKFIT

    Orbital Energies [Eh]
    ---------------------

    Doubly Occupied:

       1A    -20.599145     2A    -20.591269     3A    -20.585181
       4A    -20.580486     5A    -20.578822     6A    -20.572292
       7A    -11.358647     8A    -11.312919     9A    -11.311710
      10A    -11.311414    11A    -11.306544    12A    -11.284769
      13A     -1.441856    14A     -1.406188    15A     -1.388462
      16A     -1.370586    17A     -1.365861    18A     -1.343716
      19A     -1.082450    20A     -1.051790    21A     -0.943185
      22A     -0.892772    23A     -0.852397    24A     -0.842277
      25A     -0.754515    26A     -0.730464    27A     -0.721681
      28A     -0.709752    29A     -0.689134    30A     -0.676361
      31A     -0.658098    32A     -0.649601    33A     -0.620950
      34A     -0.617008    35A     -0.593541    36A     -0.585709
      37A     -0.570163    38A     -0.563454    39A     -0.557816
      40A     -0.544172    41A     -0.526606    42A     -0.518407
      43A     -0.505168    44A     -0.485508    45A     -0.475794
      46A     -0.458794    47A     -0.447363    48A     -0.433643

  @DF-RHF Final Energy:  -683.58785130463264

   => Energetics <=

    Nuclear Repulsion Energy =            822.5077315462389151
    One-Electron Energy =               -2573.2542950861552526
    Two-Electron Energy =                1067.1587122352834740
    Total Energy =                       -683.5878513046327498
  Basis Set: (AUG-CC-PVTZ AUX)
    Blend: AUG-CC-PVTZ-RI
    Molecular point group: c1

    Geometry (in Angstrom), charge = 0, multiplicity = 1:

       Center              X                  Y                   Z               Mass
    ------------   -----------------  -----------------  -----------------  -----------------
         O           -0.709869803315    -1.110959280469    -0.242004804095    15.994914619570
         O           -0.754014803315     2.553878719531     0.213794195905    15.994914619570
         O            1.985230196685     1.987278719531    -0.330006804095    15.994914619570
         O            2.910539196685    -0.666066280469     0.182233195905    15.994914619570
         O            0.914648196685    -2.717905280469    -0.054576804095    15.994914619570
         O           -3.529034603315    -0.823131280469     0.125932195905    15.994914619570
         C           -0.321631803315     1.260409719531    -0.225615804095    12.000000000000
         C            1.116343196685     1.011696719531     0.213928195905    12.000000000000
         C           -1.228431803315     0.133442719531     0.243943195905    12.000000000000
         C            1.581145196685    -0.373254280469    -0.209976804095    12.000000000000
         C            0.583164196685    -1.419536280469     0.298901195905    12.000000000000
         C           -2.647286803315     0.210019719531    -0.283817804095    12.000000000000
         H           -0.343235803315     1.310504719531    -1.319936804095     1.007825032230
         H            1.137866196685     1.052220719531     1.324306195905     1.007825032230
         H           -1.262516803315     0.111176719531     1.349178195905     1.007825032230
         H            1.581191196685    -0.417818280469    -1.306888804095     1.007825032230
         H            0.525422196685    -1.406897280469     1.398954195905     1.007825032230
         H           -2.609945803315     0.225704719531    -1.383363804095     1.007825032230
         H           -3.129291803315     1.128388719531     0.058114195905     1.007825032230
         H           -0.827540803315     2.519476719531     1.186381195905     1.007825032230
         H            1.505851196685     2.833627719531    -0.238311804095     1.007825032230
         H            3.002059196685    -0.444861280469     1.126099195905     1.007825032230
         H            1.253218196685    -2.703832280469    -0.967700804095     1.007825032230
         H           -2.892405803315    -1.674330280469    -0.011160804095     1.007825032230

  Basis Set: AUG-CC-PVTZ
    Blend: AUG-CC-PVTZ
  Basis Set: (AUG-CC-PVTZ AUX)
    Blend: AUG-CC-PVTZ-JKFIT
	 Reference Energy          =    -683.5878513046326361 [Eh]
	 Singles Energy            =      -0.0000000000000000 [Eh]
	 Same-Spin Energy          =      -0.6668658686626652 [Eh]
	 Opposite-Spin Energy      =      -2.0486105689799006 [Eh]
	 Correlation Energy        =      -2.7154764376425655 [Eh]
	 Total Energy              =    -686.3033277422752008 [Eh]

	 ================> DF-SCS-MP2 Energies <==================
	-----------------------------------------------------------
	 SCS Same-Spin Scale       =       0.3333333333333333 [-]
	 SCS Opposite-Spin Scale   =       1.2000000000000000 [-]
	 SCS Same-Spin Energy      =      -0.2222886228875550 [Eh]
	 SCS Opposite-Spin Energy  =      -2.4583326827758807 [Eh]
	 SCS Correlation Energy    =      -2.6806213056634358 [Eh]
	 SCS Total Energy          =    -686.2684726102960440 [Eh]
	-----------------------------------------------------------

  Dipole Moment: [D]
     X:     0.5018      Y:     1.5305      Z:     1.5675     Total:     2.2476

*** Psi4 exiting successfully. Buy a developer a beer!
