                               Psi4 1.3.2 release

  ==> Input File <==

--------------------------------------------------------------------------
#psi4
#
memory 32 gb

molecule  {
0 1
  O       -0.7087550    -1.1193400    -0.2546710
  O       -0.7529000     2.5454980     0.2011280
  O        1.9863450     1.9788980    -0.3426730
  O        2.9116540    -0.6744470     0.1695670
  O        0.9157630    -2.7262860    -0.0672430
  O       -3.4138550    -0.8877920     0.1899090
  C       -0.3205170     1.2520290    -0.2382820
  C        1.1174580     1.0033160     0.2012620
  C       -1.2273170     0.1250620     0.2312770
  C        1.5822600    -0.3816350    -0.2226430
  C        0.6277905    -1.3887762     0.1535054
  C       -2.6461720     0.2016390    -0.2964840
  H       -0.3421210     1.3021240    -1.3326030
  H        1.1389810     1.0438400     1.3116400
  H       -1.2614020     0.1027960     1.3365120
  H        1.5823060    -0.4261990    -1.3195550
  H        0.5265370    -1.4152780     1.3862880
  H       -2.6088310     0.2173240    -1.3960300
  H       -3.1281770     1.1200080     0.0454480
  H       -0.8264260     2.5110960     1.1737150
  H        1.5069660     2.8252470    -0.2509780
  H        3.0031740    -0.4532420     1.1134330
  H        1.2543330    -2.7122130    -0.9803670
  H       -2.8912910    -1.6827110    -0.0238270
units angstrom
no_reorient  #important for SAPT in psi4, default
symmetry c1  #important for SAPT in psi4, default
}

set PROPERTIES_ORIGIN ["COM"]
properties('MP2/aug-cc-pvtz', properties = ['dipole'])
--------------------------------------------------------------------------

    Molecular point group: c1
  Charge       = 0
  Multiplicity = 1
  Basis Set: AUG-CC-PVTZ
    Blend: AUG-CC-PVTZ
  Basis Set: (AUG-CC-PVTZ AUX)
    Blend: AUG-CC-PVTZ-JKFIT

    Orbital Energies [Eh]
    ---------------------

    Doubly Occupied:

       1A    -20.599766     2A    -20.591688     3A    -20.591096
       4A    -20.583345     5A    -20.579641     6A    -20.563347
       7A    -11.363657     8A    -11.313758     9A    -11.312353
      10A    -11.309307    11A    -11.306026    12A    -11.288144
      13A     -1.447143    14A     -1.407208    15A     -1.391628
      16A     -1.376447    17A     -1.368779    18A     -1.356285
      19A     -1.089115    20A     -1.062068    21A     -0.955425
      22A     -0.886212    23A     -0.858667    24A     -0.838062
      25A     -0.755164    26A     -0.735688    27A     -0.724926
      28A     -0.708981    29A     -0.694672    30A     -0.681701
      31A     -0.664560    32A     -0.645950    33A     -0.622550
      34A     -0.616923    35A     -0.602304    36A     -0.590273
      37A     -0.575260    38A     -0.561912    39A     -0.557351
      40A     -0.545590    41A     -0.525439    42A     -0.517573
      43A     -0.495050    44A     -0.486753    45A     -0.473139
      46A     -0.465446    47A     -0.445730    48A     -0.433743

  @DF-RHF Final Energy:  -683.57857769725490

   => Energetics <=

    Nuclear Repulsion Energy =            826.0658498995862828
    One-Electron Energy =               -2580.1571683979636873
    Two-Electron Energy =                1070.5127408011226180
    Total Energy =                       -683.5785776972547865
  Basis Set: (AUG-CC-PVTZ AUX)
    Blend: AUG-CC-PVTZ-RI
    Molecular point group: c1

    Geometry (in Angstrom), charge = 0, multiplicity = 1:

       Center              X                  Y                   Z               Mass
    ------------   -----------------  -----------------  -----------------  -----------------
         O           -0.722901851428    -1.108568432450    -0.239967427354    15.994914619570
         O           -0.767046851428     2.556269567550     0.215831572646    15.994914619570
         O            1.972198148572     1.989669567550    -0.327969427354    15.994914619570
         O            2.897507148572    -0.663675432450     0.184270572646    15.994914619570
         O            0.901616148572    -2.715514432450    -0.052539427354    15.994914619570
         O           -3.428001851428    -0.877020432450     0.204612572646    15.994914619570
         C           -0.334663851428     1.262800567550    -0.223578427354    12.000000000000
         C            1.103311148572     1.014087567550     0.215965572646    12.000000000000
         C           -1.241463851428     0.135833567550     0.245980572646    12.000000000000
         C            1.568113148572    -0.370863432450    -0.207939427354    12.000000000000
         C            0.613643648572    -1.378004632450     0.168208972646    12.000000000000
         C           -2.660318851428     0.212410567550    -0.281780427354    12.000000000000
         H           -0.356267851428     1.312895567550    -1.317899427354     1.007825032230
         H            1.124834148572     1.054611567550     1.326343572646     1.007825032230
         H           -1.275548851428     0.113567567550     1.351215572646     1.007825032230
         H            1.568159148572    -0.415427432450    -1.304851427354     1.007825032230
         H            0.512390148572    -1.404506432450     1.400991572646     1.007825032230
         H           -2.622977851428     0.228095567550    -1.381326427354     1.007825032230
         H           -3.142323851428     1.130779567550     0.060151572646     1.007825032230
         H           -0.840572851428     2.521867567550     1.188418572646     1.007825032230
         H            1.492819148572     2.836018567550    -0.236274427354     1.007825032230
         H            2.989027148572    -0.442470432450     1.128136572646     1.007825032230
         H            1.240186148572    -2.701441432450    -0.965663427354     1.007825032230
         H           -2.905437851428    -1.671939432450    -0.009123427354     1.007825032230

  Basis Set: AUG-CC-PVTZ
    Blend: AUG-CC-PVTZ
  Basis Set: (AUG-CC-PVTZ AUX)
    Blend: AUG-CC-PVTZ-JKFIT
	 Reference Energy          =    -683.5785776972549002 [Eh]
	 Singles Energy            =      -0.0000000000000000 [Eh]
	 Same-Spin Energy          =      -0.6671177348262807 [Eh]
	 Opposite-Spin Energy      =      -2.0474269222728081 [Eh]
	 Correlation Energy        =      -2.7145446570990890 [Eh]
	 Total Energy              =    -686.2931223543539545 [Eh]

	 ================> DF-SCS-MP2 Energies <==================
	-----------------------------------------------------------
	 SCS Same-Spin Scale       =       0.3333333333333333 [-]
	 SCS Opposite-Spin Scale   =       1.2000000000000000 [-]
	 SCS Same-Spin Energy      =      -0.2223725782754269 [Eh]
	 SCS Opposite-Spin Energy  =      -2.4569123067273697 [Eh]
	 SCS Correlation Energy    =      -2.6792848850027964 [Eh]
	 SCS Total Energy          =    -686.2578625822576441 [Eh]
	-----------------------------------------------------------

  Dipole Moment: [D]
     X:     0.2608      Y:     1.7160      Z:     1.0457     Total:     2.0264

*** Psi4 exiting successfully. Buy a developer a beer!
