                               Psi4 1.3.2 release

  ==> Input File <==

--------------------------------------------------------------------------
#psi4
#
memory 32 gb

molecule  {
0 1
  O       -0.7087550    -1.1193400    -0.2546710
  O       -0.7529000     2.5454980     0.2011280
  O        1.9863450     1.9788980    -0.3426730
  O        2.9116540    -0.6744470     0.1695670
  O        0.9157630    -2.7262860    -0.0672430
  O       -3.4138550    -0.8877920     0.1899090
  C       -0.3205170     1.2520290    -0.2382820
  C        1.1174580     1.0033160     0.2012620
  C       -1.1798670     0.1251884     0.0798806
  C        1.5822600    -0.3816350    -0.2226430
  C        0.5842790    -1.4279170     0.2862350
  C       -2.6461720     0.2016390    -0.2964840
  H       -0.3421210     1.3021240    -1.3326030
  H        1.1389810     1.0438400     1.3116400
  H       -1.2614020     0.1027960     1.3365120
  H        1.5823060    -0.4261990    -1.3195550
  H        0.5265370    -1.4152780     1.3862880
  H       -2.6088310     0.2173240    -1.3960300
  H       -3.1281770     1.1200080     0.0454480
  H       -0.8264260     2.5110960     1.1737150
  H        1.5069660     2.8252470    -0.2509780
  H        3.0031740    -0.4532420     1.1134330
  H        1.2543330    -2.7122130    -0.9803670
  H       -2.8912910    -1.6827110    -0.0238270
units angstrom
no_reorient  #important for SAPT in psi4, default
symmetry c1  #important for SAPT in psi4, default
}

set PROPERTIES_ORIGIN ["COM"]
properties('MP2/aug-cc-pvtz', properties = ['dipole'])
--------------------------------------------------------------------------

    Molecular point group: c1
  Charge       = 0
  Multiplicity = 1
  Basis Set: AUG-CC-PVTZ
    Blend: AUG-CC-PVTZ
  Basis Set: (AUG-CC-PVTZ AUX)
    Blend: AUG-CC-PVTZ-JKFIT

    Orbital Energies [Eh]
    ---------------------

    Doubly Occupied:

       1A    -20.601971     2A    -20.597190     3A    -20.587810
       4A    -20.581788     5A    -20.578292     6A    -20.565476
       7A    -11.362029     8A    -11.316905     9A    -11.311912
      10A    -11.309688    11A    -11.308410    12A    -11.288716
      13A     -1.455953    14A     -1.407287    15A     -1.392997
      16A     -1.378280    17A     -1.367569    18A     -1.359140
      19A     -1.091614    20A     -1.057437    21A     -0.948943
      22A     -0.902047    23A     -0.860376    24A     -0.832046
      25A     -0.760980    26A     -0.737538    27A     -0.723913
      28A     -0.711594    29A     -0.702289    30A     -0.673008
      31A     -0.666748    32A     -0.656322    33A     -0.624036
      34A     -0.618270    35A     -0.600284    36A     -0.584268
      37A     -0.573646    38A     -0.564886    39A     -0.557039
      40A     -0.542939    41A     -0.535802    42A     -0.521373
      43A     -0.503839    44A     -0.484929    45A     -0.471779
      46A     -0.461458    47A     -0.437404    48A     -0.426783

  @DF-RHF Final Energy:  -683.57950883263413

   => Energetics <=

    Nuclear Repulsion Energy =            826.2843297823661715
    One-Electron Energy =               -2580.5176771940782601
    Two-Electron Energy =                1070.6538385790779557
    Total Energy =                       -683.5795088326342466
  Basis Set: (AUG-CC-PVTZ AUX)
    Blend: AUG-CC-PVTZ-RI
    Molecular point group: c1

    Geometry (in Angstrom), charge = 0, multiplicity = 1:

       Center              X                  Y                   Z               Mass
    ------------   -----------------  -----------------  -----------------  -----------------
         O           -0.723164325663    -1.105968388072    -0.238723412108    15.994914619570
         O           -0.767309325663     2.558869611928     0.217075587892    15.994914619570
         O            1.971935674337     1.992269611928    -0.326725412108    15.994914619570
         O            2.897244674337    -0.661075388072     0.185514587892    15.994914619570
         O            0.901353674337    -2.712914388072    -0.051295412108    15.994914619570
         O           -3.428264325663    -0.874420388072     0.205856587892    15.994914619570
         C           -0.334926325663     1.265400611928    -0.222334412108    12.000000000000
         C            1.103048674337     1.016687611928     0.217209587892    12.000000000000
         C           -1.194276325663     0.138560011928     0.095828187892    12.000000000000
         C            1.567850674337    -0.368263388072    -0.206695412108    12.000000000000
         C            0.569869674337    -1.414545388072     0.302182587892    12.000000000000
         C           -2.660581325663     0.215010611928    -0.280536412108    12.000000000000
         H           -0.356530325663     1.315495611928    -1.316655412108     1.007825032230
         H            1.124571674337     1.057211611928     1.327587587892     1.007825032230
         H           -1.275811325663     0.116167611928     1.352459587892     1.007825032230
         H            1.567896674337    -0.412827388072    -1.303607412108     1.007825032230
         H            0.512127674337    -1.401906388072     1.402235587892     1.007825032230
         H           -2.623240325663     0.230695611928    -1.380082412108     1.007825032230
         H           -3.142586325663     1.133379611928     0.061395587892     1.007825032230
         H           -0.840835325663     2.524467611928     1.189662587892     1.007825032230
         H            1.492556674337     2.838618611928    -0.235030412108     1.007825032230
         H            2.988764674337    -0.439870388072     1.129380587892     1.007825032230
         H            1.239923674337    -2.698841388072    -0.964419412108     1.007825032230
         H           -2.905700325663    -1.669339388072    -0.007879412108     1.007825032230

  Basis Set: AUG-CC-PVTZ
    Blend: AUG-CC-PVTZ
  Basis Set: (AUG-CC-PVTZ AUX)
    Blend: AUG-CC-PVTZ-JKFIT
	 Reference Energy          =    -683.5795088326341329 [Eh]
	 Singles Energy            =      -0.0000000000000000 [Eh]
	 Same-Spin Energy          =      -0.6668152420040423 [Eh]
	 Opposite-Spin Energy      =      -2.0461881711867180 [Eh]
	 Correlation Energy        =      -2.7130034131907603 [Eh]
	 Total Energy              =    -686.2925122458249234 [Eh]

	 ================> DF-SCS-MP2 Energies <==================
	-----------------------------------------------------------
	 SCS Same-Spin Scale       =       0.3333333333333333 [-]
	 SCS Opposite-Spin Scale   =       1.2000000000000000 [-]
	 SCS Same-Spin Energy      =      -0.2222717473346807 [Eh]
	 SCS Opposite-Spin Energy  =      -2.4554258054240616 [Eh]
	 SCS Correlation Energy    =      -2.6776975527587425 [Eh]
	 SCS Total Energy          =    -686.2572063853929194 [Eh]
	-----------------------------------------------------------

  Dipole Moment: [D]
     X:     0.4173      Y:     1.4508      Z:     1.0745     Total:     1.8529

*** Psi4 exiting successfully. Buy a developer a beer!
