                               Psi4 1.3.2 release

  ==> Input File <==

--------------------------------------------------------------------------
#psi4
#
memory 32 gb

molecule  {
0 1
  O       -0.7087550    -1.1193400    -0.2546710
  O       -0.7619771     2.5712794     0.1049229
  O        1.9863450     1.9788980    -0.3426730
  O        2.9116540    -0.6744470     0.1695670
  O        0.9157630    -2.7262860    -0.0672430
  O       -3.4138550    -0.8877920     0.1899090
  C       -0.3205170     1.2520290    -0.2382820
  C        1.1174580     1.0033160     0.2012620
  C       -1.2273170     0.1250620     0.2312770
  C        1.5822600    -0.3816350    -0.2226430
  C        0.5842790    -1.4279170     0.2862350
  C       -2.6461720     0.2016390    -0.2964840
  H       -0.3421210     1.3021240    -1.3326030
  H        1.1389810     1.0438400     1.3116400
  H       -1.2614020     0.1027960     1.3365120
  H        1.5823060    -0.4261990    -1.3195550
  H        0.5265370    -1.4152780     1.3862880
  H       -2.6088310     0.2173240    -1.3960300
  H       -3.1281770     1.1200080     0.0454480
  H       -0.8264260     2.5110960     1.1737150
  H        1.5069660     2.8252470    -0.2509780
  H        3.0031740    -0.4532420     1.1134330
  H        1.2543330    -2.7122130    -0.9803670
  H       -2.8912910    -1.6827110    -0.0238270
units angstrom
no_reorient  #important for SAPT in psi4, default
symmetry c1  #important for SAPT in psi4, default
}

set PROPERTIES_ORIGIN ["COM"]
properties('MP2/aug-cc-pvtz', properties = ['dipole'])
--------------------------------------------------------------------------

    Molecular point group: c1
  Charge       = 0
  Multiplicity = 1
  Basis Set: AUG-CC-PVTZ
    Blend: AUG-CC-PVTZ
  Basis Set: (AUG-CC-PVTZ AUX)
    Blend: AUG-CC-PVTZ-JKFIT

    Orbital Energies [Eh]
    ---------------------

    Doubly Occupied:

       1A    -20.609952     2A    -20.589358     3A    -20.584152
       4A    -20.579748     5A    -20.577505     6A    -20.562753
       7A    -11.357375     8A    -11.310797     9A    -11.309139
      10A    -11.308486    11A    -11.305803    12A    -11.287335
      13A     -1.440463    14A     -1.398932    15A     -1.385526
      16A     -1.370638    17A     -1.363389    18A     -1.353288
      19A     -1.079062    20A     -1.050990    21A     -0.944535
      22A     -0.888679    23A     -0.854649    24A     -0.838907
      25A     -0.753372    26A     -0.729966    27A     -0.721023
      28A     -0.701934    29A     -0.687863    30A     -0.675221
      31A     -0.660404    32A     -0.654847    33A     -0.621841
      34A     -0.608996    35A     -0.595706    36A     -0.587978
      37A     -0.570791    38A     -0.560997    39A     -0.556143
      40A     -0.539898    41A     -0.527735    42A     -0.517743
      43A     -0.502835    44A     -0.487794    45A     -0.474239
      46A     -0.462619    47A     -0.447156    48A     -0.431352

  @DF-RHF Final Energy:  -683.58830359184708

   => Energetics <=

    Nuclear Repulsion Energy =            823.8601527962044884
    One-Electron Energy =               -2576.0370934535026208
    Two-Electron Energy =                1068.5886370654509392
    Total Energy =                       -683.5883035918470796
  Basis Set: (AUG-CC-PVTZ AUX)
    Blend: AUG-CC-PVTZ-RI
    Molecular point group: c1

    Geometry (in Angstrom), charge = 0, multiplicity = 1:

       Center              X                  Y                   Z               Mass
    ------------   -----------------  -----------------  -----------------  -----------------
         O           -0.719195792986    -1.108250109504    -0.240267115370    15.994914619570
         O           -0.772417892986     2.582369290496     0.119326784630    15.994914619570
         O            1.975904207014     1.989987890496    -0.328269115370    15.994914619570
         O            2.901213207014    -0.663357109504     0.183970884630    15.994914619570
         O            0.905322207014    -2.715196109504    -0.052839115370    15.994914619570
         O           -3.424295792986    -0.876702109504     0.204312884630    15.994914619570
         C           -0.330957792986     1.263118890496    -0.223878115370    12.000000000000
         C            1.107017207014     1.014405890496     0.215665884630    12.000000000000
         C           -1.237757792986     0.136151890496     0.245680884630    12.000000000000
         C            1.571819207014    -0.370545109504    -0.208239115370    12.000000000000
         C            0.573838207014    -1.416827109504     0.300638884630    12.000000000000
         C           -2.656612792986     0.212728890496    -0.282080115370    12.000000000000
         H           -0.352561792986     1.313213890496    -1.318199115370     1.007825032230
         H            1.128540207014     1.054929890496     1.326043884630     1.007825032230
         H           -1.271842792986     0.113885890496     1.350915884630     1.007825032230
         H            1.571865207014    -0.415109109504    -1.305151115370     1.007825032230
         H            0.516096207014    -1.404188109504     1.400691884630     1.007825032230
         H           -2.619271792986     0.228413890496    -1.381626115370     1.007825032230
         H           -3.138617792986     1.131097890496     0.059851884630     1.007825032230
         H           -0.836866792986     2.522185890496     1.188118884630     1.007825032230
         H            1.496525207014     2.836336890496    -0.236574115370     1.007825032230
         H            2.992733207014    -0.442152109504     1.127836884630     1.007825032230
         H            1.243892207014    -2.701123109504    -0.965963115370     1.007825032230
         H           -2.901731792986    -1.671621109504    -0.009423115370     1.007825032230

  Basis Set: AUG-CC-PVTZ
    Blend: AUG-CC-PVTZ
  Basis Set: (AUG-CC-PVTZ AUX)
    Blend: AUG-CC-PVTZ-JKFIT
	 Reference Energy          =    -683.5883035918470796 [Eh]
	 Singles Energy            =      -0.0000000000000000 [Eh]
	 Same-Spin Energy          =      -0.6670005577153941 [Eh]
	 Opposite-Spin Energy      =      -2.0489288781663157 [Eh]
	 Correlation Energy        =      -2.7159294358817099 [Eh]
	 Total Energy              =    -686.3042330277287419 [Eh]

	 ================> DF-SCS-MP2 Energies <==================
	-----------------------------------------------------------
	 SCS Same-Spin Scale       =       0.3333333333333333 [-]
	 SCS Opposite-Spin Scale   =       1.2000000000000000 [-]
	 SCS Same-Spin Energy      =      -0.2223335192384647 [Eh]
	 SCS Opposite-Spin Energy  =      -2.4587146537995790 [Eh]
	 SCS Correlation Energy    =      -2.6810481730380435 [Eh]
	 SCS Total Energy          =    -686.2693517648850730 [Eh]
	-----------------------------------------------------------

  Dipole Moment: [D]
     X:     0.2336      Y:     1.5755      Z:     1.4599     Total:     2.1606

*** Psi4 exiting successfully. Buy a developer a beer!
