                               Psi4 1.3.2 release

  ==> Input File <==

--------------------------------------------------------------------------
#psi4
#
memory 32 gb

molecule  {
0 1
  O       -0.7087550    -1.1193400    -0.2546710
  O       -0.7529000     2.5454980     0.2011280
  O        1.9863450     1.9788980    -0.3426730
  O        2.9116540    -0.6744470     0.1695670
  O        0.9157630    -2.7262860    -0.0672430
  O       -3.4138550    -0.8877920     0.1899090
  C       -0.3506931     1.3423006    -0.2076154
  C        1.1174580     1.0033160     0.2012620
  C       -1.2273170     0.1250620     0.2312770
  C        1.5822600    -0.3816350    -0.2226430
  C        0.5842790    -1.4279170     0.2862350
  C       -2.6461720     0.2016390    -0.2964840
  H       -0.3421210     1.3021240    -1.3326030
  H        1.1389810     1.0438400     1.3116400
  H       -1.2614020     0.1027960     1.3365120
  H        1.5823060    -0.4261990    -1.3195550
  H        0.5265370    -1.4152780     1.3862880
  H       -2.6088310     0.2173240    -1.3960300
  H       -3.1281770     1.1200080     0.0454480
  H       -0.8264260     2.5110960     1.1737150
  H        1.5069660     2.8252470    -0.2509780
  H        3.0031740    -0.4532420     1.1134330
  H        1.2543330    -2.7122130    -0.9803670
  H       -2.8912910    -1.6827110    -0.0238270
units angstrom
no_reorient  #important for SAPT in psi4, default
symmetry c1  #important for SAPT in psi4, default
}

set PROPERTIES_ORIGIN ["COM"]
properties('MP2/aug-cc-pvtz', properties = ['dipole'])
--------------------------------------------------------------------------

    Molecular point group: c1
  Charge       = 0
  Multiplicity = 1
  Basis Set: AUG-CC-PVTZ
    Blend: AUG-CC-PVTZ
  Basis Set: (AUG-CC-PVTZ AUX)
    Blend: AUG-CC-PVTZ-JKFIT

    Orbital Energies [Eh]
    ---------------------

    Doubly Occupied:

       1A    -20.610076     2A    -20.588551     3A    -20.582453
       4A    -20.578658     5A    -20.575351     6A    -20.560401
       7A    -11.355308     8A    -11.312165     9A    -11.307153
      10A    -11.305706    11A    -11.304193    12A    -11.285095
      13A     -1.446990    14A     -1.434247    15A     -1.389033
      16A     -1.373690    17A     -1.365650    18A     -1.350996
      19A     -1.068704    20A     -1.046726    21A     -0.942484
      22A     -0.891876    23A     -0.850543    24A     -0.845018
      25A     -0.756713    26A     -0.730504    27A     -0.722451
      28A     -0.722163    29A     -0.694164    30A     -0.672777
      31A     -0.658452    32A     -0.653845    33A     -0.641042
      34A     -0.614458    35A     -0.597237    36A     -0.587283
      37A     -0.569212    38A     -0.567531    39A     -0.556890
      40A     -0.541812    41A     -0.526299    42A     -0.516766
      43A     -0.495168    44A     -0.485152    45A     -0.468083
      46A     -0.457034    47A     -0.443170    48A     -0.419238

  @DF-RHF Final Energy:  -683.59541704610501

   => Energetics <=

    Nuclear Repulsion Energy =            824.1196118497000498
    One-Electron Energy =               -2576.4930433050608372
    Two-Electron Energy =                1068.7780144092557748
    Total Energy =                       -683.5954170461050126
  Basis Set: (AUG-CC-PVTZ AUX)
    Blend: AUG-CC-PVTZ-RI
    Molecular point group: c1

    Geometry (in Angstrom), charge = 0, multiplicity = 1:

       Center              X                  Y                   Z               Mass
    ------------   -----------------  -----------------  -----------------  -----------------
         O           -0.717991074122    -1.111975952471    -0.250856672639    15.994914619570
         O           -0.762136074122     2.552862047529     0.204942327361    15.994914619570
         O            1.977108925878     1.986262047529    -0.338858672639    15.994914619570
         O            2.902417925878    -0.667082952471     0.173381327361    15.994914619570
         O            0.906526925878    -2.718921952471    -0.063428672639    15.994914619570
         O           -3.423091074122    -0.880427952471     0.193723327361    15.994914619570
         C           -0.359929174122     1.349664647529    -0.203801072639    12.000000000000
         C            1.108221925878     1.010680047529     0.205076327361    12.000000000000
         C           -1.236553074122     0.132426047529     0.235091327361    12.000000000000
         C            1.573023925878    -0.374270952471    -0.218828672639    12.000000000000
         C            0.575042925878    -1.420552952471     0.290049327361    12.000000000000
         C           -2.655408074122     0.209003047529    -0.292669672639    12.000000000000
         H           -0.351357074122     1.309488047529    -1.328788672639     1.007825032230
         H            1.129744925878     1.051204047529     1.315454327361     1.007825032230
         H           -1.270638074122     0.110160047529     1.340326327361     1.007825032230
         H            1.573069925878    -0.418834952471    -1.315740672639     1.007825032230
         H            0.517300925878    -1.407913952471     1.390102327361     1.007825032230
         H           -2.618067074122     0.224688047529    -1.392215672639     1.007825032230
         H           -3.137413074122     1.127372047529     0.049262327361     1.007825032230
         H           -0.835662074122     2.518460047529     1.177529327361     1.007825032230
         H            1.497729925878     2.832611047529    -0.247163672639     1.007825032230
         H            2.993937925878    -0.445877952471     1.117247327361     1.007825032230
         H            1.245096925878    -2.704848952471    -0.976552672639     1.007825032230
         H           -2.900527074122    -1.675346952471    -0.020012672639     1.007825032230

  Basis Set: AUG-CC-PVTZ
    Blend: AUG-CC-PVTZ
  Basis Set: (AUG-CC-PVTZ AUX)
    Blend: AUG-CC-PVTZ-JKFIT
	 Reference Energy          =    -683.5954170461050126 [Eh]
	 Singles Energy            =      -0.0000000000000000 [Eh]
	 Same-Spin Energy          =      -0.6654812979322495 [Eh]
	 Opposite-Spin Energy      =      -2.0440159087267293 [Eh]
	 Correlation Energy        =      -2.7094972066589786 [Eh]
	 Total Energy              =    -686.3049142527639788 [Eh]

	 ================> DF-SCS-MP2 Energies <==================
	-----------------------------------------------------------
	 SCS Same-Spin Scale       =       0.3333333333333333 [-]
	 SCS Opposite-Spin Scale   =       1.2000000000000000 [-]
	 SCS Same-Spin Energy      =      -0.2218270993107498 [Eh]
	 SCS Opposite-Spin Energy  =      -2.4528190904720750 [Eh]
	 SCS Correlation Energy    =      -2.6746461897828251 [Eh]
	 SCS Total Energy          =    -686.2700632358878465 [Eh]
	-----------------------------------------------------------

  Dipole Moment: [D]
     X:     0.1334      Y:     1.9315      Z:     1.4618     Total:     2.4260

*** Psi4 exiting successfully. Buy a developer a beer!
