                               Psi4 1.3.2 release

  ==> Input File <==

--------------------------------------------------------------------------
#psi4
#
memory 32 gb

molecule  {
0 1
  O       -0.7087550    -1.1193400    -0.2546710
  O       -0.7529000     2.5454980     0.2011280
  O        1.9863450     1.9788980    -0.3426730
  O        2.9116540    -0.6744470     0.1695670
  O        0.9157630    -2.7262860    -0.0672430
  O       -3.4138550    -0.8877920     0.1899090
  C       -0.3205170     1.2520290    -0.2382820
  C        1.1174580     1.0033160     0.2012620
  C       -1.2273170     0.1250620     0.2312770
  C        1.5822600    -0.3816350    -0.2226430
  C        0.5842790    -1.4279170     0.2862350
  C       -2.5525655     0.1965870    -0.2616659
  H       -0.3421210     1.3021240    -1.3326030
  H        1.1389810     1.0438400     1.3116400
  H       -1.2614020     0.1027960     1.3365120
  H        1.5823060    -0.4261990    -1.3195550
  H        0.5265370    -1.4152780     1.3862880
  H       -2.6088310     0.2173240    -1.3960300
  H       -3.1281770     1.1200080     0.0454480
  H       -0.8264260     2.5110960     1.1737150
  H        1.5069660     2.8252470    -0.2509780
  H        3.0031740    -0.4532420     1.1134330
  H        1.2543330    -2.7122130    -0.9803670
  H       -2.8912910    -1.6827110    -0.0238270
units angstrom
no_reorient  #important for SAPT in psi4, default
symmetry c1  #important for SAPT in psi4, default
}

set PROPERTIES_ORIGIN ["COM"]
properties('MP2/aug-cc-pvtz', properties = ['dipole'])
--------------------------------------------------------------------------

    Molecular point group: c1
  Charge       = 0
  Multiplicity = 1
  Basis Set: AUG-CC-PVTZ
    Blend: AUG-CC-PVTZ
  Basis Set: (AUG-CC-PVTZ AUX)
    Blend: AUG-CC-PVTZ-JKFIT

    Orbital Energies [Eh]
    ---------------------

    Doubly Occupied:

       1A    -20.599775     2A    -20.590009     3A    -20.584644
       4A    -20.580242     5A    -20.578905     6A    -20.560906
       7A    -11.358025     8A    -11.313332     9A    -11.311461
      10A    -11.306911    11A    -11.306280    12A    -11.288478
      13A     -1.442504    14A     -1.406665    15A     -1.389098
      16A     -1.372077    17A     -1.366401    18A     -1.344619
      19A     -1.088247    20A     -1.064225    21A     -0.951162
      22A     -0.893434    23A     -0.851574    24A     -0.840934
      25A     -0.756026    26A     -0.732845    27A     -0.723200
      28A     -0.711614    29A     -0.694129    30A     -0.681041
      31A     -0.658883    32A     -0.650920    33A     -0.621585
      34A     -0.615052    35A     -0.589470    36A     -0.584708
      37A     -0.569532    38A     -0.563234    39A     -0.557398
      40A     -0.544450    41A     -0.527522    42A     -0.518100
      43A     -0.502862    44A     -0.488742    45A     -0.475977
      46A     -0.457769    47A     -0.453172    48A     -0.434419

  @DF-RHF Final Energy:  -683.59082232302478

   => Energetics <=

    Nuclear Repulsion Energy =            826.4972326476195121
    One-Electron Energy =               -2581.1709928948826018
    Two-Electron Energy =                1071.0829379242381947
    Total Energy =                       -683.5908223230248950
  Basis Set: (AUG-CC-PVTZ AUX)
    Blend: AUG-CC-PVTZ-RI
    Molecular point group: c1

    Geometry (in Angstrom), charge = 0, multiplicity = 1:

       Center              X                  Y                   Z               Mass
    ------------   -----------------  -----------------  -----------------  -----------------
         O           -0.726240342425    -1.105623282936    -0.251133341875    15.994914619570
         O           -0.770385342425     2.559214717064     0.204665658125    15.994914619570
         O            1.968859657575     1.992614717064    -0.339135341875    15.994914619570
         O            2.894168657575    -0.660730282936     0.173104658125    15.994914619570
         O            0.898277657575    -2.712569282936    -0.063705341875    15.994914619570
         O           -3.431340342425    -0.874075282936     0.193446658125    15.994914619570
         C           -0.338002342425     1.265745717064    -0.234744341875    12.000000000000
         C            1.099972657575     1.017032717064     0.204799658125    12.000000000000
         C           -1.244802342425     0.138778717064     0.234814658125    12.000000000000
         C            1.564774657575    -0.367918282936    -0.219105341875    12.000000000000
         C            0.566793657575    -1.414200282936     0.289772658125    12.000000000000
         C           -2.570050842425     0.210303717064    -0.258128241875    12.000000000000
         H           -0.359606342425     1.315840717064    -1.329065341875     1.007825032230
         H            1.121495657575     1.057556717064     1.315177658125     1.007825032230
         H           -1.278887342425     0.116512717064     1.340049658125     1.007825032230
         H            1.564820657575    -0.412482282936    -1.316017341875     1.007825032230
         H            0.509051657575    -1.401561282936     1.389825658125     1.007825032230
         H           -2.626316342425     0.231040717064    -1.392492341875     1.007825032230
         H           -3.145662342425     1.133724717064     0.048985658125     1.007825032230
         H           -0.843911342425     2.524812717064     1.177252658125     1.007825032230
         H            1.489480657575     2.838963717064    -0.247440341875     1.007825032230
         H            2.985688657575    -0.439525282936     1.116970658125     1.007825032230
         H            1.236847657575    -2.698496282936    -0.976829341875     1.007825032230
         H           -2.908776342425    -1.668994282936    -0.020289341875     1.007825032230

  Basis Set: AUG-CC-PVTZ
    Blend: AUG-CC-PVTZ
  Basis Set: (AUG-CC-PVTZ AUX)
    Blend: AUG-CC-PVTZ-JKFIT
	 Reference Energy          =    -683.5908223230247813 [Eh]
	 Singles Energy            =      -0.0000000000000000 [Eh]
	 Same-Spin Energy          =      -0.6667514579279623 [Eh]
	 Opposite-Spin Energy      =      -2.0471117239454051 [Eh]
	 Correlation Energy        =      -2.7138631818733674 [Eh]
	 Total Energy              =    -686.3046855048982025 [Eh]

	 ================> DF-SCS-MP2 Energies <==================
	-----------------------------------------------------------
	 SCS Same-Spin Scale       =       0.3333333333333333 [-]
	 SCS Opposite-Spin Scale   =       1.2000000000000000 [-]
	 SCS Same-Spin Energy      =      -0.2222504859759874 [Eh]
	 SCS Opposite-Spin Energy  =      -2.4565340687344861 [Eh]
	 SCS Correlation Energy    =      -2.6787845547104734 [Eh]
	 SCS Total Energy          =    -686.2696068777352139 [Eh]
	-----------------------------------------------------------

  Dipole Moment: [D]
     X:     0.4025      Y:     1.6778      Z:     1.4024     Total:     2.2235

*** Psi4 exiting successfully. Buy a developer a beer!
