                               Psi4 1.4a3.dev225

  ==> Input File <==

--------------------------------------------------------------------------
#psi4
#
memory 32 gb

molecule  {
0 1
  O       -0.7087730    -1.1193010    -0.2547420
  O       -0.7528450     2.5455330     0.2012150
  O        1.9863940     1.9788490    -0.3427120
  O        2.9116460    -0.6744970     0.1694850
  O        0.9156910    -2.7263170    -0.0671110
  O       -3.4138470    -0.8877920     0.1898460
  C       -0.3205030     1.2520640    -0.2382550
  C        1.1174820     1.0032940     0.2012350
  C       -1.2273260     0.1250970     0.2312670
  C        1.5822430    -0.3816820    -0.2226620
  C        0.5961790    -1.4747558     0.2735147
  C       -2.6461850     0.2016990    -0.2964600
  H       -0.3421180     1.3022200    -1.3325700
  H        1.1390340     1.0438120     1.3116130
  H       -1.2614040     0.1027740     1.3364960
  H        1.5822050    -0.4262820    -1.3195710
  H        0.5263940    -1.4152120     1.3863080
  H       -2.6088500     0.2174640    -1.3960030
  H       -3.1281860     1.1200450     0.0455410
  H       -0.8261980     2.5111300     1.1738140
  H        1.5071200     2.8252430    -0.2509020
  H        3.0032160    -0.4533580     1.1133610
  H        1.2544120    -2.7122960    -0.9801810
  H       -2.8913510    -1.6827050    -0.0240770
units angstrom
no_reorient  #important for SAPT in psi4, default
symmetry c1  #important for SAPT in psi4, default
}

set PROPERTIES_ORIGIN ["COM"]
properties('MP2/aug-cc-pvtz', properties = ['dipole'])
--------------------------------------------------------------------------

    Molecular point group: c1
  Charge       = 0
  Multiplicity = 1
  Basis Set: AUG-CC-PVTZ
    Blend: AUG-CC-PVTZ
  Basis Set: (AUG-CC-PVTZ AUX)
    Blend: AUG-CC-PVTZ-JKFIT

    Orbital Energies [Eh]
    ---------------------

    Doubly Occupied:

       1A    -20.596800     2A    -20.592299     3A    -20.582626
       4A    -20.578127     5A    -20.576830     6A    -20.561178
       7A    -11.358088     8A    -11.309282     9A    -11.308438
      10A    -11.305964    11A    -11.304362    12A    -11.285732
      13A     -1.448755    14A     -1.405667    15A     -1.386429
      16A     -1.377434    17A     -1.365538    18A     -1.353220
      19A     -1.077662    20A     -1.046555    21A     -0.943488
      22A     -0.892043    23A     -0.853771    24A     -0.840091
      25A     -0.758544    26A     -0.727228    27A     -0.719495
      28A     -0.712170    29A     -0.693711    30A     -0.676031
      31A     -0.662909    32A     -0.656683    33A     -0.618577
      34A     -0.614545    35A     -0.599588    36A     -0.589243
      37A     -0.571690    38A     -0.559494    39A     -0.554865
      40A     -0.542568    41A     -0.526467    42A     -0.520312
      43A     -0.499173    44A     -0.483653    45A     -0.472776
      46A     -0.460060    47A     -0.444448    48A     -0.425931

  @DF-RHF Final Energy:  -683.60182824196033

   => Energetics <=

    Nuclear Repulsion Energy =            824.3214216323231085
    One-Electron Energy =               -2576.9654234855465802
    Two-Electron Energy =                1069.0421736112632516
    Total Energy =                       -683.6018282419602201
  Basis Set: (AUG-CC-PVTZ AUX)
    Blend: AUG-CC-PVTZ-RI
    Molecular point group: c1

    Geometry (in Angstrom), charge = 0, multiplicity = 1:

       Center              X                  Y                   Z               Mass
    ------------   -----------------  -----------------  -----------------  -----------------
         O           -0.720815596285    -1.102798808420    -0.248033556155    15.994914619570
         O           -0.764887596285     2.562035191580     0.207923443845    15.994914619570
         O            1.974351403715     1.995351191580    -0.336003556155    15.994914619570
         O            2.899603403715    -0.657994808420     0.176193443845    15.994914619570
         O            0.903648403715    -2.709814808420    -0.060402556155    15.994914619570
         O           -3.425889596285    -0.871289808420     0.196554443845    15.994914619570
         C           -0.332545596285     1.268566191580    -0.231546556155    12.000000000000
         C            1.105439403715     1.019796191580     0.207943443845    12.000000000000
         C           -1.239368596285     0.141599191580     0.237975443845    12.000000000000
         C            1.570200403715    -0.365179808420    -0.215953556155    12.000000000000
         C            0.584136403715    -1.458253608420     0.280223143845    12.000000000000
         C           -2.658227596285     0.218201191580    -0.289751556155    12.000000000000
         H           -0.354160596285     1.318722191580    -1.325861556155     1.007825032230
         H            1.126991403715     1.060314191580     1.318321443845     1.007825032230
         H           -1.273446596285     0.119276191580     1.343204443845     1.007825032230
         H            1.570162403715    -0.409779808420    -1.312862556155     1.007825032230
         H            0.514351403715    -1.398709808420     1.393016443845     1.007825032230
         H           -2.620892596285     0.233966191580    -1.389294556155     1.007825032230
         H           -3.140228596285     1.136547191580     0.052249443845     1.007825032230
         H           -0.838240596285     2.527632191580     1.180522443845     1.007825032230
         H            1.495077403715     2.841745191580    -0.244193556155     1.007825032230
         H            2.991173403715    -0.436855808420     1.120069443845     1.007825032230
         H            1.242369403715    -2.695793808420    -0.973472556155     1.007825032230
         H           -2.903393596285    -1.666202808420    -0.017368556155     1.007825032230

  Basis Set: AUG-CC-PVTZ
    Blend: AUG-CC-PVTZ
  Basis Set: (AUG-CC-PVTZ AUX)
    Blend: AUG-CC-PVTZ-JKFIT
	 Reference Energy          =    -683.6018282419603338 [Eh]
	 Singles Energy            =      -0.0000000000000000 [Eh]
	 Same-Spin Energy          =      -0.6654605826239608 [Eh]
	 Opposite-Spin Energy      =      -2.0443486927129513 [Eh]
	 Correlation Energy        =      -2.7098092753369123 [Eh]
	 Total Energy              =    -686.3116375172972994 [Eh]

	 ================> DF-SCS-MP2 Energies <==================
	-----------------------------------------------------------
	 SCS Same-Spin Scale       =       0.3333333333333333 [-]
	 SCS Opposite-Spin Scale   =       1.2000000000000000 [-]
	 SCS Same-Spin Energy      =      -0.2218201942079869 [Eh]
	 SCS Opposite-Spin Energy  =      -2.4532184312555416 [Eh]
	 SCS Correlation Energy    =      -2.6750386254635283 [Eh]
	 SCS Total Energy          =    -686.2768668674239052 [Eh]
	-----------------------------------------------------------

  Dipole Moment: [D]
     X:     0.3509      Y:     1.3259      Z:     1.3174     Total:     1.9018

*** Psi4 exiting successfully. Buy a developer a beer!
