                               Psi4 1.3.2 release

  ==> Input File <==

--------------------------------------------------------------------------
#psi4
#
memory 32 gb

molecule  {
0 1
  O       -0.7087550    -1.1193400    -0.2546710
  O       -0.7529000     2.5454980     0.2011280
  O        1.9863450     1.9788980    -0.3426730
  O        2.9116540    -0.6744470     0.1695670
  O        0.9157630    -2.7262860    -0.0672430
  O       -3.4138550    -0.8877920     0.1899090
  C       -0.3205170     1.2520290    -0.2382820
  C        1.1174580     1.0033160     0.2012620
  C       -1.2273170     0.1250620     0.2312770
  C        1.6761016    -0.4023045    -0.1949570
  C        0.5842790    -1.4279170     0.2862350
  C       -2.6461720     0.2016390    -0.2964840
  H       -0.3421210     1.3021240    -1.3326030
  H        1.1389810     1.0438400     1.3116400
  H       -1.2614020     0.1027960     1.3365120
  H        1.5823060    -0.4261990    -1.3195550
  H        0.5265370    -1.4152780     1.3862880
  H       -2.6088310     0.2173240    -1.3960300
  H       -3.1281770     1.1200080     0.0454480
  H       -0.8264260     2.5110960     1.1737150
  H        1.5069660     2.8252470    -0.2509780
  H        3.0031740    -0.4532420     1.1134330
  H        1.2543330    -2.7122130    -0.9803670
  H       -2.8912910    -1.6827110    -0.0238270
units angstrom
no_reorient  #important for SAPT in psi4, default
symmetry c1  #important for SAPT in psi4, default
}

set PROPERTIES_ORIGIN ["COM"]
properties('MP2/aug-cc-pvtz', properties = ['dipole'])
--------------------------------------------------------------------------

    Molecular point group: c1
  Charge       = 0
  Multiplicity = 1
  Basis Set: AUG-CC-PVTZ
    Blend: AUG-CC-PVTZ
  Basis Set: (AUG-CC-PVTZ AUX)
    Blend: AUG-CC-PVTZ-JKFIT

    Orbital Energies [Eh]
    ---------------------

    Doubly Occupied:

       1A    -20.597528     2A    -20.590852     3A    -20.588455
       4A    -20.580237     5A    -20.574993     6A    -20.561619
       7A    -11.352778     8A    -11.309360     9A    -11.307823
      10A    -11.306949    11A    -11.306325    12A    -11.285943
      13A     -1.443551    14A     -1.421885    15A     -1.402660
      16A     -1.371676    17A     -1.369882    18A     -1.351365
      19A     -1.073193    20A     -1.041005    21A     -0.942726
      22A     -0.887224    23A     -0.856647    24A     -0.840781
      25A     -0.752836    26A     -0.737094    27A     -0.727280
      28A     -0.708901    29A     -0.690652    30A     -0.681029
      31A     -0.658232    32A     -0.655599    33A     -0.627973
      34A     -0.618964    35A     -0.599679    36A     -0.593674
      37A     -0.567992    38A     -0.565966    39A     -0.557928
      40A     -0.540178    41A     -0.527125    42A     -0.518595
      43A     -0.496001    44A     -0.483530    45A     -0.464595
      46A     -0.460083    47A     -0.442685    48A     -0.418958

  @DF-RHF Final Energy:  -683.59445278252315

   => Energetics <=

    Nuclear Repulsion Energy =            824.0496745244615795
    One-Electron Energy =               -2576.3662430169238178
    Two-Electron Energy =                1068.7221157099390894
    Total Energy =                       -683.5944527825231489
  Basis Set: (AUG-CC-PVTZ AUX)
    Blend: AUG-CC-PVTZ-RI
    Molecular point group: c1

    Geometry (in Angstrom), charge = 0, multiplicity = 1:

       Center              X                  Y                   Z               Mass
    ------------   -----------------  -----------------  -----------------  -----------------
         O           -0.726256010240    -1.104582482793    -0.250658035924    15.994914619570
         O           -0.770401010240     2.560255517207     0.205140964076    15.994914619570
         O            1.968843989760     1.993655517207    -0.338660035924    15.994914619570
         O            2.894152989760    -0.659689482793     0.173579964076    15.994914619570
         O            0.898261989760    -2.711528482793    -0.063230035924    15.994914619570
         O           -3.431356010240    -0.873034482793     0.193921964076    15.994914619570
         C           -0.338018010240     1.266786517207    -0.234269035924    12.000000000000
         C            1.099956989760     1.018073517207     0.205274964076    12.000000000000
         C           -1.244818010240     0.139819517207     0.235289964076    12.000000000000
         C            1.658600589760    -0.387546982793    -0.190944035924    12.000000000000
         C            0.566777989760    -1.413159482793     0.290247964076    12.000000000000
         C           -2.663673010240     0.216396517207    -0.292471035924    12.000000000000
         H           -0.359622010240     1.316881517207    -1.328590035924     1.007825032230
         H            1.121479989760     1.058597517207     1.315652964076     1.007825032230
         H           -1.278903010240     0.117553517207     1.340524964076     1.007825032230
         H            1.564804989760    -0.411441482793    -1.315542035924     1.007825032230
         H            0.509035989760    -1.400520482793     1.390300964076     1.007825032230
         H           -2.626332010240     0.232081517207    -1.392017035924     1.007825032230
         H           -3.145678010240     1.134765517207     0.049460964076     1.007825032230
         H           -0.843927010240     2.525853517207     1.177727964076     1.007825032230
         H            1.489464989760     2.840004517207    -0.246965035924     1.007825032230
         H            2.985672989760    -0.438484482793     1.117445964076     1.007825032230
         H            1.236831989760    -2.697455482793    -0.976354035924     1.007825032230
         H           -2.908792010240    -1.667953482793    -0.019814035924     1.007825032230

  Basis Set: AUG-CC-PVTZ
    Blend: AUG-CC-PVTZ
  Basis Set: (AUG-CC-PVTZ AUX)
    Blend: AUG-CC-PVTZ-JKFIT
	 Reference Energy          =    -683.5944527825231489 [Eh]
	 Singles Energy            =      -0.0000000000000000 [Eh]
	 Same-Spin Energy          =      -0.6655615802067785 [Eh]
	 Opposite-Spin Energy      =      -2.0441301841635169 [Eh]
	 Correlation Energy        =      -2.7096917643702954 [Eh]
	 Total Energy              =    -686.3041445468934398 [Eh]

	 ================> DF-SCS-MP2 Energies <==================
	-----------------------------------------------------------
	 SCS Same-Spin Scale       =       0.3333333333333333 [-]
	 SCS Opposite-Spin Scale   =       1.2000000000000000 [-]
	 SCS Same-Spin Energy      =      -0.2218538600689262 [Eh]
	 SCS Opposite-Spin Energy  =      -2.4529562209962203 [Eh]
	 SCS Correlation Energy    =      -2.6748100810651465 [Eh]
	 SCS Total Energy          =    -686.2692628635883239 [Eh]
	-----------------------------------------------------------

  Dipole Moment: [D]
     X:     0.5981      Y:     1.5461      Z:     1.4746     Total:     2.2187

*** Psi4 exiting successfully. Buy a developer a beer!
