                               Psi4 1.3.2 release

  ==> Input File <==

--------------------------------------------------------------------------
#psi4
#
memory 32 gb

molecule  {
0 1
  O       -0.7177465    -1.1172217    -0.2313884
  O       -0.7529000     2.5454980     0.2011280
  O        1.9863450     1.9788980    -0.3426730
  O        2.9116540    -0.6744470     0.1695670
  O        0.9157630    -2.7262860    -0.0672430
  O       -3.4138550    -0.8877920     0.1899090
  C       -0.3205170     1.2520290    -0.2382820
  C        1.1174580     1.0033160     0.2012620
  C       -1.2273170     0.1250620     0.2312770
  C        1.5822600    -0.3816350    -0.2226430
  C        0.5842790    -1.4279170     0.2862350
  C       -2.6461720     0.2016390    -0.2964840
  H       -0.3421210     1.3021240    -1.3326030
  H        1.1389810     1.0438400     1.3116400
  H       -1.2614020     0.1027960     1.3365120
  H        1.5823060    -0.4261990    -1.3195550
  H        0.5265370    -1.4152780     1.3862880
  H       -2.6088310     0.2173240    -1.3960300
  H       -3.1281770     1.1200080     0.0454480
  H       -0.8264260     2.5110960     1.1737150
  H        1.5069660     2.8252470    -0.2509780
  H        3.0031740    -0.4532420     1.1134330
  H        1.2543330    -2.7122130    -0.9803670
  H       -2.8912910    -1.6827110    -0.0238270
units angstrom
no_reorient  #important for SAPT in psi4, default
symmetry c1  #important for SAPT in psi4, default
}

set PROPERTIES_ORIGIN ["COM"]
properties('MP2/aug-cc-pvtz', properties = ['dipole'])
--------------------------------------------------------------------------

    Molecular point group: c1
  Charge       = 0
  Multiplicity = 1
  Basis Set: AUG-CC-PVTZ
    Blend: AUG-CC-PVTZ
  Basis Set: (AUG-CC-PVTZ AUX)
    Blend: AUG-CC-PVTZ-JKFIT

    Orbital Energies [Eh]
    ---------------------

    Doubly Occupied:

       1A    -20.598177     2A    -20.588075     3A    -20.584799
       4A    -20.579747     5A    -20.577505     6A    -20.562317
       7A    -11.357525     8A    -11.310364     9A    -11.309674
      10A    -11.306840    11A    -11.305770    12A    -11.286822
      13A     -1.441893    14A     -1.405025    15A     -1.388515
      16A     -1.373602    17A     -1.366060    18A     -1.353955
      19A     -1.080775    20A     -1.051664    21A     -0.945823
      22A     -0.892049    23A     -0.855098    24A     -0.841994
      25A     -0.754481    26A     -0.730273    27A     -0.721551
      28A     -0.710606    29A     -0.693761    30A     -0.674929
      31A     -0.661094    32A     -0.655350    33A     -0.620206
      34A     -0.616136    35A     -0.597691    36A     -0.587666
      37A     -0.570826    38A     -0.562576    39A     -0.556272
      40A     -0.543777    41A     -0.527506    42A     -0.516933
      43A     -0.502496    44A     -0.487254    45A     -0.474057
      46A     -0.461886    47A     -0.445871    48A     -0.431038

  @DF-RHF Final Energy:  -683.60428424999748

   => Energetics <=

    Nuclear Repulsion Energy =            824.8658540693000987
    One-Electron Energy =               -2578.0036751571924469
    Two-Electron Energy =                1069.5335368378950989
    Total Energy =                       -683.6042842499973631
  Basis Set: (AUG-CC-PVTZ AUX)
    Blend: AUG-CC-PVTZ-RI
    Molecular point group: c1

    Geometry (in Angstrom), charge = 0, multiplicity = 1:

       Center              X                  Y                   Z               Mass
    ------------   -----------------  -----------------  -----------------  -----------------
         O           -0.728194896779    -1.104029831594    -0.227598530688    15.994914619570
         O           -0.763348396779     2.558689868406     0.204917869312    15.994914619570
         O            1.975896603221     1.992089868406    -0.338883130688    15.994914619570
         O            2.901205603221    -0.661255131594     0.173356869312    15.994914619570
         O            0.905314603221    -2.713094131594    -0.063453130688    15.994914619570
         O           -3.424303396779    -0.874600131594     0.193698869312    15.994914619570
         C           -0.330965396779     1.265220868406    -0.234492130688    12.000000000000
         C            1.107009603221     1.016507868406     0.205051869312    12.000000000000
         C           -1.237765396779     0.138253868406     0.235066869312    12.000000000000
         C            1.571811603221    -0.368443131594    -0.218853130688    12.000000000000
         C            0.573830603221    -1.414725131594     0.290024869312    12.000000000000
         C           -2.656620396779     0.214830868406    -0.292694130688    12.000000000000
         H           -0.352569396779     1.315315868406    -1.328813130688     1.007825032230
         H            1.128532603221     1.057031868406     1.315429869312     1.007825032230
         H           -1.271850396779     0.115987868406     1.340301869312     1.007825032230
         H            1.571857603221    -0.413007131594    -1.315765130688     1.007825032230
         H            0.516088603221    -1.402086131594     1.390077869312     1.007825032230
         H           -2.619279396779     0.230515868406    -1.392240130688     1.007825032230
         H           -3.138625396779     1.133199868406     0.049237869312     1.007825032230
         H           -0.836874396779     2.524287868406     1.177504869312     1.007825032230
         H            1.496517603221     2.838438868406    -0.247188130688     1.007825032230
         H            2.992725603221    -0.440050131594     1.117222869312     1.007825032230
         H            1.243884603221    -2.699021131594    -0.976577130688     1.007825032230
         H           -2.901739396779    -1.669519131594    -0.020037130688     1.007825032230

  Basis Set: AUG-CC-PVTZ
    Blend: AUG-CC-PVTZ
  Basis Set: (AUG-CC-PVTZ AUX)
    Blend: AUG-CC-PVTZ-JKFIT
	 Reference Energy          =    -683.6042842499974768 [Eh]
	 Singles Energy            =      -0.0000000000000000 [Eh]
	 Same-Spin Energy          =      -0.6653857510430516 [Eh]
	 Opposite-Spin Energy      =      -2.0444902565676046 [Eh]
	 Correlation Energy        =      -2.7098760076106565 [Eh]
	 Total Energy              =    -686.3141602576081368 [Eh]

	 ================> DF-SCS-MP2 Energies <==================
	-----------------------------------------------------------
	 SCS Same-Spin Scale       =       0.3333333333333333 [-]
	 SCS Opposite-Spin Scale   =       1.2000000000000000 [-]
	 SCS Same-Spin Energy      =      -0.2217952503476839 [Eh]
	 SCS Opposite-Spin Energy  =      -2.4533883078811254 [Eh]
	 SCS Correlation Energy    =      -2.6751835582288095 [Eh]
	 SCS Total Energy          =    -686.2794678082262863 [Eh]
	-----------------------------------------------------------

  Dipole Moment: [D]
     X:     0.2583      Y:     1.5759      Z:     1.3251     Total:     2.0751

*** Psi4 exiting successfully. Buy a developer a beer!
