                               Psi4 1.3.2 release

  ==> Input File <==

--------------------------------------------------------------------------
#psi4
#
memory 32 gb

molecule  {
0 1
  O       -0.7087550    -1.1193400    -0.2546710
  O       -0.7529000     2.5454980     0.2011280
  O        1.9863450     1.9788980    -0.3426730
  O        2.9116540    -0.6744470     0.1695670
  O        0.9157630    -2.7262860    -0.0672430
  O       -3.4138550    -0.8877920     0.1899090
  C       -0.3205170     1.2520290    -0.2382820
  C        1.1174580     1.0033160     0.2012620
  C       -1.2273170     0.1250620     0.2312770
  C        1.5853339    -0.3881685    -0.1970954
  C        0.5842790    -1.4279170     0.2862350
  C       -2.6461720     0.2016390    -0.2964840
  H       -0.3421210     1.3021240    -1.3326030
  H        1.1389810     1.0438400     1.3116400
  H       -1.2614020     0.1027960     1.3365120
  H        1.5823060    -0.4261990    -1.3195550
  H        0.5265370    -1.4152780     1.3862880
  H       -2.6088310     0.2173240    -1.3960300
  H       -3.1281770     1.1200080     0.0454480
  H       -0.8264260     2.5110960     1.1737150
  H        1.5069660     2.8252470    -0.2509780
  H        3.0031740    -0.4532420     1.1134330
  H        1.2543330    -2.7122130    -0.9803670
  H       -2.8912910    -1.6827110    -0.0238270
units angstrom
no_reorient  #important for SAPT in psi4, default
symmetry c1  #important for SAPT in psi4, default
}

set PROPERTIES_ORIGIN ["COM"]
properties('MP2/aug-cc-pvtz', properties = ['dipole'])
--------------------------------------------------------------------------

    Molecular point group: c1
  Charge       = 0
  Multiplicity = 1
  Basis Set: AUG-CC-PVTZ
    Blend: AUG-CC-PVTZ
  Basis Set: (AUG-CC-PVTZ AUX)
    Blend: AUG-CC-PVTZ-JKFIT

    Orbital Energies [Eh]
    ---------------------

    Doubly Occupied:

       1A    -20.598323     2A    -20.589108     3A    -20.583882
       4A    -20.581673     5A    -20.577746     6A    -20.562725
       7A    -11.356582     8A    -11.310628     9A    -11.309734
      10A    -11.308036    11A    -11.306131    12A    -11.287284
      13A     -1.440706    14A     -1.405203    15A     -1.391233
      16A     -1.372821    17A     -1.367894    18A     -1.353221
      19A     -1.080887    20A     -1.051714    21A     -0.946749
      22A     -0.891425    23A     -0.853735    24A     -0.841742
      25A     -0.754304    26A     -0.730922    27A     -0.722022
      28A     -0.710326    29A     -0.692976    30A     -0.675500
      31A     -0.660611    32A     -0.655899    33A     -0.620671
      34A     -0.615568    35A     -0.597729    36A     -0.589036
      37A     -0.570645    38A     -0.560013    39A     -0.556918
      40A     -0.542501    41A     -0.527588    42A     -0.517601
      43A     -0.500831    44A     -0.487351    45A     -0.472692
      46A     -0.462550    47A     -0.447005    48A     -0.432247

  @DF-RHF Final Energy:  -683.60279049546989

   => Energetics <=

    Nuclear Repulsion Energy =            824.8216825937494150
    One-Electron Energy =               -2577.9035754814740358
    Two-Electron Energy =                1069.4791023922548447
    Total Energy =                       -683.6027904954698897
  Basis Set: (AUG-CC-PVTZ AUX)
    Blend: AUG-CC-PVTZ-RI
    Molecular point group: c1

    Geometry (in Angstrom), charge = 0, multiplicity = 1:

       Center              X                  Y                   Z               Mass
    ------------   -----------------  -----------------  -----------------  -----------------
         O           -0.720206960450    -1.105524551038    -0.250515526109    15.994914619570
         O           -0.764351960450     2.559313448962     0.205283473891    15.994914619570
         O            1.974893039550     1.992713448962    -0.338517526109    15.994914619570
         O            2.900202039550    -0.660631551038     0.173722473891    15.994914619570
         O            0.904311039550    -2.712470551038    -0.063087526109    15.994914619570
         O           -3.425306960450    -0.873976551038     0.194064473891    15.994914619570
         C           -0.331968960450     1.265844448962    -0.234126526109    12.000000000000
         C            1.106006039550     1.017131448962     0.205417473891    12.000000000000
         C           -1.238768960450     0.138877448962     0.235432473891    12.000000000000
         C            1.573881939550    -0.374353051038    -0.192939926109    12.000000000000
         C            0.572827039550    -1.414101551038     0.290390473891    12.000000000000
         C           -2.657623960450     0.215454448962    -0.292328526109    12.000000000000
         H           -0.353572960450     1.315939448962    -1.328447526109     1.007825032230
         H            1.127529039550     1.057655448962     1.315795473891     1.007825032230
         H           -1.272853960450     0.116611448962     1.340667473891     1.007825032230
         H            1.570854039550    -0.412383551038    -1.315399526109     1.007825032230
         H            0.515085039550    -1.401462551038     1.390443473891     1.007825032230
         H           -2.620282960450     0.231139448962    -1.391874526109     1.007825032230
         H           -3.139628960450     1.133823448962     0.049603473891     1.007825032230
         H           -0.837877960450     2.524911448962     1.177870473891     1.007825032230
         H            1.495514039550     2.839062448962    -0.246822526109     1.007825032230
         H            2.991722039550    -0.439426551038     1.117588473891     1.007825032230
         H            1.242881039550    -2.698397551038    -0.976211526109     1.007825032230
         H           -2.902742960450    -1.668895551038    -0.019671526109     1.007825032230

  Basis Set: AUG-CC-PVTZ
    Blend: AUG-CC-PVTZ
  Basis Set: (AUG-CC-PVTZ AUX)
    Blend: AUG-CC-PVTZ-JKFIT
	 Reference Energy          =    -683.6027904954698897 [Eh]
	 Singles Energy            =      -0.0000000000000000 [Eh]
	 Same-Spin Energy          =      -0.6656367803338232 [Eh]
	 Opposite-Spin Energy      =      -2.0450068024865478 [Eh]
	 Correlation Energy        =      -2.7106435828203708 [Eh]
	 Total Energy              =    -686.3134340782902427 [Eh]

	 ================> DF-SCS-MP2 Energies <==================
	-----------------------------------------------------------
	 SCS Same-Spin Scale       =       0.3333333333333333 [-]
	 SCS Opposite-Spin Scale   =       1.2000000000000000 [-]
	 SCS Same-Spin Energy      =      -0.2218789267779411 [Eh]
	 SCS Opposite-Spin Energy  =      -2.4540081629838570 [Eh]
	 SCS Correlation Energy    =      -2.6758870897617983 [Eh]
	 SCS Total Energy          =    -686.2786775852316623 [Eh]
	-----------------------------------------------------------

  Dipole Moment: [D]
     X:     0.2543      Y:     1.5974      Z:     1.3996     Total:     2.1390

*** Psi4 exiting successfully. Buy a developer a beer!
