                               Psi4 1.3.2 release

  ==> Input File <==

--------------------------------------------------------------------------
#psi4
#
memory 32 gb

molecule  {
0 1
  O       -0.6895932    -1.1238580    -0.3007349
  O       -0.7529000     2.5454980     0.2011280
  O        1.9863450     1.9788980    -0.3426730
  O        2.9116540    -0.6744470     0.1695670
  O        0.9157630    -2.7262860    -0.0672430
  O       -3.4138550    -0.8877920     0.1899090
  C       -0.3205170     1.2520290    -0.2382820
  C        1.1174580     1.0033160     0.2012620
  C       -1.2273170     0.1250620     0.2312770
  C        1.5822600    -0.3816350    -0.2226430
  C        0.5842790    -1.4279170     0.2862350
  C       -2.6461720     0.2016390    -0.2964840
  H       -0.3421210     1.3021240    -1.3326030
  H        1.1389810     1.0438400     1.3116400
  H       -1.2614020     0.1027960     1.3365120
  H        1.5823060    -0.4261990    -1.3195550
  H        0.5265370    -1.4152780     1.3862880
  H       -2.6088310     0.2173240    -1.3960300
  H       -3.1281770     1.1200080     0.0454480
  H       -0.8264260     2.5110960     1.1737150
  H        1.5069660     2.8252470    -0.2509780
  H        3.0031740    -0.4532420     1.1134330
  H        1.2543330    -2.7122130    -0.9803670
  H       -2.8912910    -1.6827110    -0.0238270
units angstrom
no_reorient  #important for SAPT in psi4, default
symmetry c1  #important for SAPT in psi4, default
}

set PROPERTIES_ORIGIN ["COM"]
properties('MP2/aug-cc-pvtz', properties = ['dipole'])
--------------------------------------------------------------------------

    Molecular point group: c1
  Charge       = 0
  Multiplicity = 1
  Basis Set: AUG-CC-PVTZ
    Blend: AUG-CC-PVTZ
  Basis Set: (AUG-CC-PVTZ AUX)
    Blend: AUG-CC-PVTZ-JKFIT

    Orbital Energies [Eh]
    ---------------------

    Doubly Occupied:

       1A    -20.598664     2A    -20.589437     3A    -20.581771
       4A    -20.578262     5A    -20.577412     6A    -20.563560
       7A    -11.355728     8A    -11.311125     9A    -11.310404
      10A    -11.309586    11A    -11.303769    12A    -11.288319
      13A     -1.437065    14A     -1.405207    15A     -1.386455
      16A     -1.371206    17A     -1.365575    18A     -1.350665
      19A     -1.081264    20A     -1.049821    21A     -0.946397
      22A     -0.889837    23A     -0.853106    24A     -0.843047
      25A     -0.753163    26A     -0.728451    27A     -0.720084
      28A     -0.708876    29A     -0.692348    30A     -0.674756
      31A     -0.658208    32A     -0.654149    33A     -0.620036
      34A     -0.614432    35A     -0.598576    36A     -0.586928
      37A     -0.569307    38A     -0.560908    39A     -0.555788
      40A     -0.542804    41A     -0.526865    42A     -0.517144
      43A     -0.503398    44A     -0.486731    45A     -0.474804
      46A     -0.462929    47A     -0.447278    48A     -0.431130

  @DF-RHF Final Energy:  -683.60168140176904

   => Energetics <=

    Nuclear Repulsion Energy =            824.2570958488197448
    One-Electron Energy =               -2576.8440089219752736
    Two-Electron Energy =                1068.9852316713866003
    Total Energy =                       -683.6016814017689285
  Basis Set: (AUG-CC-PVTZ AUX)
    Blend: AUG-CC-PVTZ-RI
    Molecular point group: c1

    Geometry (in Angstrom), charge = 0, multiplicity = 1:

       Center              X                  Y                   Z               Mass
    ------------   -----------------  -----------------  -----------------  -----------------
         O           -0.702542436259    -1.110076633346    -0.290785025823    15.994914619570
         O           -0.765849236259     2.559279366654     0.211077874177    15.994914619570
         O            1.973395763741     1.992679366654    -0.332723125823    15.994914619570
         O            2.898704763741    -0.660665633346     0.179516874177    15.994914619570
         O            0.902813763741    -2.712504633346    -0.057293125823    15.994914619570
         O           -3.426804236259    -0.874010633346     0.199858874177    15.994914619570
         C           -0.333466236259     1.265810366654    -0.228332125823    12.000000000000
         C            1.104508763741     1.017097366654     0.211211874177    12.000000000000
         C           -1.240266236259     0.138843366654     0.241226874177    12.000000000000
         C            1.569310763741    -0.367853633346    -0.212693125823    12.000000000000
         C            0.571329763741    -1.414135633346     0.296184874177    12.000000000000
         C           -2.659121236259     0.215420366654    -0.286534125823    12.000000000000
         H           -0.355070236259     1.315905366654    -1.322653125823     1.007825032230
         H            1.126031763741     1.057621366654     1.321589874177     1.007825032230
         H           -1.274351236259     0.116577366654     1.346461874177     1.007825032230
         H            1.569356763741    -0.412417633346    -1.309605125823     1.007825032230
         H            0.513587763741    -1.401496633346     1.396237874177     1.007825032230
         H           -2.621780236259     0.231105366654    -1.386080125823     1.007825032230
         H           -3.141126236259     1.133789366654     0.055397874177     1.007825032230
         H           -0.839375236259     2.524877366654     1.183664874177     1.007825032230
         H            1.494016763741     2.839028366654    -0.241028125823     1.007825032230
         H            2.990224763741    -0.439460633346     1.123382874177     1.007825032230
         H            1.241383763741    -2.698431633346    -0.970417125823     1.007825032230
         H           -2.904240236259    -1.668929633346    -0.013877125823     1.007825032230

  Basis Set: AUG-CC-PVTZ
    Blend: AUG-CC-PVTZ
  Basis Set: (AUG-CC-PVTZ AUX)
    Blend: AUG-CC-PVTZ-JKFIT
	 Reference Energy          =    -683.6016814017690422 [Eh]
	 Singles Energy            =      -0.0000000000000000 [Eh]
	 Same-Spin Energy          =      -0.6656567130940703 [Eh]
	 Opposite-Spin Energy      =      -2.0457477211552217 [Eh]
	 Correlation Energy        =      -2.7114044342492920 [Eh]
	 Total Energy              =    -686.3130858360183311 [Eh]

	 ================> DF-SCS-MP2 Energies <==================
	-----------------------------------------------------------
	 SCS Same-Spin Scale       =       0.3333333333333333 [-]
	 SCS Opposite-Spin Scale   =       1.2000000000000000 [-]
	 SCS Same-Spin Energy      =      -0.2218855710313568 [Eh]
	 SCS Opposite-Spin Energy  =      -2.4548972653862662 [Eh]
	 SCS Correlation Energy    =      -2.6767828364176229 [Eh]
	 SCS Total Energy          =    -686.2784642381866433 [Eh]
	-----------------------------------------------------------

  Dipole Moment: [D]
     X:     0.1333      Y:     1.6475      Z:     1.4549     Total:     2.2020

*** Psi4 exiting successfully. Buy a developer a beer!
