                               Psi4 1.3.2 release

  ==> Input File <==

--------------------------------------------------------------------------
#psi4
#
memory 32 gb

molecule  {
0 1
  O       -0.7087550    -1.1193400    -0.2546710
  O       -0.7529000     2.5454980     0.2011280
  O        1.9863450     1.9788980    -0.3426730
  O        2.9116540    -0.6744470     0.1695670
  O        0.9157630    -2.7262860    -0.0672430
  O       -3.4138550    -0.8877920     0.1899090
  C       -0.3205170     1.2520290    -0.2382820
  C        1.1174580     1.0033160     0.2012620
  C       -1.2273170     0.1250620     0.2312770
  C        1.5756884    -0.3673045    -0.2733430
  C        0.5842790    -1.4279170     0.2862350
  C       -2.6461720     0.2016390    -0.2964840
  H       -0.3421210     1.3021240    -1.3326030
  H        1.1389810     1.0438400     1.3116400
  H       -1.2614020     0.1027960     1.3365120
  H        1.5823060    -0.4261990    -1.3195550
  H        0.5265370    -1.4152780     1.3862880
  H       -2.6088310     0.2173240    -1.3960300
  H       -3.1281770     1.1200080     0.0454480
  H       -0.8264260     2.5110960     1.1737150
  H        1.5069660     2.8252470    -0.2509780
  H        3.0031740    -0.4532420     1.1134330
  H        1.2543330    -2.7122130    -0.9803670
  H       -2.8912910    -1.6827110    -0.0238270
units angstrom
no_reorient  #important for SAPT in psi4, default
symmetry c1  #important for SAPT in psi4, default
}

set PROPERTIES_ORIGIN ["COM"]
properties('MP2/aug-cc-pvtz', properties = ['dipole'])
--------------------------------------------------------------------------

    Molecular point group: c1
  Charge       = 0
  Multiplicity = 1
  Basis Set: AUG-CC-PVTZ
    Blend: AUG-CC-PVTZ
  Basis Set: (AUG-CC-PVTZ AUX)
    Blend: AUG-CC-PVTZ-JKFIT

    Orbital Energies [Eh]
    ---------------------

    Doubly Occupied:

       1A    -20.598392     2A    -20.587542     3A    -20.583698
       4A    -20.577002     5A    -20.574481     6A    -20.562732
       7A    -11.357943     8A    -11.310515     9A    -11.309857
      10A    -11.308030    11A    -11.303659    12A    -11.287364
      13A     -1.439360    14A     -1.405030    15A     -1.382734
      16A     -1.372575    17A     -1.359911    18A     -1.352716
      19A     -1.081180    20A     -1.049976    21A     -0.944889
      22A     -0.891222    23A     -0.856609    24A     -0.843331
      25A     -0.753672    26A     -0.727509    27A     -0.719205
      28A     -0.709338    29A     -0.694101    30A     -0.673737
      31A     -0.659256    32A     -0.652689    33A     -0.619817
      34A     -0.616121    35A     -0.598701    36A     -0.586112
      37A     -0.568947    38A     -0.566888    39A     -0.554321
      40A     -0.544140    41A     -0.527045    42A     -0.515332
      43A     -0.505366    44A     -0.486847    45A     -0.476526
      46A     -0.461418    47A     -0.445332    48A     -0.428320

  @DF-RHF Final Energy:  -683.60085496444162

   => Energetics <=

    Nuclear Repulsion Energy =            824.3449426994717442
    One-Electron Energy =               -2577.0286194708305629
    Two-Electron Energy =                1069.0828218069173090
    Total Energy =                       -683.6008549644416235
  Basis Set: (AUG-CC-PVTZ AUX)
    Blend: AUG-CC-PVTZ-RI
    Molecular point group: c1

    Geometry (in Angstrom), charge = 0, multiplicity = 1:

       Center              X                  Y                   Z               Mass
    ------------   -----------------  -----------------  -----------------  -----------------
         O           -0.719564153485    -1.106914994718    -0.245434142217    15.994914619570
         O           -0.763709153485     2.557923005282     0.210364857783    15.994914619570
         O            1.975535846515     1.991323005282    -0.333436142217    15.994914619570
         O            2.900844846515    -0.662021994718     0.178803857783    15.994914619570
         O            0.904953846515    -2.713860994718    -0.058006142217    15.994914619570
         O           -3.424664153485    -0.875366994718     0.199145857783    15.994914619570
         C           -0.331326153485     1.264454005282    -0.229045142217    12.000000000000
         C            1.106648846515     1.015741005282     0.210498857783    12.000000000000
         C           -1.238126153485     0.137487005282     0.240513857783    12.000000000000
         C            1.564879246515    -0.354879494718    -0.264106142217    12.000000000000
         C            0.573469846515    -1.415491994718     0.295471857783    12.000000000000
         C           -2.656981153485     0.214064005282    -0.287247142217    12.000000000000
         H           -0.352930153485     1.314549005282    -1.323366142217     1.007825032230
         H            1.128171846515     1.056265005282     1.320876857783     1.007825032230
         H           -1.272211153485     0.115221005282     1.345748857783     1.007825032230
         H            1.571496846515    -0.413773994718    -1.310318142217     1.007825032230
         H            0.515727846515    -1.402852994718     1.395524857783     1.007825032230
         H           -2.619640153485     0.229749005282    -1.386793142217     1.007825032230
         H           -3.138986153485     1.132433005282     0.054684857783     1.007825032230
         H           -0.837235153485     2.523521005282     1.182951857783     1.007825032230
         H            1.496156846515     2.837672005282    -0.241741142217     1.007825032230
         H            2.992364846515    -0.440816994718     1.122669857783     1.007825032230
         H            1.243523846515    -2.699787994718    -0.971130142217     1.007825032230
         H           -2.902100153485    -1.670285994718    -0.014590142217     1.007825032230

  Basis Set: AUG-CC-PVTZ
    Blend: AUG-CC-PVTZ
  Basis Set: (AUG-CC-PVTZ AUX)
    Blend: AUG-CC-PVTZ-JKFIT
	 Reference Energy          =    -683.6008549644416235 [Eh]
	 Singles Energy            =      -0.0000000000000000 [Eh]
	 Same-Spin Energy          =      -0.6652272251646112 [Eh]
	 Opposite-Spin Energy      =      -2.0449249085654269 [Eh]
	 Correlation Energy        =      -2.7101521337300380 [Eh]
	 Total Energy              =    -686.3110070981716717 [Eh]

	 ================> DF-SCS-MP2 Energies <==================
	-----------------------------------------------------------
	 SCS Same-Spin Scale       =       0.3333333333333333 [-]
	 SCS Opposite-Spin Scale   =       1.2000000000000000 [-]
	 SCS Same-Spin Energy      =      -0.2217424083882037 [Eh]
	 SCS Opposite-Spin Energy  =      -2.4539098902785121 [Eh]
	 SCS Correlation Energy    =      -2.6756522986667157 [Eh]
	 SCS Total Energy          =    -686.2765072631083285 [Eh]
	-----------------------------------------------------------

  Dipole Moment: [D]
     X:     0.1404      Y:     1.6064      Z:     1.3134     Total:     2.0797

*** Psi4 exiting successfully. Buy a developer a beer!
