                               Psi4 1.3.2 release

  ==> Input File <==

--------------------------------------------------------------------------
#psi4
#
memory 32 gb

molecule  {
0 1
  O       -0.8421227    -1.1403554    -0.3200236
  O       -0.7529000     2.5454980     0.2011280
  O        1.9863450     1.9788980    -0.3426730
  O        2.9116540    -0.6744470     0.1695670
  O        0.9157630    -2.7262860    -0.0672430
  O       -3.4138550    -0.8877920     0.1899090
  C       -0.3205170     1.2520290    -0.2382820
  C        1.1174580     1.0033160     0.2012620
  C       -1.2273170     0.1250620     0.2312770
  C        1.5822600    -0.3816350    -0.2226430
  C        0.5842790    -1.4279170     0.2862350
  C       -2.6461720     0.2016390    -0.2964840
  H       -0.3421210     1.3021240    -1.3326030
  H        1.1389810     1.0438400     1.3116400
  H       -1.2614020     0.1027960     1.3365120
  H        1.5823060    -0.4261990    -1.3195550
  H        0.5265370    -1.4152780     1.3862880
  H       -2.6088310     0.2173240    -1.3960300
  H       -3.1281770     1.1200080     0.0454480
  H       -0.8264260     2.5110960     1.1737150
  H        1.5069660     2.8252470    -0.2509780
  H        3.0031740    -0.4532420     1.1134330
  H        1.2543330    -2.7122130    -0.9803670
  H       -2.8912910    -1.6827110    -0.0238270
units angstrom
no_reorient  #important for SAPT in psi4, default
symmetry c1  #important for SAPT in psi4, default
}

set PROPERTIES_ORIGIN ["COM"]
properties('MP2/aug-cc-pvtz', properties = ['dipole'])
--------------------------------------------------------------------------

    Molecular point group: c1
  Charge       = 0
  Multiplicity = 1
  Basis Set: AUG-CC-PVTZ
    Blend: AUG-CC-PVTZ
  Basis Set: (AUG-CC-PVTZ AUX)
    Blend: AUG-CC-PVTZ-JKFIT

    Orbital Energies [Eh]
    ---------------------

    Doubly Occupied:

       1A    -20.598609     2A    -20.591983     3A    -20.589572
       4A    -20.586969     5A    -20.579059     6A    -20.554947
       7A    -11.371094     8A    -11.314154     9A    -11.312153
      10A    -11.310033    11A    -11.300543    12A    -11.278545
      13A     -1.425812    14A     -1.405330    15A     -1.389917
      16A     -1.370988    17A     -1.369124    18A     -1.339062
      19A     -1.083435    20A     -1.040672    21A     -0.946120
      22A     -0.895780    23A     -0.851579    24A     -0.836440
      25A     -0.751388    26A     -0.724236    27A     -0.721858
      28A     -0.707630    29A     -0.686887    30A     -0.675305
      31A     -0.657673    32A     -0.647948    33A     -0.622637
      34A     -0.613266    35A     -0.594929    36A     -0.587741
      37A     -0.569754    38A     -0.561835    39A     -0.554765
      40A     -0.545623    41A     -0.526706    42A     -0.519388
      43A     -0.502124    44A     -0.478664    45A     -0.471639
      46A     -0.461588    47A     -0.447946    48A     -0.432310

  @DF-RHF Final Energy:  -683.58200537080768

   => Energetics <=

    Nuclear Repulsion Energy =            821.6612884255566769
    One-Electron Energy =               -2571.6750703100979081
    Two-Electron Energy =                1066.4317765137334391
    Total Energy =                       -683.5820053708077921
  Basis Set: (AUG-CC-PVTZ AUX)
    Blend: AUG-CC-PVTZ-RI
    Molecular point group: c1

    Geometry (in Angstrom), charge = 0, multiplicity = 1:

       Center              X                  Y                   Z               Mass
    ------------   -----------------  -----------------  -----------------  -----------------
         O           -0.841522839159    -1.125108579945    -0.308360323044    15.994914619570
         O           -0.752300139159     2.560744820055     0.212791276956    15.994914619570
         O            1.986944860841     1.994144820055    -0.331009723044    15.994914619570
         O            2.912253860841    -0.659200179945     0.181230276956    15.994914619570
         O            0.916362860841    -2.711039179945    -0.055579723044    15.994914619570
         O           -3.413255139159    -0.872545179945     0.201572276956    15.994914619570
         C           -0.319917139159     1.267275820055    -0.226618723044    12.000000000000
         C            1.118057860841     1.018562820055     0.212925276956    12.000000000000
         C           -1.226717139159     0.140308820055     0.242940276956    12.000000000000
         C            1.582859860841    -0.366388179945    -0.210979723044    12.000000000000
         C            0.584878860841    -1.412670179945     0.297898276956    12.000000000000
         C           -2.645572139159     0.216885820055    -0.284820723044    12.000000000000
         H           -0.341521139159     1.317370820055    -1.320939723044     1.007825032230
         H            1.139580860841     1.059086820055     1.323303276956     1.007825032230
         H           -1.260802139159     0.118042820055     1.348175276956     1.007825032230
         H            1.582905860841    -0.410952179945    -1.307891723044     1.007825032230
         H            0.527136860841    -1.400031179945     1.397951276956     1.007825032230
         H           -2.608231139159     0.232570820055    -1.384366723044     1.007825032230
         H           -3.127577139159     1.135254820055     0.057111276956     1.007825032230
         H           -0.825826139159     2.526342820055     1.185378276956     1.007825032230
         H            1.507565860841     2.840493820055    -0.239314723044     1.007825032230
         H            3.003773860841    -0.437995179945     1.125096276956     1.007825032230
         H            1.254932860841    -2.696966179945    -0.968703723044     1.007825032230
         H           -2.890691139159    -1.667464179945    -0.012163723044     1.007825032230

  Basis Set: AUG-CC-PVTZ
    Blend: AUG-CC-PVTZ
  Basis Set: (AUG-CC-PVTZ AUX)
    Blend: AUG-CC-PVTZ-JKFIT
	 Reference Energy          =    -683.5820053708076784 [Eh]
	 Singles Energy            =      -0.0000000000000000 [Eh]
	 Same-Spin Energy          =      -0.6676172545714999 [Eh]
	 Opposite-Spin Energy      =      -2.0511306612617495 [Eh]
	 Correlation Energy        =      -2.7187479158332493 [Eh]
	 Total Energy              =    -686.3007532866408837 [Eh]

	 ================> DF-SCS-MP2 Energies <==================
	-----------------------------------------------------------
	 SCS Same-Spin Scale       =       0.3333333333333333 [-]
	 SCS Opposite-Spin Scale   =       1.2000000000000000 [-]
	 SCS Same-Spin Energy      =      -0.2225390848571666 [Eh]
	 SCS Opposite-Spin Energy  =      -2.4613567935140992 [Eh]
	 SCS Correlation Energy    =      -2.6838958783712656 [Eh]
	 SCS Total Energy          =    -686.2659012491789099 [Eh]
	-----------------------------------------------------------

  Dipole Moment: [D]
     X:     0.9085      Y:     1.4513      Z:     1.5077     Total:     2.2814

*** Psi4 exiting successfully. Buy a developer a beer!
