                               Psi4 1.3.2 release

  ==> Input File <==

--------------------------------------------------------------------------
#psi4
#
memory 32 gb

molecule  {
0 1
  O       -0.7087550    -1.1193400    -0.2546710
  O       -0.7529000     2.5454980     0.2011280
  O        1.9863450     1.9788980    -0.3426730
  O        2.9116540    -0.6744470     0.1695670
  O        0.9157630    -2.7262860    -0.0672430
  O       -3.4138550    -0.8877920     0.1899090
  C       -0.4030714     1.2908399    -0.2925622
  C        1.1174580     1.0033160     0.2012620
  C       -1.2273170     0.1250620     0.2312770
  C        1.5822600    -0.3816350    -0.2226430
  C        0.5842790    -1.4279170     0.2862350
  C       -2.6461720     0.2016390    -0.2964840
  H       -0.3421210     1.3021240    -1.3326030
  H        1.1389810     1.0438400     1.3116400
  H       -1.2614020     0.1027960     1.3365120
  H        1.5823060    -0.4261990    -1.3195550
  H        0.5265370    -1.4152780     1.3862880
  H       -2.6088310     0.2173240    -1.3960300
  H       -3.1281770     1.1200080     0.0454480
  H       -0.8264260     2.5110960     1.1737150
  H        1.5069660     2.8252470    -0.2509780
  H        3.0031740    -0.4532420     1.1134330
  H        1.2543330    -2.7122130    -0.9803670
  H       -2.8912910    -1.6827110    -0.0238270
units angstrom
no_reorient  #important for SAPT in psi4, default
symmetry c1  #important for SAPT in psi4, default
}

set PROPERTIES_ORIGIN ["COM"]
properties('MP2/aug-cc-pvtz', properties = ['dipole'])
--------------------------------------------------------------------------

    Molecular point group: c1
  Charge       = 0
  Multiplicity = 1
  Basis Set: AUG-CC-PVTZ
    Blend: AUG-CC-PVTZ
  Basis Set: (AUG-CC-PVTZ AUX)
    Blend: AUG-CC-PVTZ-JKFIT

    Orbital Energies [Eh]
    ---------------------

    Doubly Occupied:

       1A    -20.601316     2A    -20.589050     3A    -20.582715
       4A    -20.577083     5A    -20.575036     6A    -20.560824
       7A    -11.355513     8A    -11.310134     9A    -11.308477
      10A    -11.306903    11A    -11.302154    12A    -11.285540
      13A     -1.439348    14A     -1.414038    15A     -1.387087
      16A     -1.372807    17A     -1.364192    18A     -1.351816
      19A     -1.070444    20A     -1.049804    21A     -0.940345
      22A     -0.893912    23A     -0.848921    24A     -0.846919
      25A     -0.752778    26A     -0.729237    27A     -0.721696
      28A     -0.711238    29A     -0.693603    30A     -0.670759
      31A     -0.658143    32A     -0.652848    33A     -0.632348
      34A     -0.617712    35A     -0.599185    36A     -0.586557
      37A     -0.568924    38A     -0.561602    39A     -0.555129
      40A     -0.549514    41A     -0.528329    42A     -0.516487
      43A     -0.502318    44A     -0.486756    45A     -0.473445
      46A     -0.457198    47A     -0.438611    48A     -0.417695

  @DF-RHF Final Energy:  -683.59531795584996

   => Energetics <=

    Nuclear Repulsion Energy =            823.6078984282072497
    One-Electron Energy =               -2575.5734465089326477
    Two-Electron Energy =                1068.3702301248754338
    Total Energy =                       -683.5953179558500779
  Basis Set: (AUG-CC-PVTZ AUX)
    Blend: AUG-CC-PVTZ-RI
    Molecular point group: c1

    Geometry (in Angstrom), charge = 0, multiplicity = 1:

       Center              X                  Y                   Z               Mass
    ------------   -----------------  -----------------  -----------------  -----------------
         O           -0.714500416711    -1.108546446859    -0.245195546240    15.994914619570
         O           -0.758645416711     2.556291553141     0.210603453760    15.994914619570
         O            1.980599583289     1.989691553141    -0.333197546240    15.994914619570
         O            2.905908583289    -0.663653446859     0.179042453760    15.994914619570
         O            0.910017583289    -2.715492446859    -0.057767546240    15.994914619570
         O           -3.419600416711    -0.876998446859     0.199384453760    15.994914619570
         C           -0.408816816711     1.301633453141    -0.283086746240    12.000000000000
         C            1.111712583289     1.014109553141     0.210737453760    12.000000000000
         C           -1.233062416711     0.135855553141     0.240752453760    12.000000000000
         C            1.576514583289    -0.370841446859    -0.213167546240    12.000000000000
         C            0.578533583289    -1.417123446859     0.295710453760    12.000000000000
         C           -2.651917416711     0.212432553141    -0.287008546240    12.000000000000
         H           -0.347866416711     1.312917553141    -1.323127546240     1.007825032230
         H            1.133235583289     1.054633553141     1.321115453760     1.007825032230
         H           -1.267147416711     0.113589553141     1.345987453760     1.007825032230
         H            1.576560583289    -0.415405446859    -1.310079546240     1.007825032230
         H            0.520791583289    -1.404484446859     1.395763453760     1.007825032230
         H           -2.614576416711     0.228117553141    -1.386554546240     1.007825032230
         H           -3.133922416711     1.130801553141     0.054923453760     1.007825032230
         H           -0.832171416711     2.521889553141     1.183190453760     1.007825032230
         H            1.501220583289     2.836040553141    -0.241502546240     1.007825032230
         H            2.997428583289    -0.442448446859     1.122908453760     1.007825032230
         H            1.248587583289    -2.701419446859    -0.970891546240     1.007825032230
         H           -2.897036416711    -1.671917446859    -0.014351546240     1.007825032230

  Basis Set: AUG-CC-PVTZ
    Blend: AUG-CC-PVTZ
  Basis Set: (AUG-CC-PVTZ AUX)
    Blend: AUG-CC-PVTZ-JKFIT
	 Reference Energy          =    -683.5953179558499642 [Eh]
	 Singles Energy            =      -0.0000000000000000 [Eh]
	 Same-Spin Energy          =      -0.6651988159865205 [Eh]
	 Opposite-Spin Energy      =      -2.0443751043815368 [Eh]
	 Correlation Energy        =      -2.7095739203680571 [Eh]
	 Total Energy              =    -686.3048918762179937 [Eh]

	 ================> DF-SCS-MP2 Energies <==================
	-----------------------------------------------------------
	 SCS Same-Spin Scale       =       0.3333333333333333 [-]
	 SCS Opposite-Spin Scale   =       1.2000000000000000 [-]
	 SCS Same-Spin Energy      =      -0.2217329386621735 [Eh]
	 SCS Opposite-Spin Energy  =      -2.4532501252578442 [Eh]
	 SCS Correlation Energy    =      -2.6749830639200178 [Eh]
	 SCS Total Energy          =    -686.2703010197699314 [Eh]
	-----------------------------------------------------------

  Dipole Moment: [D]
     X:     0.1086      Y:     1.7711      Z:     1.3527     Total:     2.2313

*** Psi4 exiting successfully. Buy a developer a beer!
