                               Psi4 1.3.2 release

  ==> Input File <==

--------------------------------------------------------------------------
#psi4
#
memory 32 gb

molecule  {
0 1
  O       -0.6988596    -1.0995897    -0.2664788
  O       -0.7529000     2.5454980     0.2011280
  O        1.9863450     1.9788980    -0.3426730
  O        2.9116540    -0.6744470     0.1695670
  O        0.9157630    -2.7262860    -0.0672430
  O       -3.4138550    -0.8877920     0.1899090
  C       -0.3205170     1.2520290    -0.2382820
  C        1.1174580     1.0033160     0.2012620
  C       -1.2273170     0.1250620     0.2312770
  C        1.5822600    -0.3816350    -0.2226430
  C        0.5842790    -1.4279170     0.2862350
  C       -2.6461720     0.2016390    -0.2964840
  H       -0.3421210     1.3021240    -1.3326030
  H        1.1389810     1.0438400     1.3116400
  H       -1.2614020     0.1027960     1.3365120
  H        1.5823060    -0.4261990    -1.3195550
  H        0.5265370    -1.4152780     1.3862880
  H       -2.6088310     0.2173240    -1.3960300
  H       -3.1281770     1.1200080     0.0454480
  H       -0.8264260     2.5110960     1.1737150
  H        1.5069660     2.8252470    -0.2509780
  H        3.0031740    -0.4532420     1.1134330
  H        1.2543330    -2.7122130    -0.9803670
  H       -2.8912910    -1.6827110    -0.0238270
units angstrom
no_reorient  #important for SAPT in psi4, default
symmetry c1  #important for SAPT in psi4, default
}

set PROPERTIES_ORIGIN ["COM"]
properties('MP2/aug-cc-pvtz', properties = ['dipole'])
--------------------------------------------------------------------------

    Molecular point group: c1
  Charge       = 0
  Multiplicity = 1
  Basis Set: AUG-CC-PVTZ
    Blend: AUG-CC-PVTZ
  Basis Set: (AUG-CC-PVTZ AUX)
    Blend: AUG-CC-PVTZ-JKFIT

    Orbital Energies [Eh]
    ---------------------

    Doubly Occupied:

       1A    -20.597368     2A    -20.588271     3A    -20.584698
       4A    -20.578667     5A    -20.577174     6A    -20.563067
       7A    -11.357447     8A    -11.309701     9A    -11.309064
      10A    -11.307341    11A    -11.304477    12A    -11.287157
      13A     -1.441674    14A     -1.404467    15A     -1.387730
      16A     -1.373355    17A     -1.365533    18A     -1.354483
      19A     -1.079758    20A     -1.051817    21A     -0.945884
      22A     -0.891178    23A     -0.854269    24A     -0.842643
      25A     -0.754884    26A     -0.730008    27A     -0.720734
      28A     -0.709928    29A     -0.693965    30A     -0.675055
      31A     -0.660711    32A     -0.654893    33A     -0.619484
      34A     -0.615415    35A     -0.598042    36A     -0.587480
      37A     -0.570145    38A     -0.562073    39A     -0.555548
      40A     -0.543190    41A     -0.528141    42A     -0.518056
      43A     -0.502792    44A     -0.486983    45A     -0.473795
      46A     -0.461910    47A     -0.446739    48A     -0.429856

  @DF-RHF Final Energy:  -683.60412121508216

   => Energetics <=

    Nuclear Repulsion Energy =            825.0700227302014582
    One-Electron Energy =               -2578.4341865800597589
    Two-Electron Energy =                1069.7600426347762550
    Total Energy =                       -683.6041212150821593
  Basis Set: (AUG-CC-PVTZ AUX)
    Blend: AUG-CC-PVTZ-RI
    Molecular point group: c1

    Geometry (in Angstrom), charge = 0, multiplicity = 1:

       Center              X                  Y                   Z               Mass
    ------------   -----------------  -----------------  -----------------  -----------------
         O           -0.710985707924    -1.087964070781    -0.259571873090    15.994914619570
         O           -0.765026107924     2.557123629219     0.208034926910    15.994914619570
         O            1.974218892076     1.990523629219    -0.335766073090    15.994914619570
         O            2.899527892076    -0.662821370781     0.176473926910    15.994914619570
         O            0.903636892076    -2.714660370781    -0.060336073090    15.994914619570
         O           -3.425981107924    -0.876166370781     0.196815926910    15.994914619570
         C           -0.332643107924     1.263654629219    -0.231375073090    12.000000000000
         C            1.105331892076     1.014941629219     0.208168926910    12.000000000000
         C           -1.239443107924     0.136687629219     0.238183926910    12.000000000000
         C            1.570133892076    -0.370009370781    -0.215736073090    12.000000000000
         C            0.572152892076    -1.416291370781     0.293141926910    12.000000000000
         C           -2.658298107924     0.213264629219    -0.289577073090    12.000000000000
         H           -0.354247107924     1.313749629219    -1.325696073090     1.007825032230
         H            1.126854892076     1.055465629219     1.318546926910     1.007825032230
         H           -1.273528107924     0.114421629219     1.343418926910     1.007825032230
         H            1.570179892076    -0.414573370781    -1.312648073090     1.007825032230
         H            0.514410892076    -1.403652370781     1.393194926910     1.007825032230
         H           -2.620957107924     0.228949629219    -1.389123073090     1.007825032230
         H           -3.140303107924     1.131633629219     0.052354926910     1.007825032230
         H           -0.838552107924     2.522721629219     1.180621926910     1.007825032230
         H            1.494839892076     2.836872629219    -0.244071073090     1.007825032230
         H            2.991047892076    -0.441616370781     1.120339926910     1.007825032230
         H            1.242206892076    -2.700587370781    -0.973460073090     1.007825032230
         H           -2.903417107924    -1.671085370781    -0.016920073090     1.007825032230

  Basis Set: AUG-CC-PVTZ
    Blend: AUG-CC-PVTZ
  Basis Set: (AUG-CC-PVTZ AUX)
    Blend: AUG-CC-PVTZ-JKFIT
	 Reference Energy          =    -683.6041212150821593 [Eh]
	 Singles Energy            =      -0.0000000000000000 [Eh]
	 Same-Spin Energy          =      -0.6654139207284169 [Eh]
	 Opposite-Spin Energy      =      -2.0446015665801229 [Eh]
	 Correlation Energy        =      -2.7100154873085396 [Eh]
	 Total Energy              =    -686.3141367023906696 [Eh]

	 ================> DF-SCS-MP2 Energies <==================
	-----------------------------------------------------------
	 SCS Same-Spin Scale       =       0.3333333333333333 [-]
	 SCS Opposite-Spin Scale   =       1.2000000000000000 [-]
	 SCS Same-Spin Energy      =      -0.2218046402428056 [Eh]
	 SCS Opposite-Spin Energy  =      -2.4535218798961473 [Eh]
	 SCS Correlation Energy    =      -2.6753265201389529 [Eh]
	 SCS Total Energy          =    -686.2794477352210833 [Eh]
	-----------------------------------------------------------

  Dipole Moment: [D]
     X:     0.1960      Y:     1.5387      Z:     1.3844     Total:     2.0791

*** Psi4 exiting successfully. Buy a developer a beer!
