                               Psi4 1.3.2 release

  ==> Input File <==

--------------------------------------------------------------------------
#psi4
#
memory 32 gb

molecule  {
0 1
  O       -0.7087550    -1.1193400    -0.2546710
  O       -0.7529000     2.5454980     0.2011280
  O        1.9863450     1.9788980    -0.3426730
  O        2.9116540    -0.6744470     0.1695670
  O        0.9157630    -2.7262860    -0.0672430
  O       -3.4138550    -0.8877920     0.1899090
  C       -0.3205170     1.2520290    -0.2382820
  C        1.1788578     1.0722554     0.1628249
  C       -1.2273170     0.1250620     0.2312770
  C        1.5822600    -0.3816350    -0.2226430
  C        0.5842790    -1.4279170     0.2862350
  C       -2.6461720     0.2016390    -0.2964840
  H       -0.3421210     1.3021240    -1.3326030
  H        1.1389810     1.0438400     1.3116400
  H       -1.2614020     0.1027960     1.3365120
  H        1.5823060    -0.4261990    -1.3195550
  H        0.5265370    -1.4152780     1.3862880
  H       -2.6088310     0.2173240    -1.3960300
  H       -3.1281770     1.1200080     0.0454480
  H       -0.8264260     2.5110960     1.1737150
  H        1.5069660     2.8252470    -0.2509780
  H        3.0031740    -0.4532420     1.1134330
  H        1.2543330    -2.7122130    -0.9803670
  H       -2.8912910    -1.6827110    -0.0238270
units angstrom
no_reorient  #important for SAPT in psi4, default
symmetry c1  #important for SAPT in psi4, default
}

set PROPERTIES_ORIGIN ["COM"]
properties('MP2/aug-cc-pvtz', properties = ['dipole'])
--------------------------------------------------------------------------

    Molecular point group: c1
  Charge       = 0
  Multiplicity = 1
  Basis Set: AUG-CC-PVTZ
    Blend: AUG-CC-PVTZ
  Basis Set: (AUG-CC-PVTZ AUX)
    Blend: AUG-CC-PVTZ-JKFIT

    Orbital Energies [Eh]
    ---------------------

    Doubly Occupied:

       1A    -20.595975     2A    -20.588973     3A    -20.586452
       4A    -20.583349     5A    -20.576113     6A    -20.562108
       7A    -11.356250     8A    -11.312961     9A    -11.307895
      10A    -11.307211    11A    -11.302880    12A    -11.286745
      13A     -1.442058    14A     -1.431359    15A     -1.391630
      16A     -1.377194    17A     -1.369322    18A     -1.352018
      19A     -1.068949    20A     -1.045490    21A     -0.941735
      22A     -0.891578    23A     -0.853516    24A     -0.838863
      25A     -0.761260    26A     -0.734957    27A     -0.721162
      28A     -0.706569    29A     -0.692099    30A     -0.681713
      31A     -0.669108    32A     -0.656997    33A     -0.622333
      34A     -0.614985    35A     -0.599061    36A     -0.587996
      37A     -0.581271    38A     -0.562953    39A     -0.554791
      40A     -0.548150    41A     -0.526187    42A     -0.515548
      43A     -0.497186    44A     -0.484899    45A     -0.461434
      46A     -0.456711    47A     -0.437829    48A     -0.428387

  @DF-RHF Final Energy:  -683.59458346975021

   => Energetics <=

    Nuclear Repulsion Energy =            824.1920004415652556
    One-Electron Energy =               -2576.6247446573502202
    Two-Electron Energy =                1068.8381607460348732
    Total Energy =                       -683.5945834697502050
  Basis Set: (AUG-CC-PVTZ AUX)
    Blend: AUG-CC-PVTZ-RI
    Molecular point group: c1

    Geometry (in Angstrom), charge = 0, multiplicity = 1:

       Center              X                  Y                   Z               Mass
    ------------   -----------------  -----------------  -----------------  -----------------
         O           -0.724093984944    -1.110554306446    -0.246251381088    15.994914619570
         O           -0.768238984944     2.554283693554     0.209547618912    15.994914619570
         O            1.971006015056     1.987683693554    -0.334253381088    15.994914619570
         O            2.896315015056    -0.665661306446     0.177986618912    15.994914619570
         O            0.900424015056    -2.717500306446    -0.058823381088    15.994914619570
         O           -3.429193984944    -0.879006306446     0.198328618912    15.994914619570
         C           -0.335855984944     1.260814693554    -0.229862381088    12.000000000000
         C            1.163518815056     1.081041093554     0.171244518912    12.000000000000
         C           -1.242655984944     0.133847693554     0.239696618912    12.000000000000
         C            1.566921015056    -0.372849306446    -0.214223381088    12.000000000000
         C            0.568940015056    -1.419131306446     0.294654618912    12.000000000000
         C           -2.661510984944     0.210424693554    -0.288064381088    12.000000000000
         H           -0.357459984944     1.310909693554    -1.324183381088     1.007825032230
         H            1.123642015056     1.052625693554     1.320059618912     1.007825032230
         H           -1.276740984944     0.111581693554     1.344931618912     1.007825032230
         H            1.566967015056    -0.417413306446    -1.311135381088     1.007825032230
         H            0.511198015056    -1.406492306446     1.394707618912     1.007825032230
         H           -2.624169984944     0.226109693554    -1.387610381088     1.007825032230
         H           -3.143515984944     1.128793693554     0.053867618912     1.007825032230
         H           -0.841764984944     2.519881693554     1.182134618912     1.007825032230
         H            1.491627015056     2.834032693554    -0.242558381088     1.007825032230
         H            2.987835015056    -0.444456306446     1.121852618912     1.007825032230
         H            1.238994015056    -2.703427306446    -0.971947381088     1.007825032230
         H           -2.906629984944    -1.673925306446    -0.015407381088     1.007825032230

  Basis Set: AUG-CC-PVTZ
    Blend: AUG-CC-PVTZ
  Basis Set: (AUG-CC-PVTZ AUX)
    Blend: AUG-CC-PVTZ-JKFIT
	 Reference Energy          =    -683.5945834697502050 [Eh]
	 Singles Energy            =      -0.0000000000000000 [Eh]
	 Same-Spin Energy          =      -0.6654182047258064 [Eh]
	 Opposite-Spin Energy      =      -2.0437693828535091 [Eh]
	 Correlation Energy        =      -2.7091875875793154 [Eh]
	 Total Energy              =    -686.3037710573295271 [Eh]

	 ================> DF-SCS-MP2 Energies <==================
	-----------------------------------------------------------
	 SCS Same-Spin Scale       =       0.3333333333333333 [-]
	 SCS Opposite-Spin Scale   =       1.2000000000000000 [-]
	 SCS Same-Spin Energy      =      -0.2218060682419354 [Eh]
	 SCS Opposite-Spin Energy  =      -2.4525232594242108 [Eh]
	 SCS Correlation Energy    =      -2.6743293276661464 [Eh]
	 SCS Total Energy          =    -686.2689127974163057 [Eh]
	-----------------------------------------------------------

  Dipole Moment: [D]
     X:     0.4235      Y:     1.8754      Z:     1.1921     Total:     2.2622

*** Psi4 exiting successfully. Buy a developer a beer!
