                               Psi4 1.3.2 release

  ==> Input File <==

--------------------------------------------------------------------------
#psi4
#
memory 32 gb

molecule  {
0 1
  O       -0.7087550    -1.1193400    -0.2546710
  O       -0.7137153     2.5656638     0.1774787
  O        1.9863450     1.9788980    -0.3426730
  O        2.9116540    -0.6744470     0.1695670
  O        0.9157630    -2.7262860    -0.0672430
  O       -3.4138550    -0.8877920     0.1899090
  C       -0.3205170     1.2520290    -0.2382820
  C        1.1174580     1.0033160     0.2012620
  C       -1.2273170     0.1250620     0.2312770
  C        1.5822600    -0.3816350    -0.2226430
  C        0.5842790    -1.4279170     0.2862350
  C       -2.6461720     0.2016390    -0.2964840
  H       -0.3421210     1.3021240    -1.3326030
  H        1.1389810     1.0438400     1.3116400
  H       -1.2614020     0.1027960     1.3365120
  H        1.5823060    -0.4261990    -1.3195550
  H        0.5265370    -1.4152780     1.3862880
  H       -2.6088310     0.2173240    -1.3960300
  H       -3.1281770     1.1200080     0.0454480
  H       -0.8264260     2.5110960     1.1737150
  H        1.5069660     2.8252470    -0.2509780
  H        3.0031740    -0.4532420     1.1134330
  H        1.2543330    -2.7122130    -0.9803670
  H       -2.8912910    -1.6827110    -0.0238270
units angstrom
no_reorient  #important for SAPT in psi4, default
symmetry c1  #important for SAPT in psi4, default
}

set PROPERTIES_ORIGIN ["COM"]
properties('MP2/aug-cc-pvtz', properties = ['dipole'])
--------------------------------------------------------------------------

    Molecular point group: c1
  Charge       = 0
  Multiplicity = 1
  Basis Set: AUG-CC-PVTZ
    Blend: AUG-CC-PVTZ
  Basis Set: (AUG-CC-PVTZ AUX)
    Blend: AUG-CC-PVTZ-JKFIT

    Orbital Energies [Eh]
    ---------------------

    Doubly Occupied:

       1A    -20.602041     2A    -20.589614     3A    -20.583920
       4A    -20.578729     5A    -20.576046     6A    -20.563385
       7A    -11.357050     8A    -11.310097     9A    -11.309337
      10A    -11.308667    11A    -11.304515    12A    -11.288273
      13A     -1.440558    14A     -1.402911    15A     -1.386598
      16A     -1.372242    17A     -1.364274    18A     -1.353656
      19A     -1.080068    20A     -1.051322    21A     -0.945666
      22A     -0.890080    23A     -0.854498    24A     -0.841521
      25A     -0.753579    26A     -0.730018    27A     -0.721030
      28A     -0.707376    29A     -0.691529    30A     -0.674837
      31A     -0.660250    32A     -0.654545    33A     -0.620881
      34A     -0.613740    35A     -0.598169    36A     -0.587737
      37A     -0.570022    38A     -0.561985    39A     -0.555896
      40A     -0.541025    41A     -0.528385    42A     -0.517646
      43A     -0.502984    44A     -0.487547    45A     -0.473932
      46A     -0.462345    47A     -0.446185    48A     -0.431550

  @DF-RHF Final Energy:  -683.60066692687906

   => Energetics <=

    Nuclear Repulsion Energy =            824.4804214564412632
    One-Electron Energy =               -2577.2656527632416328
    Two-Electron Energy =                1069.1845643799213121
    Total Energy =                       -683.6006669268790574
  Basis Set: (AUG-CC-PVTZ AUX)
    Blend: AUG-CC-PVTZ-RI
    Molecular point group: c1

    Geometry (in Angstrom), charge = 0, multiplicity = 1:

       Center              X                  Y                   Z               Mass
    ------------   -----------------  -----------------  -----------------  -----------------
         O           -0.723482857550    -1.107751279378    -0.246712200283    15.994914619570
         O           -0.728443157550     2.577252520622     0.185437499717    15.994914619570
         O            1.971617142450     1.990486720622    -0.334714200283    15.994914619570
         O            2.896926142450    -0.662858279378     0.177525799717    15.994914619570
         O            0.901035142450    -2.714697279378    -0.059284200283    15.994914619570
         O           -3.428582857550    -0.876203279378     0.197867799717    15.994914619570
         C           -0.335244857550     1.263617720622    -0.230323200283    12.000000000000
         C            1.102730142450     1.014904720622     0.209220799717    12.000000000000
         C           -1.242044857550     0.136650720622     0.239235799717    12.000000000000
         C            1.567532142450    -0.370046279378    -0.214684200283    12.000000000000
         C            0.569551142450    -1.416328279378     0.294193799717    12.000000000000
         C           -2.660899857550     0.213227720622    -0.288525200283    12.000000000000
         H           -0.356848857550     1.313712720622    -1.324644200283     1.007825032230
         H            1.124253142450     1.055428720622     1.319598799717     1.007825032230
         H           -1.276129857550     0.114384720622     1.344470799717     1.007825032230
         H            1.567578142450    -0.414610279378    -1.311596200283     1.007825032230
         H            0.511809142450    -1.403689279378     1.394246799717     1.007825032230
         H           -2.623558857550     0.228912720622    -1.388071200283     1.007825032230
         H           -3.142904857550     1.131596720622     0.053406799717     1.007825032230
         H           -0.841153857550     2.522684720622     1.181673799717     1.007825032230
         H            1.492238142450     2.836835720622    -0.243019200283     1.007825032230
         H            2.988446142450    -0.441653279378     1.121391799717     1.007825032230
         H            1.239605142450    -2.700624279378    -0.972408200283     1.007825032230
         H           -2.906018857550    -1.671122279378    -0.015868200283     1.007825032230

  Basis Set: AUG-CC-PVTZ
    Blend: AUG-CC-PVTZ
  Basis Set: (AUG-CC-PVTZ AUX)
    Blend: AUG-CC-PVTZ-JKFIT
	 Reference Energy          =    -683.6006669268790574 [Eh]
	 Singles Energy            =      -0.0000000000000000 [Eh]
	 Same-Spin Energy          =      -0.6659442065891281 [Eh]
	 Opposite-Spin Energy      =      -2.0460107610300895 [Eh]
	 Correlation Energy        =      -2.7119549676192176 [Eh]
	 Total Energy              =    -686.3126218944983066 [Eh]

	 ================> DF-SCS-MP2 Energies <==================
	-----------------------------------------------------------
	 SCS Same-Spin Scale       =       0.3333333333333333 [-]
	 SCS Opposite-Spin Scale   =       1.2000000000000000 [-]
	 SCS Same-Spin Energy      =      -0.2219814021963760 [Eh]
	 SCS Opposite-Spin Energy  =      -2.4552129132361071 [Eh]
	 SCS Correlation Energy    =      -2.6771943154324833 [Eh]
	 SCS Total Energy          =    -686.2778612423115874 [Eh]
	-----------------------------------------------------------

  Dipole Moment: [D]
     X:     0.1065      Y:     1.5626      Z:     1.3919     Total:     2.0954

*** Psi4 exiting successfully. Buy a developer a beer!
