                               Psi4 1.3.2 release

  ==> Input File <==

--------------------------------------------------------------------------
#psi4
#
memory 32 gb

molecule  {
0 1
  O       -0.7087550    -1.1193400    -0.2546710
  O       -0.7529000     2.5454980     0.2011280
  O        1.9863450     1.9788980    -0.3426730
  O        2.9116540    -0.6744470     0.1695670
  O        0.9163721    -2.7481782     0.0269763
  O       -3.4138550    -0.8877920     0.1899090
  C       -0.3205170     1.2520290    -0.2382820
  C        1.1174580     1.0033160     0.2012620
  C       -1.2273170     0.1250620     0.2312770
  C        1.5822600    -0.3816350    -0.2226430
  C        0.5842790    -1.4279170     0.2862350
  C       -2.6461720     0.2016390    -0.2964840
  H       -0.3421210     1.3021240    -1.3326030
  H        1.1389810     1.0438400     1.3116400
  H       -1.2614020     0.1027960     1.3365120
  H        1.5823060    -0.4261990    -1.3195550
  H        0.5265370    -1.4152780     1.3862880
  H       -2.6088310     0.2173240    -1.3960300
  H       -3.1281770     1.1200080     0.0454480
  H       -0.8264260     2.5110960     1.1737150
  H        1.5069660     2.8252470    -0.2509780
  H        3.0031740    -0.4532420     1.1134330
  H        1.2543330    -2.7122130    -0.9803670
  H       -2.8912910    -1.6827110    -0.0238270
units angstrom
no_reorient  #important for SAPT in psi4, default
symmetry c1  #important for SAPT in psi4, default
}

set PROPERTIES_ORIGIN ["COM"]
properties('MP2/aug-cc-pvtz', properties = ['dipole'])
--------------------------------------------------------------------------

    Molecular point group: c1
  Charge       = 0
  Multiplicity = 1
  Basis Set: AUG-CC-PVTZ
    Blend: AUG-CC-PVTZ
  Basis Set: (AUG-CC-PVTZ AUX)
    Blend: AUG-CC-PVTZ-JKFIT

    Orbital Energies [Eh]
    ---------------------

    Doubly Occupied:

       1A    -20.598560     2A    -20.594655     3A    -20.589167
       4A    -20.579289     5A    -20.577813     6A    -20.562844
       7A    -11.355214     8A    -11.310893     9A    -11.310197
      10A    -11.308503    11A    -11.306155    12A    -11.287506
      13A     -1.436517    14A     -1.404661    15A     -1.387660
      16A     -1.369939    17A     -1.365389    18A     -1.349485
      19A     -1.081179    20A     -1.049854    21A     -0.944961
      22A     -0.885676    23A     -0.853319    24A     -0.842327
      25A     -0.749614    26A     -0.729425    27A     -0.721096
      28A     -0.703694    29A     -0.694143    30A     -0.675275
      31A     -0.659740    32A     -0.646861    33A     -0.620165
      34A     -0.613028    35A     -0.598701    36A     -0.587267
      37A     -0.571348    38A     -0.561208    39A     -0.556351
      40A     -0.543612    41A     -0.525781    42A     -0.517856
      43A     -0.501112    44A     -0.486684    45A     -0.474482
      46A     -0.462397    47A     -0.447093    48A     -0.431336

  @DF-RHF Final Energy:  -683.59011140512121

   => Energetics <=

    Nuclear Repulsion Energy =            823.8179247685371820
    One-Electron Energy =               -2575.9560048330126847
    Two-Electron Energy =                1068.5479686593544102
    Total Energy =                       -683.5901114051212062
  Basis Set: (AUG-CC-PVTZ AUX)
    Blend: AUG-CC-PVTZ-RI
    Molecular point group: c1

    Geometry (in Angstrom), charge = 0, multiplicity = 1:

       Center              X                  Y                   Z               Mass
    ------------   -----------------  -----------------  -----------------  -----------------
         O           -0.720056211885    -1.104015294367    -0.257182391993    15.994914619570
         O           -0.764201211885     2.560822705633     0.198616608007    15.994914619570
         O            1.975043788115     1.994222705633    -0.345184391993    15.994914619570
         O            2.900352788115    -0.659122294367     0.167055608007    15.994914619570
         O            0.905070888115    -2.732853494367     0.024464908007    15.994914619570
         O           -3.425156211885    -0.872467294367     0.187397608007    15.994914619570
         C           -0.331818211885     1.267353705633    -0.240793391993    12.000000000000
         C            1.106156788115     1.018640705633     0.198750608007    12.000000000000
         C           -1.238618211885     0.140386705633     0.228765608007    12.000000000000
         C            1.570958788115    -0.366310294367    -0.225154391993    12.000000000000
         C            0.572977788115    -1.412592294367     0.283723608007    12.000000000000
         C           -2.657473211885     0.216963705633    -0.298995391993    12.000000000000
         H           -0.353422211885     1.317448705633    -1.335114391993     1.007825032230
         H            1.127679788115     1.059164705633     1.309128608007     1.007825032230
         H           -1.272703211885     0.118120705633     1.334000608007     1.007825032230
         H            1.571004788115    -0.410874294367    -1.322066391993     1.007825032230
         H            0.515235788115    -1.399953294367     1.383776608007     1.007825032230
         H           -2.620132211885     0.232648705633    -1.398541391993     1.007825032230
         H           -3.139478211885     1.135332705633     0.042936608007     1.007825032230
         H           -0.837727211885     2.526420705633     1.171203608007     1.007825032230
         H            1.495664788115     2.840571705633    -0.253489391993     1.007825032230
         H            2.991872788115    -0.437917294367     1.110921608007     1.007825032230
         H            1.243031788115    -2.696888294367    -0.982878391993     1.007825032230
         H           -2.902592211885    -1.667386294367    -0.026338391993     1.007825032230

  Basis Set: AUG-CC-PVTZ
    Blend: AUG-CC-PVTZ
  Basis Set: (AUG-CC-PVTZ AUX)
    Blend: AUG-CC-PVTZ-JKFIT
	 Reference Energy          =    -683.5901114051212062 [Eh]
	 Singles Energy            =      -0.0000000000000000 [Eh]
	 Same-Spin Energy          =      -0.6667668197406376 [Eh]
	 Opposite-Spin Energy      =      -2.0483506086964374 [Eh]
	 Correlation Energy        =      -2.7151174284370749 [Eh]
	 Total Energy              =    -686.3052288335583171 [Eh]

	 ================> DF-SCS-MP2 Energies <==================
	-----------------------------------------------------------
	 SCS Same-Spin Scale       =       0.3333333333333333 [-]
	 SCS Opposite-Spin Scale   =       1.2000000000000000 [-]
	 SCS Same-Spin Energy      =      -0.2222556065802125 [Eh]
	 SCS Opposite-Spin Energy  =      -2.4580207304357247 [Eh]
	 SCS Correlation Energy    =      -2.6802763370159370 [Eh]
	 SCS Total Energy          =    -686.2703877421371317 [Eh]
	-----------------------------------------------------------

  Dipole Moment: [D]
     X:     0.2017      Y:     1.6117      Z:     1.2590     Total:     2.0551

*** Psi4 exiting successfully. Buy a developer a beer!
