                               Psi4 1.3.2 release

  ==> Input File <==

--------------------------------------------------------------------------
#psi4
#
memory 32 gb

molecule  {
0 1
  O       -0.7003369    -1.0283552    -0.2136133
  O       -0.7529000     2.5454980     0.2011280
  O        1.9863450     1.9788980    -0.3426730
  O        2.9116540    -0.6744470     0.1695670
  O        0.9157630    -2.7262860    -0.0672430
  O       -3.4138550    -0.8877920     0.1899090
  C       -0.3205170     1.2520290    -0.2382820
  C        1.1174580     1.0033160     0.2012620
  C       -1.2273170     0.1250620     0.2312770
  C        1.5822600    -0.3816350    -0.2226430
  C        0.5842790    -1.4279170     0.2862350
  C       -2.6461720     0.2016390    -0.2964840
  H       -0.3421210     1.3021240    -1.3326030
  H        1.1389810     1.0438400     1.3116400
  H       -1.2614020     0.1027960     1.3365120
  H        1.5823060    -0.4261990    -1.3195550
  H        0.5265370    -1.4152780     1.3862880
  H       -2.6088310     0.2173240    -1.3960300
  H       -3.1281770     1.1200080     0.0454480
  H       -0.8264260     2.5110960     1.1737150
  H        1.5069660     2.8252470    -0.2509780
  H        3.0031740    -0.4532420     1.1134330
  H        1.2543330    -2.7122130    -0.9803670
  H       -2.8912910    -1.6827110    -0.0238270
units angstrom
no_reorient  #important for SAPT in psi4, default
symmetry c1  #important for SAPT in psi4, default
}

set PROPERTIES_ORIGIN ["COM"]
properties('MP2/aug-cc-pvtz', properties = ['dipole'])
--------------------------------------------------------------------------

    Molecular point group: c1
  Charge       = 0
  Multiplicity = 1
  Basis Set: AUG-CC-PVTZ
    Blend: AUG-CC-PVTZ
  Basis Set: (AUG-CC-PVTZ AUX)
    Blend: AUG-CC-PVTZ-JKFIT

    Orbital Energies [Eh]
    ---------------------

    Doubly Occupied:

       1A    -20.593451     2A    -20.591628     3A    -20.584851
       4A    -20.578774     5A    -20.576345     6A    -20.562660
       7A    -11.362196     8A    -11.308476     9A    -11.305201
      10A    -11.304581    11A    -11.300602    12A    -11.284676
      13A     -1.456738    14A     -1.402263    15A     -1.393878
      16A     -1.378058    17A     -1.364882    18A     -1.358918
      19A     -1.075735    20A     -1.057436    21A     -0.945048
      22A     -0.894763    23A     -0.856054    24A     -0.842522
      25A     -0.760369    26A     -0.733881    27A     -0.722055
      28A     -0.712201    29A     -0.698644    30A     -0.676348
      31A     -0.665764    32A     -0.655969    33A     -0.618476
      34A     -0.616486    35A     -0.597048    36A     -0.589766
      37A     -0.572790    38A     -0.562910    39A     -0.554425
      40A     -0.543187    41A     -0.530841    42A     -0.522090
      43A     -0.501670    44A     -0.484841    45A     -0.470858
      46A     -0.459341    47A     -0.444917    48A     -0.424599

  @DF-RHF Final Energy:  -683.60050887934972

   => Energetics <=

    Nuclear Repulsion Energy =            827.2054281924177985
    One-Electron Energy =               -2582.6134509185953902
    Two-Electron Energy =                1071.8075138468277601
    Total Energy =                       -683.6005088793497180
  Basis Set: (AUG-CC-PVTZ AUX)
    Blend: AUG-CC-PVTZ-RI
    Molecular point group: c1

    Geometry (in Angstrom), charge = 0, multiplicity = 1:

       Center              X                  Y                   Z               Mass
    ------------   -----------------  -----------------  -----------------  -----------------
         O           -0.712331780318    -1.023057285468    -0.211402381356    15.994914619570
         O           -0.764894880318     2.550795914532     0.203338918644    15.994914619570
         O            1.974350119682     1.984195914532    -0.340462081356    15.994914619570
         O            2.899659119682    -0.669149085468     0.171777918644    15.994914619570
         O            0.903768119682    -2.720988085468    -0.065032081356    15.994914619570
         O           -3.425849880318    -0.882494085468     0.192119918644    15.994914619570
         C           -0.332511880318     1.257326914532    -0.236071081356    12.000000000000
         C            1.105463119682     1.008613914532     0.203472918644    12.000000000000
         C           -1.239311880318     0.130359914532     0.233487918644    12.000000000000
         C            1.570265119682    -0.376337085468    -0.220432081356    12.000000000000
         C            0.572284119682    -1.422619085468     0.288445918644    12.000000000000
         C           -2.658166880318     0.206936914532    -0.294273081356    12.000000000000
         H           -0.354115880318     1.307421914532    -1.330392081356     1.007825032230
         H            1.126986119682     1.049137914532     1.313850918644     1.007825032230
         H           -1.273396880318     0.108093914532     1.338722918644     1.007825032230
         H            1.570311119682    -0.420901085468    -1.317344081356     1.007825032230
         H            0.514542119682    -1.409980085468     1.388498918644     1.007825032230
         H           -2.620825880318     0.222621914532    -1.393819081356     1.007825032230
         H           -3.140171880318     1.125305914532     0.047658918644     1.007825032230
         H           -0.838420880318     2.516393914532     1.175925918644     1.007825032230
         H            1.494971119682     2.830544914532    -0.248767081356     1.007825032230
         H            2.991179119682    -0.447944085468     1.115643918644     1.007825032230
         H            1.242338119682    -2.706915085468    -0.978156081356     1.007825032230
         H           -2.903285880318    -1.677413085468    -0.021616081356     1.007825032230

  Basis Set: AUG-CC-PVTZ
    Blend: AUG-CC-PVTZ
  Basis Set: (AUG-CC-PVTZ AUX)
    Blend: AUG-CC-PVTZ-JKFIT
	 Reference Energy          =    -683.6005088793497180 [Eh]
	 Singles Energy            =      -0.0000000000000000 [Eh]
	 Same-Spin Energy          =      -0.6651931110430394 [Eh]
	 Opposite-Spin Energy      =      -2.0426486483802160 [Eh]
	 Correlation Energy        =      -2.7078417594232551 [Eh]
	 Total Energy              =    -686.3083506387729358 [Eh]

	 ================> DF-SCS-MP2 Energies <==================
	-----------------------------------------------------------
	 SCS Same-Spin Scale       =       0.3333333333333333 [-]
	 SCS Opposite-Spin Scale   =       1.2000000000000000 [-]
	 SCS Same-Spin Energy      =      -0.2217310370143464 [Eh]
	 SCS Opposite-Spin Energy  =      -2.4511783780562593 [Eh]
	 SCS Correlation Energy    =      -2.6729094150706056 [Eh]
	 SCS Total Energy          =    -686.2734182944203667 [Eh]
	-----------------------------------------------------------

  Dipole Moment: [D]
     X:     0.2975      Y:     1.2297      Z:     1.2539     Total:     1.7812

*** Psi4 exiting successfully. Buy a developer a beer!
