                               Psi4 1.3.2 release

  ==> Input File <==

--------------------------------------------------------------------------
#psi4
#
memory 32 gb

molecule  {
0 1
  O       -0.7087550    -1.1193400    -0.2546710
  O       -0.7529000     2.5454980     0.2011280
  O        1.9863450     1.9788980    -0.3426730
  O        2.9116540    -0.6744470     0.1695670
  O        0.9118244    -2.6816292    -0.2052019
  O       -3.4138550    -0.8877920     0.1899090
  C       -0.3205170     1.2520290    -0.2382820
  C        1.1174580     1.0033160     0.2012620
  C       -1.2273170     0.1250620     0.2312770
  C        1.5822600    -0.3816350    -0.2226430
  C        0.5842790    -1.4279170     0.2862350
  C       -2.6461720     0.2016390    -0.2964840
  H       -0.3421210     1.3021240    -1.3326030
  H        1.1389810     1.0438400     1.3116400
  H       -1.2614020     0.1027960     1.3365120
  H        1.5823060    -0.4261990    -1.3195550
  H        0.5265370    -1.4152780     1.3862880
  H       -2.6088310     0.2173240    -1.3960300
  H       -3.1281770     1.1200080     0.0454480
  H       -0.8264260     2.5110960     1.1737150
  H        1.5069660     2.8252470    -0.2509780
  H        3.0031740    -0.4532420     1.1134330
  H        1.2543330    -2.7122130    -0.9803670
  H       -2.8912910    -1.6827110    -0.0238270
units angstrom
no_reorient  #important for SAPT in psi4, default
symmetry c1  #important for SAPT in psi4, default
}

set PROPERTIES_ORIGIN ["COM"]
properties('MP2/aug-cc-pvtz', properties = ['dipole'])
--------------------------------------------------------------------------

    Molecular point group: c1
  Charge       = 0
  Multiplicity = 1
  Basis Set: AUG-CC-PVTZ
    Blend: AUG-CC-PVTZ
  Basis Set: (AUG-CC-PVTZ AUX)
    Blend: AUG-CC-PVTZ-JKFIT

    Orbital Energies [Eh]
    ---------------------

    Doubly Occupied:

       1A    -20.598033     2A    -20.588017     3A    -20.579465
       4A    -20.577011     5A    -20.565313     6A    -20.562600
       7A    -11.361572     8A    -11.310092     9A    -11.308857
      10A    -11.307381    11A    -11.303762    12A    -11.287067
      13A     -1.450834    14A     -1.406468    15A     -1.388917
      16A     -1.380254    17A     -1.366181    18A     -1.356670
      19A     -1.080619    20A     -1.054882    21A     -0.949801
      22A     -0.903062    23A     -0.856043    24A     -0.842051
      25A     -0.765174    26A     -0.731476    27A     -0.722302
      28A     -0.719153    29A     -0.691861    30A     -0.675366
      31A     -0.667184    32A     -0.657787    33A     -0.620535
      34A     -0.617213    35A     -0.596689    36A     -0.587927
      37A     -0.567562    38A     -0.561595    39A     -0.554951
      40A     -0.542137    41A     -0.529527    42A     -0.515876
      43A     -0.503153    44A     -0.488658    45A     -0.474054
      46A     -0.461959    47A     -0.445380    48A     -0.430399

  @DF-RHF Final Energy:  -683.58995320743361

   => Energetics <=

    Nuclear Repulsion Energy =            826.2040296680129359
    One-Electron Energy =               -2580.5622311648276082
    Two-Electron Energy =                1070.7682482893810629
    Total Energy =                       -683.5899532074336094
  Basis Set: (AUG-CC-PVTZ AUX)
    Blend: AUG-CC-PVTZ-RI
    Molecular point group: c1

    Geometry (in Angstrom), charge = 0, multiplicity = 1:

       Center              X                  Y                   Z               Mass
    ------------   -----------------  -----------------  -----------------  -----------------
         O           -0.719652242627    -1.109926799111    -0.236558152248    15.994914619570
         O           -0.763797242627     2.554911200889     0.219240847752    15.994914619570
         O            1.975447757373     1.988311200889    -0.324560152248    15.994914619570
         O            2.900756757373    -0.665033799111     0.187679847752    15.994914619570
         O            0.900927157373    -2.672215999111    -0.187089052248    15.994914619570
         O           -3.424752242627    -0.878378799111     0.208021847752    15.994914619570
         C           -0.331414242627     1.261442200889    -0.220169152248    12.000000000000
         C            1.106560757373     1.012729200889     0.219374847752    12.000000000000
         C           -1.238214242627     0.134475200889     0.249389847752    12.000000000000
         C            1.571362757373    -0.372221799111    -0.204530152248    12.000000000000
         C            0.573381757373    -1.418503799111     0.304347847752    12.000000000000
         C           -2.657069242627     0.211052200889    -0.278371152248    12.000000000000
         H           -0.353018242627     1.311537200889    -1.314490152248     1.007825032230
         H            1.128083757373     1.053253200889     1.329752847752     1.007825032230
         H           -1.272299242627     0.112209200889     1.354624847752     1.007825032230
         H            1.571408757373    -0.416785799111    -1.301442152248     1.007825032230
         H            0.515639757373    -1.405864799111     1.404400847752     1.007825032230
         H           -2.619728242627     0.226737200889    -1.377917152248     1.007825032230
         H           -3.139074242627     1.129421200889     0.063560847752     1.007825032230
         H           -0.837323242627     2.520509200889     1.191827847752     1.007825032230
         H            1.496068757373     2.834660200889    -0.232865152248     1.007825032230
         H            2.992276757373    -0.443828799111     1.131545847752     1.007825032230
         H            1.243435757373    -2.702799799111    -0.962254152248     1.007825032230
         H           -2.902188242627    -1.673297799111    -0.005714152248     1.007825032230

  Basis Set: AUG-CC-PVTZ
    Blend: AUG-CC-PVTZ
  Basis Set: (AUG-CC-PVTZ AUX)
    Blend: AUG-CC-PVTZ-JKFIT
	 Reference Energy          =    -683.5899532074336094 [Eh]
	 Singles Energy            =      -0.0000000000000000 [Eh]
	 Same-Spin Energy          =      -0.6639105538337018 [Eh]
	 Opposite-Spin Energy      =      -2.0410175565949427 [Eh]
	 Correlation Energy        =      -2.7049281104286447 [Eh]
	 Total Energy              =    -686.2948813178622913 [Eh]

	 ================> DF-SCS-MP2 Energies <==================
	-----------------------------------------------------------
	 SCS Same-Spin Scale       =       0.3333333333333333 [-]
	 SCS Opposite-Spin Scale   =       1.2000000000000000 [-]
	 SCS Same-Spin Energy      =      -0.2213035179445673 [Eh]
	 SCS Opposite-Spin Energy  =      -2.4492210679139310 [Eh]
	 SCS Correlation Energy    =      -2.6705245858584981 [Eh]
	 SCS Total Energy          =    -686.2604777932921252 [Eh]
	-----------------------------------------------------------

  Dipole Moment: [D]
     X:     0.2429      Y:     1.5842      Z:     1.5748     Total:     2.2469

*** Psi4 exiting successfully. Buy a developer a beer!
