                               Psi4 1.3.2 release

  ==> Input File <==

--------------------------------------------------------------------------
#psi4
#
memory 32 gb

molecule  {
0 1
  O       -0.7087550    -1.1193400    -0.2546710
  O       -0.7529000     2.5454980     0.2011280
  O        1.9863450     1.9788980    -0.3426730
  O        2.9116540    -0.6744470     0.1695670
  O        0.9157630    -2.7262860    -0.0672430
  O       -3.4138550    -0.8877920     0.1899090
  C       -0.3205170     1.2520290    -0.2382820
  C        1.1174580     1.0033160     0.2012620
  C       -1.1911307     0.0382252     0.1973666
  C        1.5822600    -0.3816350    -0.2226430
  C        0.5842790    -1.4279170     0.2862350
  C       -2.6461720     0.2016390    -0.2964840
  H       -0.3421210     1.3021240    -1.3326030
  H        1.1389810     1.0438400     1.3116400
  H       -1.2614020     0.1027960     1.3365120
  H        1.5823060    -0.4261990    -1.3195550
  H        0.5265370    -1.4152780     1.3862880
  H       -2.6088310     0.2173240    -1.3960300
  H       -3.1281770     1.1200080     0.0454480
  H       -0.8264260     2.5110960     1.1737150
  H        1.5069660     2.8252470    -0.2509780
  H        3.0031740    -0.4532420     1.1134330
  H        1.2543330    -2.7122130    -0.9803670
  H       -2.8912910    -1.6827110    -0.0238270
units angstrom
no_reorient  #important for SAPT in psi4, default
symmetry c1  #important for SAPT in psi4, default
}

set PROPERTIES_ORIGIN ["COM"]
properties('MP2/aug-cc-pvtz', properties = ['dipole'])
--------------------------------------------------------------------------

    Molecular point group: c1
  Charge       = 0
  Multiplicity = 1
  Basis Set: AUG-CC-PVTZ
    Blend: AUG-CC-PVTZ
  Basis Set: (AUG-CC-PVTZ AUX)
    Blend: AUG-CC-PVTZ-JKFIT

    Orbital Energies [Eh]
    ---------------------

    Doubly Occupied:

       1A    -20.598252     2A    -20.597992     3A    -20.588319
       4A    -20.581373     5A    -20.575363     6A    -20.560510
       7A    -11.363328     8A    -11.308416     9A    -11.308215
      10A    -11.307574    11A    -11.306646    12A    -11.285467
      13A     -1.465858    14A     -1.403316    15A     -1.394446
      16A     -1.378642    17A     -1.365445    18A     -1.358198
      19A     -1.078217    20A     -1.048190    21A     -0.941874
      22A     -0.896581    23A     -0.855370    24A     -0.841316
      25A     -0.760257    26A     -0.736102    27A     -0.721132
      28A     -0.712909    29A     -0.698506    30A     -0.671791
      31A     -0.665590    32A     -0.657367    33A     -0.622916
      34A     -0.615146    35A     -0.597656    36A     -0.587836
      37A     -0.575179    38A     -0.563639    39A     -0.556291
      40A     -0.543600    41A     -0.537194    42A     -0.521531
      43A     -0.500925    44A     -0.486101    45A     -0.471017
      46A     -0.458255    47A     -0.440997    48A     -0.421946

  @DF-RHF Final Energy:  -683.59629283040772

   => Energetics <=

    Nuclear Repulsion Energy =            825.7305011914764918
    One-Electron Energy =               -2579.5880041163422902
    Two-Electron Energy =                1070.2612100944581925
    Total Energy =                       -683.5962928304077195
  Basis Set: (AUG-CC-PVTZ AUX)
    Blend: AUG-CC-PVTZ-RI
    Molecular point group: c1

    Geometry (in Angstrom), charge = 0, multiplicity = 1:

       Center              X                  Y                   Z               Mass
    ------------   -----------------  -----------------  -----------------  -----------------
         O           -0.722413676675    -1.100172882328    -0.246553054851    15.994914619570
         O           -0.766558676675     2.564665117672     0.209245945149    15.994914619570
         O            1.972686323325     1.998065117672    -0.334555054851    15.994914619570
         O            2.897995323325    -0.655279882328     0.177684945149    15.994914619570
         O            0.902104323325    -2.707118882328    -0.059125054851    15.994914619570
         O           -3.427513676675    -0.868624882328     0.198026945149    15.994914619570
         C           -0.334175676675     1.271196117672    -0.230164054851    12.000000000000
         C            1.103799323325     1.022483117672     0.209379945149    12.000000000000
         C           -1.204789376675     0.057392317672     0.205484545149    12.000000000000
         C            1.568601323325    -0.362467882328    -0.214525054851    12.000000000000
         C            0.570620323325    -1.408749882328     0.294352945149    12.000000000000
         C           -2.659830676675     0.220806117672    -0.288366054851    12.000000000000
         H           -0.355779676675     1.321291117672    -1.324485054851     1.007825032230
         H            1.125322323325     1.063007117672     1.319757945149     1.007825032230
         H           -1.275060676675     0.121963117672     1.344629945149     1.007825032230
         H            1.568647323325    -0.407031882328    -1.311437054851     1.007825032230
         H            0.512878323325    -1.396110882328     1.394405945149     1.007825032230
         H           -2.622489676675     0.236491117672    -1.387912054851     1.007825032230
         H           -3.141835676675     1.139175117672     0.053565945149     1.007825032230
         H           -0.840084676675     2.530263117672     1.181832945149     1.007825032230
         H            1.493307323325     2.844414117672    -0.242860054851     1.007825032230
         H            2.989515323325    -0.434074882328     1.121550945149     1.007825032230
         H            1.240674323325    -2.693045882328    -0.972249054851     1.007825032230
         H           -2.904949676675    -1.663543882328    -0.015709054851     1.007825032230

  Basis Set: AUG-CC-PVTZ
    Blend: AUG-CC-PVTZ
  Basis Set: (AUG-CC-PVTZ AUX)
    Blend: AUG-CC-PVTZ-JKFIT
	 Reference Energy          =    -683.5962928304077195 [Eh]
	 Singles Energy            =      -0.0000000000000000 [Eh]
	 Same-Spin Energy          =      -0.6655362236296383 [Eh]
	 Opposite-Spin Energy      =      -2.0439276414342400 [Eh]
	 Correlation Energy        =      -2.7094638650638783 [Eh]
	 Total Energy              =    -686.3057566954715867 [Eh]

	 ================> DF-SCS-MP2 Energies <==================
	-----------------------------------------------------------
	 SCS Same-Spin Scale       =       0.3333333333333333 [-]
	 SCS Opposite-Spin Scale   =       1.2000000000000000 [-]
	 SCS Same-Spin Energy      =      -0.2218454078765461 [Eh]
	 SCS Opposite-Spin Energy  =      -2.4527131697210880 [Eh]
	 SCS Correlation Energy    =      -2.6745585775976339 [Eh]
	 SCS Total Energy          =    -686.2708514080053419 [Eh]
	-----------------------------------------------------------

  Dipole Moment: [D]
     X:     0.3833      Y:     1.3196      Z:     1.2717     Total:     1.8723

*** Psi4 exiting successfully. Buy a developer a beer!
