                               Psi4 1.3.2 release

  ==> Input File <==

--------------------------------------------------------------------------
#psi4
#
memory 32 gb

molecule  {
0 1
  O       -0.7087550    -1.1193400    -0.2546710
  O       -0.7529000     2.5454980     0.2011280
  O        1.9863450     1.9788980    -0.3426730
  O        2.9116540    -0.6744470     0.1695670
  O        0.9157630    -2.7262860    -0.0672430
  O       -3.4138550    -0.8877920     0.1899090
  C       -0.3205170     1.2520290    -0.2382820
  C        1.1342205     0.9858905     0.1962241
  C       -1.2273170     0.1250620     0.2312770
  C        1.5822600    -0.3816350    -0.2226430
  C        0.5842790    -1.4279170     0.2862350
  C       -2.6461720     0.2016390    -0.2964840
  H       -0.3421210     1.3021240    -1.3326030
  H        1.1389810     1.0438400     1.3116400
  H       -1.2614020     0.1027960     1.3365120
  H        1.5823060    -0.4261990    -1.3195550
  H        0.5265370    -1.4152780     1.3862880
  H       -2.6088310     0.2173240    -1.3960300
  H       -3.1281770     1.1200080     0.0454480
  H       -0.8264260     2.5110960     1.1737150
  H        1.5069660     2.8252470    -0.2509780
  H        3.0031740    -0.4532420     1.1134330
  H        1.2543330    -2.7122130    -0.9803670
  H       -2.8912910    -1.6827110    -0.0238270
units angstrom
no_reorient  #important for SAPT in psi4, default
symmetry c1  #important for SAPT in psi4, default
}

set PROPERTIES_ORIGIN ["COM"]
properties('MP2/aug-cc-pvtz', properties = ['dipole'])
--------------------------------------------------------------------------

    Molecular point group: c1
  Charge       = 0
  Multiplicity = 1
  Basis Set: AUG-CC-PVTZ
    Blend: AUG-CC-PVTZ
  Basis Set: (AUG-CC-PVTZ AUX)
    Blend: AUG-CC-PVTZ-JKFIT

    Orbital Energies [Eh]
    ---------------------

    Doubly Occupied:

       1A    -20.598938     2A    -20.588662     3A    -20.584288
       4A    -20.579089     5A    -20.576842     6A    -20.562544
       7A    -11.357597     8A    -11.311111     9A    -11.310250
      10A    -11.307674    11A    -11.304615    12A    -11.287067
      13A     -1.440497    14A     -1.404568    15A     -1.388213
      16A     -1.372806    17A     -1.365610    18A     -1.353137
      19A     -1.081009    20A     -1.052531    21A     -0.944624
      22A     -0.893288    23A     -0.853768    24A     -0.842074
      25A     -0.754650    26A     -0.730365    27A     -0.720027
      28A     -0.710101    29A     -0.692754    30A     -0.674688
      31A     -0.661759    32A     -0.656672    33A     -0.619818
      34A     -0.615340    35A     -0.597934    36A     -0.587165
      37A     -0.569449    38A     -0.561401    39A     -0.556205
      40A     -0.543823    41A     -0.527389    42A     -0.517160
      43A     -0.503379    44A     -0.487167    45A     -0.475518
      46A     -0.461065    47A     -0.446251    48A     -0.430428

  @DF-RHF Final Energy:  -683.60329394455403

   => Energetics <=

    Nuclear Repulsion Energy =            824.7213677509456602
    One-Electron Energy =               -2577.7267100638632655
    Two-Electron Energy =                1069.4020483683634666
    Total Energy =                       -683.6032939445540251
  Basis Set: (AUG-CC-PVTZ AUX)
    Blend: AUG-CC-PVTZ-RI
    Molecular point group: c1

    Geometry (in Angstrom), charge = 0, multiplicity = 1:

       Center              X                  Y                   Z               Mass
    ------------   -----------------  -----------------  -----------------  -----------------
         O           -0.721119212529    -1.104798673327    -0.248477210581    15.994914619570
         O           -0.765264212529     2.560039326673     0.207321789419    15.994914619570
         O            1.973980787471     1.993439326673    -0.336479210581    15.994914619570
         O            2.899289787471    -0.659905673327     0.175760789419    15.994914619570
         O            0.903398787471    -2.711744673327    -0.061049210581    15.994914619570
         O           -3.426219212529    -0.873250673327     0.196102789419    15.994914619570
         C           -0.332881212529     1.266570326673    -0.232088210581    12.000000000000
         C            1.121856287471     1.000431826673     0.202417889419    12.000000000000
         C           -1.239681212529     0.139603326673     0.237470789419    12.000000000000
         C            1.569895787471    -0.367093673327    -0.216449210581    12.000000000000
         C            0.571914787471    -1.413375673327     0.292428789419    12.000000000000
         C           -2.658536212529     0.216180326673    -0.290290210581    12.000000000000
         H           -0.354485212529     1.316665326673    -1.326409210581     1.007825032230
         H            1.126616787471     1.058381326673     1.317833789419     1.007825032230
         H           -1.273766212529     0.117337326673     1.342705789419     1.007825032230
         H            1.569941787471    -0.411657673327    -1.313361210581     1.007825032230
         H            0.514172787471    -1.400736673327     1.392481789419     1.007825032230
         H           -2.621195212529     0.231865326673    -1.389836210581     1.007825032230
         H           -3.140541212529     1.134549326673     0.051641789419     1.007825032230
         H           -0.838790212529     2.525637326673     1.179908789419     1.007825032230
         H            1.494601787471     2.839788326673    -0.244784210581     1.007825032230
         H            2.990809787471    -0.438700673327     1.119626789419     1.007825032230
         H            1.241968787471    -2.697671673327    -0.974173210581     1.007825032230
         H           -2.903655212529    -1.668169673327    -0.017633210581     1.007825032230

  Basis Set: AUG-CC-PVTZ
    Blend: AUG-CC-PVTZ
  Basis Set: (AUG-CC-PVTZ AUX)
    Blend: AUG-CC-PVTZ-JKFIT
	 Reference Energy          =    -683.6032939445540251 [Eh]
	 Singles Energy            =      -0.0000000000000000 [Eh]
	 Same-Spin Energy          =      -0.6654961416260570 [Eh]
	 Opposite-Spin Energy      =      -2.0448623053478627 [Eh]
	 Correlation Energy        =      -2.7103584469739195 [Eh]
	 Total Energy              =    -686.3136523915279668 [Eh]

	 ================> DF-SCS-MP2 Energies <==================
	-----------------------------------------------------------
	 SCS Same-Spin Scale       =       0.3333333333333333 [-]
	 SCS Opposite-Spin Scale   =       1.2000000000000000 [-]
	 SCS Same-Spin Energy      =      -0.2218320472086857 [Eh]
	 SCS Opposite-Spin Energy  =      -2.4538347664174354 [Eh]
	 SCS Correlation Energy    =      -2.6756668136261208 [Eh]
	 SCS Total Energy          =    -686.2789607581801192 [Eh]
	-----------------------------------------------------------

  Dipole Moment: [D]
     X:     0.2153      Y:     1.5898      Z:     1.3639     Total:     2.1057

*** Psi4 exiting successfully. Buy a developer a beer!
