                               Psi4 1.3.2 release

  ==> Input File <==

--------------------------------------------------------------------------
#psi4
#
memory 32 gb

molecule  {
0 1
  O       -0.7087550    -1.1193400    -0.2546710
  O       -0.7529000     2.5454980     0.2011280
  O        1.9863450     1.9788980    -0.3426730
  O        2.9116540    -0.6744470     0.1695670
  O        0.9157630    -2.7262860    -0.0672430
  O       -3.4138550    -0.8877920     0.1899090
  C       -0.3205170     1.2520290    -0.2382820
  C        1.1174580     1.0033160     0.2012620
  C       -1.2273170     0.1250620     0.2312770
  C        1.5822600    -0.3816350    -0.2226430
  C        0.5705598    -1.4441508     0.3296883
  C       -2.6461720     0.2016390    -0.2964840
  H       -0.3421210     1.3021240    -1.3326030
  H        1.1389810     1.0438400     1.3116400
  H       -1.2614020     0.1027960     1.3365120
  H        1.5823060    -0.4261990    -1.3195550
  H        0.5265370    -1.4152780     1.3862880
  H       -2.6088310     0.2173240    -1.3960300
  H       -3.1281770     1.1200080     0.0454480
  H       -0.8264260     2.5110960     1.1737150
  H        1.5069660     2.8252470    -0.2509780
  H        3.0031740    -0.4532420     1.1134330
  H        1.2543330    -2.7122130    -0.9803670
  H       -2.8912910    -1.6827110    -0.0238270
units angstrom
no_reorient  #important for SAPT in psi4, default
symmetry c1  #important for SAPT in psi4, default
}

set PROPERTIES_ORIGIN ["COM"]
properties('MP2/aug-cc-pvtz', properties = ['dipole'])
--------------------------------------------------------------------------

    Molecular point group: c1
  Charge       = 0
  Multiplicity = 1
  Basis Set: AUG-CC-PVTZ
    Blend: AUG-CC-PVTZ
  Basis Set: (AUG-CC-PVTZ AUX)
    Blend: AUG-CC-PVTZ-JKFIT

    Orbital Energies [Eh]
    ---------------------

    Doubly Occupied:

       1A    -20.597786     2A    -20.587745     3A    -20.582330
       4A    -20.577966     5A    -20.576725     6A    -20.562437
       7A    -11.356147     8A    -11.309743     9A    -11.308521
      10A    -11.307429    11A    -11.305202    12A    -11.286922
      13A     -1.437543    14A     -1.404355    15A     -1.386493
      16A     -1.371706    17A     -1.364964    18A     -1.351747
      19A     -1.078958    20A     -1.047471    21A     -0.943988
      22A     -0.895378    23A     -0.852511    24A     -0.842929
      25A     -0.753512    26A     -0.727605    27A     -0.719709
      28A     -0.710904    29A     -0.693243    30A     -0.673241
      31A     -0.661550    32A     -0.655573    33A     -0.619387
      34A     -0.615493    35A     -0.597182    36A     -0.588758
      37A     -0.567976    38A     -0.561659    39A     -0.555224
      40A     -0.543108    41A     -0.528997    42A     -0.517056
      43A     -0.504509    44A     -0.485960    45A     -0.474001
      46A     -0.461092    47A     -0.444845    48A     -0.426688

  @DF-RHF Final Energy:  -683.60149136700682

   => Energetics <=

    Nuclear Repulsion Energy =            824.0991108541378480
    One-Electron Energy =               -2576.5526732627695310
    Two-Electron Energy =                1068.8520710416246402
    Total Energy =                       -683.6014913670069291
  Basis Set: (AUG-CC-PVTZ AUX)
    Blend: AUG-CC-PVTZ-RI
    Molecular point group: c1

    Geometry (in Angstrom), charge = 0, multiplicity = 1:

       Center              X                  Y                   Z               Mass
    ------------   -----------------  -----------------  -----------------  -----------------
         O           -0.719087814564    -1.104878092026    -0.251708819217    15.994914619570
         O           -0.763232814564     2.559959907974     0.204090180783    15.994914619570
         O            1.976012185436     1.993359907974    -0.339710819217    15.994914619570
         O            2.901321185436    -0.659985092026     0.172529180783    15.994914619570
         O            0.905430185436    -2.711824092026    -0.064280819217    15.994914619570
         O           -3.424187814564    -0.873330092026     0.192871180783    15.994914619570
         C           -0.330849814564     1.266490907974    -0.235319819217    12.000000000000
         C            1.107125185436     1.017777907974     0.204224180783    12.000000000000
         C           -1.237649814564     0.139523907974     0.234239180783    12.000000000000
         C            1.571927185436    -0.367173092026    -0.219680819217    12.000000000000
         C            0.560226985436    -1.429688892026     0.332650480783    12.000000000000
         C           -2.656504814564     0.216100907974    -0.293521819217    12.000000000000
         H           -0.352453814564     1.316585907974    -1.329640819217     1.007825032230
         H            1.128648185436     1.058301907974     1.314602180783     1.007825032230
         H           -1.271734814564     0.117257907974     1.339474180783     1.007825032230
         H            1.571973185436    -0.411737092026    -1.316592819217     1.007825032230
         H            0.516204185436    -1.400816092026     1.389250180783     1.007825032230
         H           -2.619163814564     0.231785907974    -1.393067819217     1.007825032230
         H           -3.138509814564     1.134469907974     0.048410180783     1.007825032230
         H           -0.836758814564     2.525557907974     1.176677180783     1.007825032230
         H            1.496633185436     2.839708907974    -0.248015819217     1.007825032230
         H            2.992841185436    -0.438780092026     1.116395180783     1.007825032230
         H            1.244000185436    -2.697751092026    -0.977404819217     1.007825032230
         H           -2.901623814564    -1.668249092026    -0.020864819217     1.007825032230

  Basis Set: AUG-CC-PVTZ
    Blend: AUG-CC-PVTZ
  Basis Set: (AUG-CC-PVTZ AUX)
    Blend: AUG-CC-PVTZ-JKFIT
	 Reference Energy          =    -683.6014913670068154 [Eh]
	 Singles Energy            =      -0.0000000000000000 [Eh]
	 Same-Spin Energy          =      -0.6652205818480794 [Eh]
	 Opposite-Spin Energy      =      -2.0447757948692855 [Eh]
	 Correlation Energy        =      -2.7099963767173652 [Eh]
	 Total Energy              =    -686.3114877437242285 [Eh]

	 ================> DF-SCS-MP2 Energies <==================
	-----------------------------------------------------------
	 SCS Same-Spin Scale       =       0.3333333333333333 [-]
	 SCS Opposite-Spin Scale   =       1.2000000000000000 [-]
	 SCS Same-Spin Energy      =      -0.2217401939493598 [Eh]
	 SCS Opposite-Spin Energy  =      -2.4537309538431424 [Eh]
	 SCS Correlation Energy    =      -2.6754711477925022 [Eh]
	 SCS Total Energy          =    -686.2769625147992656 [Eh]
	-----------------------------------------------------------

  Dipole Moment: [D]
     X:     0.2105      Y:     1.5460      Z:     1.4582     Total:     2.1356

*** Psi4 exiting successfully. Buy a developer a beer!
