                               Psi4 1.3.2 release

  ==> Input File <==

--------------------------------------------------------------------------
#psi4
#
memory 32 gb

molecule  {
0 1
  O       -0.7087550    -1.1193400    -0.2546710
  O       -0.7529000     2.5454980     0.2011280
  O        1.9863450     1.9788980    -0.3426730
  O        2.9116540    -0.6744470     0.1695670
  O        0.9157630    -2.7262860    -0.0672430
  O       -3.4138550    -0.8877920     0.1899090
  C       -0.3407568     1.2622543    -0.2520771
  C        1.1174580     1.0033160     0.2012620
  C       -1.2273170     0.1250620     0.2312770
  C        1.5822600    -0.3816350    -0.2226430
  C        0.5842790    -1.4279170     0.2862350
  C       -2.6461720     0.2016390    -0.2964840
  H       -0.3421210     1.3021240    -1.3326030
  H        1.1389810     1.0438400     1.3116400
  H       -1.2614020     0.1027960     1.3365120
  H        1.5823060    -0.4261990    -1.3195550
  H        0.5265370    -1.4152780     1.3862880
  H       -2.6088310     0.2173240    -1.3960300
  H       -3.1281770     1.1200080     0.0454480
  H       -0.8264260     2.5110960     1.1737150
  H        1.5069660     2.8252470    -0.2509780
  H        3.0031740    -0.4532420     1.1134330
  H        1.2543330    -2.7122130    -0.9803670
  H       -2.8912910    -1.6827110    -0.0238270
units angstrom
no_reorient  #important for SAPT in psi4, default
symmetry c1  #important for SAPT in psi4, default
}

set PROPERTIES_ORIGIN ["COM"]
properties('MP2/aug-cc-pvtz', properties = ['dipole'])
--------------------------------------------------------------------------

    Molecular point group: c1
  Charge       = 0
  Multiplicity = 1
  Basis Set: AUG-CC-PVTZ
    Blend: AUG-CC-PVTZ
  Basis Set: (AUG-CC-PVTZ AUX)
    Blend: AUG-CC-PVTZ-JKFIT

    Orbital Energies [Eh]
    ---------------------

    Doubly Occupied:

       1A    -20.599064     2A    -20.588658     3A    -20.583525
       4A    -20.578751     5A    -20.576855     6A    -20.562212
       7A    -11.356563     8A    -11.310213     9A    -11.309529
      10A    -11.307548    11A    -11.304375    12A    -11.286797
      13A     -1.439942    14A     -1.406994    15A     -1.387829
      16A     -1.372868    17A     -1.365587    18A     -1.352750
      19A     -1.077645    20A     -1.050907    21A     -0.944385
      22A     -0.891829    23A     -0.852973    24A     -0.843663
      25A     -0.753718    26A     -0.729487    27A     -0.719880
      28A     -0.711556    29A     -0.693155    30A     -0.673718
      31A     -0.659599    32A     -0.654462    33A     -0.622514
      34A     -0.616624    35A     -0.598540    36A     -0.587164
      37A     -0.569470    38A     -0.561816    39A     -0.556341
      40A     -0.545432    41A     -0.527526    42A     -0.516840
      43A     -0.502844    44A     -0.487047    45A     -0.474264
      46A     -0.460527    47A     -0.444066    48A     -0.429119

  @DF-RHF Final Energy:  -683.60379257234933

   => Energetics <=

    Nuclear Repulsion Energy =            824.4015114552295245
    One-Electron Energy =               -2577.1162668079064133
    Two-Electron Energy =                1069.1109627803275544
    Total Energy =                       -683.6037925723494482
  Basis Set: (AUG-CC-PVTZ AUX)
    Blend: AUG-CC-PVTZ-RI
    Molecular point group: c1

    Geometry (in Angstrom), charge = 0, multiplicity = 1:

       Center              X                  Y                   Z               Mass
    ------------   -----------------  -----------------  -----------------  -----------------
         O           -0.718653260928    -1.106641411063    -0.247893602769    15.994914619570
         O           -0.762798260928     2.558196588937     0.207905397231    15.994914619570
         O            1.976446739072     1.991596588937    -0.335895602769    15.994914619570
         O            2.901755739072    -0.661748411063     0.176344397231    15.994914619570
         O            0.905864739072    -2.713587411063    -0.060465602769    15.994914619570
         O           -3.423753260928    -0.875093411063     0.196686397231    15.994914619570
         C           -0.350655060928     1.274952888937    -0.245299702769    12.000000000000
         C            1.107559739072     1.016014588937     0.208039397231    12.000000000000
         C           -1.237215260928     0.137760588937     0.238054397231    12.000000000000
         C            1.572361739072    -0.368936411063    -0.215865602769    12.000000000000
         C            0.574380739072    -1.415218411063     0.293012397231    12.000000000000
         C           -2.656070260928     0.214337588937    -0.289706602769    12.000000000000
         H           -0.352019260928     1.314822588937    -1.325825602769     1.007825032230
         H            1.129082739072     1.056538588937     1.318417397231     1.007825032230
         H           -1.271300260928     0.115494588937     1.343289397231     1.007825032230
         H            1.572407739072    -0.413500411063    -1.312777602769     1.007825032230
         H            0.516638739072    -1.402579411063     1.393065397231     1.007825032230
         H           -2.618729260928     0.230022588937    -1.389252602769     1.007825032230
         H           -3.138075260928     1.132706588937     0.052225397231     1.007825032230
         H           -0.836324260928     2.523794588937     1.180492397231     1.007825032230
         H            1.497067739072     2.837945588937    -0.244200602769     1.007825032230
         H            2.993275739072    -0.440543411063     1.120210397231     1.007825032230
         H            1.244434739072    -2.699514411063    -0.973589602769     1.007825032230
         H           -2.901189260928    -1.670012411063    -0.017049602769     1.007825032230

  Basis Set: AUG-CC-PVTZ
    Blend: AUG-CC-PVTZ
  Basis Set: (AUG-CC-PVTZ AUX)
    Blend: AUG-CC-PVTZ-JKFIT
	 Reference Energy          =    -683.6037925723493345 [Eh]
	 Singles Energy            =      -0.0000000000000000 [Eh]
	 Same-Spin Energy          =      -0.6652870064807331 [Eh]
	 Opposite-Spin Energy      =      -2.0445411060561272 [Eh]
	 Correlation Energy        =      -2.7098281125368602 [Eh]
	 Total Energy              =    -686.3136206848862457 [Eh]

	 ================> DF-SCS-MP2 Energies <==================
	-----------------------------------------------------------
	 SCS Same-Spin Scale       =       0.3333333333333333 [-]
	 SCS Opposite-Spin Scale   =       1.2000000000000000 [-]
	 SCS Same-Spin Energy      =      -0.2217623354935777 [Eh]
	 SCS Opposite-Spin Energy  =      -2.4534493272673523 [Eh]
	 SCS Correlation Energy    =      -2.6752116627609301 [Eh]
	 SCS Total Energy          =    -686.2790042351102784 [Eh]
	-----------------------------------------------------------

  Dipole Moment: [D]
     X:     0.1920      Y:     1.6433      Z:     1.3646     Total:     2.1446

*** Psi4 exiting successfully. Buy a developer a beer!
