                               Psi4 1.3.2 release

  ==> Input File <==

--------------------------------------------------------------------------
#psi4
#
memory 32 gb

molecule  {
0 1
  O       -0.7087550    -1.1193400    -0.2546710
  O       -0.7529000     2.5454980     0.2011280
  O        1.9863450     1.9788980    -0.3426730
  O        2.9116540    -0.6744470     0.1695670
  O        0.9157630    -2.7262860    -0.0672430
  O       -3.4138550    -0.8877920     0.1899090
  C       -0.3205170     1.2520290    -0.2382820
  C        1.1174580     1.0033160     0.2012620
  C       -1.2273170     0.1250620     0.2312770
  C        1.5936970    -0.4052185    -0.1197560
  C        0.5842790    -1.4279170     0.2862350
  C       -2.6461720     0.2016390    -0.2964840
  H       -0.3421210     1.3021240    -1.3326030
  H        1.1389810     1.0438400     1.3116400
  H       -1.2614020     0.1027960     1.3365120
  H        1.5823060    -0.4261990    -1.3195550
  H        0.5265370    -1.4152780     1.3862880
  H       -2.6088310     0.2173240    -1.3960300
  H       -3.1281770     1.1200080     0.0454480
  H       -0.8264260     2.5110960     1.1737150
  H        1.5069660     2.8252470    -0.2509780
  H        3.0031740    -0.4532420     1.1134330
  H        1.2543330    -2.7122130    -0.9803670
  H       -2.8912910    -1.6827110    -0.0238270
units angstrom
no_reorient  #important for SAPT in psi4, default
symmetry c1  #important for SAPT in psi4, default
}

set PROPERTIES_ORIGIN ["COM"]
properties('MP2/aug-cc-pvtz', properties = ['dipole'])
--------------------------------------------------------------------------

    Molecular point group: c1
  Charge       = 0
  Multiplicity = 1
  Basis Set: AUG-CC-PVTZ
    Blend: AUG-CC-PVTZ
  Basis Set: (AUG-CC-PVTZ AUX)
    Blend: AUG-CC-PVTZ-JKFIT

    Orbital Energies [Eh]
    ---------------------

    Doubly Occupied:

       1A    -20.598426     2A    -20.590845     3A    -20.589047
       4A    -20.584193     5A    -20.578712     6A    -20.562802
       7A    -11.356264     8A    -11.311248     9A    -11.310757
      10A    -11.310235    11A    -11.308212    12A    -11.287315
      13A     -1.442647    14A     -1.407626    15A     -1.401954
      16A     -1.373344    17A     -1.371130    18A     -1.353580
      19A     -1.081347    20A     -1.054091    21A     -0.949517
      22A     -0.892583    23A     -0.852734    24A     -0.839568
      25A     -0.755338    26A     -0.735229    27A     -0.724519
      28A     -0.711351    29A     -0.692241    30A     -0.678560
      31A     -0.661607    32A     -0.657894    33A     -0.624003
      34A     -0.616015    35A     -0.597777    36A     -0.594648
      37A     -0.571383    38A     -0.561423    39A     -0.555382
      40A     -0.538255    41A     -0.528494    42A     -0.519512
      43A     -0.495302    44A     -0.486296    45A     -0.466956
      46A     -0.459685    47A     -0.448226    48A     -0.434962

  @DF-RHF Final Energy:  -683.59035088743315

   => Energetics <=

    Nuclear Repulsion Energy =            825.2237998122341196
    One-Electron Energy =               -2578.5818335444960212
    Two-Electron Energy =                1069.7676828448286415
    Total Energy =                       -683.5903508874332601
  Basis Set: (AUG-CC-PVTZ AUX)
    Blend: AUG-CC-PVTZ-RI
    Molecular point group: c1

    Geometry (in Angstrom), charge = 0, multiplicity = 1:

       Center              X                  Y                   Z               Mass
    ------------   -----------------  -----------------  -----------------  -----------------
         O           -0.720764304178    -1.104388284515    -0.255669671046    15.994914619570
         O           -0.764909304178     2.560449715485     0.200129328954    15.994914619570
         O            1.974335695822     1.993849715485    -0.343671671046    15.994914619570
         O            2.899644695822    -0.659495284515     0.168568328954    15.994914619570
         O            0.903753695822    -2.711334284515    -0.068241671046    15.994914619570
         O           -3.425864304178    -0.872840284515     0.188910328954    15.994914619570
         C           -0.332526304178     1.266980715485    -0.239280671046    12.000000000000
         C            1.105448695822     1.018267715485     0.200263328954    12.000000000000
         C           -1.239326304178     0.140013715485     0.230278328954    12.000000000000
         C            1.581687695822    -0.390266784515    -0.120754671046    12.000000000000
         C            0.572269695822    -1.412965284515     0.285236328954    12.000000000000
         C           -2.658181304178     0.216590715485    -0.297482671046    12.000000000000
         H           -0.354130304178     1.317075715485    -1.333601671046     1.007825032230
         H            1.126971695822     1.058791715485     1.310641328954     1.007825032230
         H           -1.273411304178     0.117747715485     1.335513328954     1.007825032230
         H            1.570296695822    -0.411247284515    -1.320553671046     1.007825032230
         H            0.514527695822    -1.400326284515     1.385289328954     1.007825032230
         H           -2.620840304178     0.232275715485    -1.397028671046     1.007825032230
         H           -3.140186304178     1.134959715485     0.044449328954     1.007825032230
         H           -0.838435304178     2.526047715485     1.172716328954     1.007825032230
         H            1.494956695822     2.840198715485    -0.251976671046     1.007825032230
         H            2.991164695822    -0.438290284515     1.112434328954     1.007825032230
         H            1.242323695822    -2.697261284515    -0.981365671046     1.007825032230
         H           -2.903300304178    -1.667759284515    -0.024825671046     1.007825032230

  Basis Set: AUG-CC-PVTZ
    Blend: AUG-CC-PVTZ
  Basis Set: (AUG-CC-PVTZ AUX)
    Blend: AUG-CC-PVTZ-JKFIT
	 Reference Energy          =    -683.5903508874331465 [Eh]
	 Singles Energy            =      -0.0000000000000000 [Eh]
	 Same-Spin Energy          =      -0.6664135796373591 [Eh]
	 Opposite-Spin Energy      =      -2.0460595118803604 [Eh]
	 Correlation Energy        =      -2.7124730915177198 [Eh]
	 Total Energy              =    -686.3028239789508689 [Eh]

	 ================> DF-SCS-MP2 Energies <==================
	-----------------------------------------------------------
	 SCS Same-Spin Scale       =       0.3333333333333333 [-]
	 SCS Opposite-Spin Scale   =       1.2000000000000000 [-]
	 SCS Same-Spin Energy      =      -0.2221378598791197 [Eh]
	 SCS Opposite-Spin Energy  =      -2.4552714142564325 [Eh]
	 SCS Correlation Energy    =      -2.6774092741355524 [Eh]
	 SCS Total Energy          =    -686.2677601615687308 [Eh]
	-----------------------------------------------------------

  Dipole Moment: [D]
     X:     0.3578      Y:     1.5957      Z:     1.5019     Total:     2.2203

*** Psi4 exiting successfully. Buy a developer a beer!
