                               Psi4 1.4a3.dev225

  ==> Input File <==

--------------------------------------------------------------------------
#psi4
#
memory 32 gb

molecule  {
0 1
  O       -0.7087730    -1.1193010    -0.2547420
  O       -0.7528450     2.5455330     0.2012150
  O        1.9863940     1.9788490    -0.3427120
  O        2.9116460    -0.6744970     0.1694850
  O        0.9156910    -2.7263170    -0.0671110
  O       -3.4138470    -0.8877920     0.1898460
  C       -0.3205030     1.2520640    -0.2382550
  C        1.1174820     1.0032940     0.2012350
  C       -1.2345631     0.1424641     0.2380499
  C        1.5822430    -0.3816820    -0.2226620
  C        0.5842200    -1.4279110     0.2862640
  C       -2.6461850     0.2016990    -0.2964600
  H       -0.3421180     1.3022200    -1.3325700
  H        1.1390340     1.0438120     1.3116130
  H       -1.2614040     0.1027740     1.3364960
  H        1.5822050    -0.4262820    -1.3195710
  H        0.5263940    -1.4152120     1.3863080
  H       -2.6088500     0.2174640    -1.3960030
  H       -3.1281860     1.1200450     0.0455410
  H       -0.8261980     2.5111300     1.1738140
  H        1.5071200     2.8252430    -0.2509020
  H        3.0032160    -0.4533580     1.1133610
  H        1.2544120    -2.7122960    -0.9801810
  H       -2.8913510    -1.6827050    -0.0240770
units angstrom
no_reorient  #important for SAPT in psi4, default
symmetry c1  #important for SAPT in psi4, default
}

set PROPERTIES_ORIGIN ["COM"]
properties('MP2/aug-cc-pvtz', properties = ['dipole'])
--------------------------------------------------------------------------

    Molecular point group: c1
  Charge       = 0
  Multiplicity = 1
  Basis Set: AUG-CC-PVTZ
    Blend: AUG-CC-PVTZ
  Basis Set: (AUG-CC-PVTZ AUX)
    Blend: AUG-CC-PVTZ-JKFIT

    Orbital Energies [Eh]
    ---------------------

    Doubly Occupied:

       1A    -20.598392     2A    -20.586545     3A    -20.582924
       4A    -20.578867     5A    -20.577878     6A    -20.563179
       7A    -11.355700     8A    -11.311170     9A    -11.310077
      10A    -11.308349    11A    -11.304609    12A    -11.287738
      13A     -1.436688    14A     -1.405437    15A     -1.387075
      16A     -1.371728    17A     -1.365942    18A     -1.350881
      19A     -1.081766    20A     -1.051481    21A     -0.946811
      22A     -0.890452    23A     -0.854263    24A     -0.842792
      25A     -0.753123    26A     -0.728534    27A     -0.721067
      28A     -0.709765    29A     -0.692553    30A     -0.675445
      31A     -0.659000    32A     -0.654484    33A     -0.620260
      34A     -0.615386    35A     -0.597940    36A     -0.587723
      37A     -0.569720    38A     -0.561366    39A     -0.555992
      40A     -0.543741    41A     -0.525448    42A     -0.515108
      43A     -0.503616    44A     -0.486953    45A     -0.474635
      46A     -0.463165    47A     -0.447324    48A     -0.431874

  @DF-RHF Final Energy:  -683.60301606779910

   => Energetics <=

    Nuclear Repulsion Energy =            824.4667150617688094
    One-Electron Energy =               -2577.2495266310811530
    Two-Electron Energy =                1069.1797955015131265
    Total Energy =                       -683.6030160677992171
  Basis Set: (AUG-CC-PVTZ AUX)
    Blend: AUG-CC-PVTZ-RI
    Molecular point group: c1

    Geometry (in Angstrom), charge = 0, multiplicity = 1:

       Center              X                  Y                   Z               Mass
    ------------   -----------------  -----------------  -----------------  -----------------
         O           -0.719536306794    -1.107078094777    -0.249335244424    15.994914619570
         O           -0.763608306794     2.557755905223     0.206621755576    15.994914619570
         O            1.975630693206     1.991071905223    -0.337305244424    15.994914619570
         O            2.900882693206    -0.662274094777     0.174891755576    15.994914619570
         O            0.904927693206    -2.714094094777    -0.061704244424    15.994914619570
         O           -3.424610306794    -0.875569094777     0.195252755576    15.994914619570
         C           -0.331266306794     1.264286905223    -0.232848244424    12.000000000000
         C            1.106718693206     1.015516905223     0.206641755576    12.000000000000
         C           -1.245326406794     0.154687005223     0.243456655576    12.000000000000
         C            1.571479693206    -0.369459094777    -0.217255244424    12.000000000000
         C            0.573456693206    -1.415688094777     0.291670755576    12.000000000000
         C           -2.656948306794     0.213921905223    -0.291053244424    12.000000000000
         H           -0.352881306794     1.314442905223    -1.327163244424     1.007825032230
         H            1.128270693206     1.056034905223     1.317019755576     1.007825032230
         H           -1.272167306794     0.114996905223     1.341902755576     1.007825032230
         H            1.571441693206    -0.414059094777    -1.314164244424     1.007825032230
         H            0.515630693206    -1.402989094777     1.391714755576     1.007825032230
         H           -2.619613306794     0.229686905223    -1.390596244424     1.007825032230
         H           -3.138949306794     1.132267905223     0.050947755576     1.007825032230
         H           -0.836961306794     2.523352905223     1.179220755576     1.007825032230
         H            1.496356693206     2.837465905223    -0.245495244424     1.007825032230
         H            2.992452693206    -0.441135094777     1.118767755576     1.007825032230
         H            1.243648693206    -2.700073094777    -0.974774244424     1.007825032230
         H           -2.902114306794    -1.670482094777    -0.018670244424     1.007825032230

  Basis Set: AUG-CC-PVTZ
    Blend: AUG-CC-PVTZ
  Basis Set: (AUG-CC-PVTZ AUX)
    Blend: AUG-CC-PVTZ-JKFIT
	 Reference Energy          =    -683.6030160677991034 [Eh]
	 Singles Energy            =      -0.0000000000000000 [Eh]
	 Same-Spin Energy          =      -0.6655436144574062 [Eh]
	 Opposite-Spin Energy      =      -2.0452266269964010 [Eh]
	 Correlation Energy        =      -2.7107702414538073 [Eh]
	 Total Energy              =    -686.3137863092529187 [Eh]

	 ================> DF-SCS-MP2 Energies <==================
	-----------------------------------------------------------
	 SCS Same-Spin Scale       =       0.3333333333333333 [-]
	 SCS Opposite-Spin Scale   =       1.2000000000000000 [-]
	 SCS Same-Spin Energy      =      -0.2218478714858020 [Eh]
	 SCS Opposite-Spin Energy  =      -2.4542719523956813 [Eh]
	 SCS Correlation Energy    =      -2.6761198238814834 [Eh]
	 SCS Total Energy          =    -686.2791358916805393 [Eh]
	-----------------------------------------------------------

  Dipole Moment: [D]
     X:     0.1876      Y:     1.6502      Z:     1.3848     Total:     2.1624

*** Psi4 exiting successfully. Buy a developer a beer!
