                               Psi4 1.3.2 release

  ==> Input File <==

--------------------------------------------------------------------------
#psi4
#
memory 32 gb

molecule  {
0 1
  O       -0.6654911    -1.1092894    -0.2316665
  O       -0.7529000     2.5454980     0.2011280
  O        1.9863450     1.9788980    -0.3426730
  O        2.9116540    -0.6744470     0.1695670
  O        0.9157630    -2.7262860    -0.0672430
  O       -3.4138550    -0.8877920     0.1899090
  C       -0.3205170     1.2520290    -0.2382820
  C        1.1174580     1.0033160     0.2012620
  C       -1.2273170     0.1250620     0.2312770
  C        1.5822600    -0.3816350    -0.2226430
  C        0.5842790    -1.4279170     0.2862350
  C       -2.6461720     0.2016390    -0.2964840
  H       -0.3421210     1.3021240    -1.3326030
  H        1.1389810     1.0438400     1.3116400
  H       -1.2614020     0.1027960     1.3365120
  H        1.5823060    -0.4261990    -1.3195550
  H        0.5265370    -1.4152780     1.3862880
  H       -2.6088310     0.2173240    -1.3960300
  H       -3.1281770     1.1200080     0.0454480
  H       -0.8264260     2.5110960     1.1737150
  H        1.5069660     2.8252470    -0.2509780
  H        3.0031740    -0.4532420     1.1134330
  H        1.2543330    -2.7122130    -0.9803670
  H       -2.8912910    -1.6827110    -0.0238270
units angstrom
no_reorient  #important for SAPT in psi4, default
symmetry c1  #important for SAPT in psi4, default
}

set PROPERTIES_ORIGIN ["COM"]
properties('MP2/aug-cc-pvtz', properties = ['dipole'])
--------------------------------------------------------------------------

    Molecular point group: c1
  Charge       = 0
  Multiplicity = 1
  Basis Set: AUG-CC-PVTZ
    Blend: AUG-CC-PVTZ
  Basis Set: (AUG-CC-PVTZ AUX)
    Blend: AUG-CC-PVTZ-JKFIT

    Orbital Energies [Eh]
    ---------------------

    Doubly Occupied:

       1A    -20.598274     2A    -20.587202     3A    -20.581250
       4A    -20.576966     5A    -20.576545     6A    -20.565218
       7A    -11.352353     8A    -11.311293     9A    -11.310469
      10A    -11.308949    11A    -11.301887    12A    -11.290351
      13A     -1.449221    14A     -1.405106    15A     -1.386864
      16A     -1.372971    17A     -1.364997    18A     -1.356439
      19A     -1.081556    20A     -1.053918    21A     -0.946189
      22A     -0.890200    23A     -0.857005    24A     -0.843300
      25A     -0.755734    26A     -0.732059    27A     -0.720964
      28A     -0.711027    29A     -0.695998    30A     -0.674903
      31A     -0.663728    32A     -0.655037    33A     -0.619856
      34A     -0.615662    35A     -0.599924    36A     -0.587062
      37A     -0.571559    38A     -0.563275    39A     -0.554202
      40A     -0.542609    41A     -0.528617    42A     -0.513938
      43A     -0.503209    44A     -0.490003    45A     -0.473476
      46A     -0.463069    47A     -0.446451    48A     -0.427812

  @DF-RHF Final Energy:  -683.60491965994038

   => Energetics <=

    Nuclear Repulsion Energy =            825.7810160747861801
    One-Electron Energy =               -2579.8144689738082889
    Two-Electron Energy =                1070.4285332390816166
    Total Energy =                       -683.6049196599403786
  Basis Set: (AUG-CC-PVTZ AUX)
    Blend: AUG-CC-PVTZ-RI
    Molecular point group: c1

    Geometry (in Angstrom), charge = 0, multiplicity = 1:

       Center              X                  Y                   Z               Mass
    ------------   -----------------  -----------------  -----------------  -----------------
         O           -0.680581310255    -1.096802152687    -0.227851927244    15.994914619570
         O           -0.767990210255     2.557985247313     0.204942572756    15.994914619570
         O            1.971254789745     1.991385247313    -0.338858427244    15.994914619570
         O            2.896563789745    -0.661959752687     0.173381572756    15.994914619570
         O            0.900672789745    -2.713798752687    -0.063428427244    15.994914619570
         O           -3.428945210255    -0.875304752687     0.193723572756    15.994914619570
         C           -0.335607210255     1.264516247313    -0.234467427244    12.000000000000
         C            1.102367789745     1.015803247313     0.205076572756    12.000000000000
         C           -1.242407210255     0.137549247313     0.235091572756    12.000000000000
         C            1.567169789745    -0.369147752687    -0.218828427244    12.000000000000
         C            0.569188789745    -1.415429752687     0.290049572756    12.000000000000
         C           -2.661262210255     0.214126247313    -0.292669427244    12.000000000000
         H           -0.357211210255     1.314611247313    -1.328788427244     1.007825032230
         H            1.123890789745     1.056327247313     1.315454572756     1.007825032230
         H           -1.276492210255     0.115283247313     1.340326572756     1.007825032230
         H            1.567215789745    -0.413711752687    -1.315740427244     1.007825032230
         H            0.511446789745    -1.402790752687     1.390102572756     1.007825032230
         H           -2.623921210255     0.229811247313    -1.392215427244     1.007825032230
         H           -3.143267210255     1.132495247313     0.049262572756     1.007825032230
         H           -0.841516210255     2.523583247313     1.177529572756     1.007825032230
         H            1.491875789745     2.837734247313    -0.247163427244     1.007825032230
         H            2.988083789745    -0.440754752687     1.117247572756     1.007825032230
         H            1.239242789745    -2.699725752687    -0.976552427244     1.007825032230
         H           -2.906381210255    -1.670223752687    -0.020012427244     1.007825032230

  Basis Set: AUG-CC-PVTZ
    Blend: AUG-CC-PVTZ
  Basis Set: (AUG-CC-PVTZ AUX)
    Blend: AUG-CC-PVTZ-JKFIT
	 Reference Energy          =    -683.6049196599403786 [Eh]
	 Singles Energy            =      -0.0000000000000000 [Eh]
	 Same-Spin Energy          =      -0.6650241382419393 [Eh]
	 Opposite-Spin Energy      =      -2.0432694366392781 [Eh]
	 Correlation Energy        =      -2.7082935748812176 [Eh]
	 Total Energy              =    -686.3132132348215464 [Eh]

	 ================> DF-SCS-MP2 Energies <==================
	-----------------------------------------------------------
	 SCS Same-Spin Scale       =       0.3333333333333333 [-]
	 SCS Opposite-Spin Scale   =       1.2000000000000000 [-]
	 SCS Same-Spin Energy      =      -0.2216747127473131 [Eh]
	 SCS Opposite-Spin Energy  =      -2.4519233239671334 [Eh]
	 SCS Correlation Energy    =      -2.6735980367144467 [Eh]
	 SCS Total Energy          =    -686.2785176966548306 [Eh]
	-----------------------------------------------------------

  Dipole Moment: [D]
     X:    -0.0253      Y:     1.6475      Z:     1.3126     Total:     2.1066

*** Psi4 exiting successfully. Buy a developer a beer!
