                               Psi4 1.3.2 release

  ==> Input File <==

--------------------------------------------------------------------------
#psi4
#
memory 32 gb

molecule  {
0 1
  O       -0.7087550    -1.1193400    -0.2546710
  O       -0.7333706     2.5557795     0.1893685
  O        1.9863450     1.9788980    -0.3426730
  O        2.9116540    -0.6744470     0.1695670
  O        0.9157630    -2.7262860    -0.0672430
  O       -3.4138550    -0.8877920     0.1899090
  C       -0.3205170     1.2520290    -0.2382820
  C        1.1174580     1.0033160     0.2012620
  C       -1.2273170     0.1250620     0.2312770
  C        1.5822600    -0.3816350    -0.2226430
  C        0.5842790    -1.4279170     0.2862350
  C       -2.6461720     0.2016390    -0.2964840
  H       -0.3421210     1.3021240    -1.3326030
  H        1.1389810     1.0438400     1.3116400
  H       -1.2614020     0.1027960     1.3365120
  H        1.5823060    -0.4261990    -1.3195550
  H        0.5265370    -1.4152780     1.3862880
  H       -2.6088310     0.2173240    -1.3960300
  H       -3.1281770     1.1200080     0.0454480
  H       -0.8264260     2.5110960     1.1737150
  H        1.5069660     2.8252470    -0.2509780
  H        3.0031740    -0.4532420     1.1134330
  H        1.2543330    -2.7122130    -0.9803670
  H       -2.8912910    -1.6827110    -0.0238270
units angstrom
no_reorient  #important for SAPT in psi4, default
symmetry c1  #important for SAPT in psi4, default
}

set PROPERTIES_ORIGIN ["COM"]
properties('MP2/aug-cc-pvtz', properties = ['dipole'])
--------------------------------------------------------------------------

    Molecular point group: c1
  Charge       = 0
  Multiplicity = 1
  Basis Set: AUG-CC-PVTZ
    Blend: AUG-CC-PVTZ
  Basis Set: (AUG-CC-PVTZ AUX)
    Blend: AUG-CC-PVTZ-JKFIT

    Orbital Energies [Eh]
    ---------------------

    Doubly Occupied:

       1A    -20.600179     2A    -20.589095     3A    -20.583865
       4A    -20.578997     5A    -20.576765     6A    -20.563054
       7A    -11.356990     8A    -11.310266     9A    -11.309199
      10A    -11.308686    11A    -11.304813    12A    -11.287791
      13A     -1.440382    14A     -1.403949    15A     -1.387163
      16A     -1.372468    17A     -1.365145    18A     -1.353380
      19A     -1.080479    20A     -1.051188    21A     -0.945838
      22A     -0.890648    23A     -0.854469    24A     -0.841965
      25A     -0.753805    26A     -0.729845    27A     -0.721046
      28A     -0.708590    29A     -0.692504    30A     -0.674851
      31A     -0.660211    32A     -0.654765    33A     -0.620489
      34A     -0.614692    35A     -0.598085    36A     -0.587570
      37A     -0.570130    38A     -0.562043    39A     -0.555991
      40A     -0.542287    41A     -0.527874    42A     -0.517282
      43A     -0.502916    44A     -0.487400    45A     -0.474133
      46A     -0.462270    47A     -0.446340    48A     -0.431326

  @DF-RHF Final Energy:  -683.60253743959652

   => Energetics <=

    Nuclear Repulsion Energy =            824.5708601112920633
    One-Electron Energy =               -2577.4403566415853675
    Two-Electron Energy =                1069.2669590906969006
    Total Energy =                       -683.6025374395965173
  Basis Set: (AUG-CC-PVTZ AUX)
    Blend: AUG-CC-PVTZ-RI
    Molecular point group: c1

    Geometry (in Angstrom), charge = 0, multiplicity = 1:

       Center              X                  Y                   Z               Mass
    ------------   -----------------  -----------------  -----------------  -----------------
         O           -0.721736889929    -1.106873263385    -0.247768363548    15.994914619570
         O           -0.746352489929     2.568246236615     0.196271136452    15.994914619570
         O            1.973363110071     1.991364736615    -0.335770363548    15.994914619570
         O            2.898672110071    -0.661980263385     0.176469636452    15.994914619570
         O            0.902781110071    -2.713819263385    -0.060340363548    15.994914619570
         O           -3.426836889929    -0.875325263385     0.196811636452    15.994914619570
         C           -0.333498889929     1.264495736615    -0.231379363548    12.000000000000
         C            1.104476110071     1.015782736615     0.208164636452    12.000000000000
         C           -1.240298889929     0.137528736615     0.238179636452    12.000000000000
         C            1.569278110071    -0.369168263385    -0.215740363548    12.000000000000
         C            0.571297110071    -1.415450263385     0.293137636452    12.000000000000
         C           -2.659153889929     0.214105736615    -0.289581363548    12.000000000000
         H           -0.355102889929     1.314590736615    -1.325700363548     1.007825032230
         H            1.125999110071     1.056306736615     1.318542636452     1.007825032230
         H           -1.274383889929     0.115262736615     1.343414636452     1.007825032230
         H            1.569324110071    -0.413732263385    -1.312652363548     1.007825032230
         H            0.513555110071    -1.402811263385     1.393190636452     1.007825032230
         H           -2.621812889929     0.229790736615    -1.389127363548     1.007825032230
         H           -3.141158889929     1.132474736615     0.052350636452     1.007825032230
         H           -0.839407889929     2.523562736615     1.180617636452     1.007825032230
         H            1.493984110071     2.837713736615    -0.244075363548     1.007825032230
         H            2.990192110071    -0.440775263385     1.120335636452     1.007825032230
         H            1.241351110071    -2.699746263385    -0.973464363548     1.007825032230
         H           -2.904272889929    -1.670244263385    -0.016924363548     1.007825032230

  Basis Set: AUG-CC-PVTZ
    Blend: AUG-CC-PVTZ
  Basis Set: (AUG-CC-PVTZ AUX)
    Blend: AUG-CC-PVTZ-JKFIT
	 Reference Energy          =    -683.6025374395965173 [Eh]
	 Singles Energy            =      -0.0000000000000000 [Eh]
	 Same-Spin Energy          =      -0.6656927835565400 [Eh]
	 Opposite-Spin Energy      =      -2.0454179527764973 [Eh]
	 Correlation Energy        =      -2.7111107363330373 [Eh]
	 Total Energy              =    -686.3136481759295293 [Eh]

	 ================> DF-SCS-MP2 Energies <==================
	-----------------------------------------------------------
	 SCS Same-Spin Scale       =       0.3333333333333333 [-]
	 SCS Opposite-Spin Scale   =       1.2000000000000000 [-]
	 SCS Same-Spin Energy      =      -0.2218975945188467 [Eh]
	 SCS Opposite-Spin Energy  =      -2.4545015433317965 [Eh]
	 SCS Correlation Energy    =      -2.6763991378506433 [Eh]
	 SCS Total Energy          =    -686.2789365774472117 [Eh]
	-----------------------------------------------------------

  Dipole Moment: [D]
     X:     0.1618      Y:     1.5804      Z:     1.3807     Total:     2.1048

*** Psi4 exiting successfully. Buy a developer a beer!
