                               Psi4 1.3.2 release

  ==> Input File <==

--------------------------------------------------------------------------
#psi4
#
memory 32 gb

molecule  {
0 1
  O       -0.7087550    -1.1193400    -0.2546710
  O       -0.7529000     2.5454980     0.2011280
  O        1.9863450     1.9788980    -0.3426730
  O        2.9116540    -0.6744470     0.1695670
  O        0.9157630    -2.7262860    -0.0672430
  O       -3.4138550    -0.8877920     0.1899090
  C       -0.3205170     1.2520290    -0.2382820
  C        1.1512425     0.9687675     0.1910220
  C       -1.2273170     0.1250620     0.2312770
  C        1.5822600    -0.3816350    -0.2226430
  C        0.5842790    -1.4279170     0.2862350
  C       -2.6461720     0.2016390    -0.2964840
  H       -0.3421210     1.3021240    -1.3326030
  H        1.1389810     1.0438400     1.3116400
  H       -1.2614020     0.1027960     1.3365120
  H        1.5823060    -0.4261990    -1.3195550
  H        0.5265370    -1.4152780     1.3862880
  H       -2.6088310     0.2173240    -1.3960300
  H       -3.1281770     1.1200080     0.0454480
  H       -0.8264260     2.5110960     1.1737150
  H        1.5069660     2.8252470    -0.2509780
  H        3.0031740    -0.4532420     1.1134330
  H        1.2543330    -2.7122130    -0.9803670
  H       -2.8912910    -1.6827110    -0.0238270
units angstrom
no_reorient  #important for SAPT in psi4, default
symmetry c1  #important for SAPT in psi4, default
}

set PROPERTIES_ORIGIN ["COM"]
properties('MP2/aug-cc-pvtz', properties = ['dipole'])
--------------------------------------------------------------------------

    Molecular point group: c1
  Charge       = 0
  Multiplicity = 1
  Basis Set: AUG-CC-PVTZ
    Blend: AUG-CC-PVTZ
  Basis Set: (AUG-CC-PVTZ AUX)
    Blend: AUG-CC-PVTZ-JKFIT

    Orbital Energies [Eh]
    ---------------------

    Doubly Occupied:

       1A    -20.599544     2A    -20.588753     3A    -20.584774
       4A    -20.578904     5A    -20.576254     6A    -20.562375
       7A    -11.358289     8A    -11.311705     9A    -11.310916
      10A    -11.307340    11A    -11.304050    12A    -11.286840
      13A     -1.440791    14A     -1.404121    15A     -1.388706
      16A     -1.372921    17A     -1.365322    18A     -1.353173
      19A     -1.081571    20A     -1.053825    21A     -0.943216
      22A     -0.895378    23A     -0.853066    24A     -0.841781
      25A     -0.755282    26A     -0.731076    27A     -0.718976
      28A     -0.710223    29A     -0.692235    30A     -0.674657
      31A     -0.664363    32A     -0.657416    33A     -0.619558
      34A     -0.615078    35A     -0.597918    36A     -0.586908
      37A     -0.568858    38A     -0.560693    39A     -0.556307
      40A     -0.544109    41A     -0.527418    42A     -0.517429
      43A     -0.503898    44A     -0.487028    45A     -0.476729
      46A     -0.459826    47A     -0.446092    48A     -0.429107

  @DF-RHF Final Energy:  -683.60136654776147

   => Energetics <=

    Nuclear Repulsion Energy =            824.7735198372067771
    One-Electron Energy =               -2577.8201781848642895
    Two-Electron Energy =                1069.4452917998960402
    Total Energy =                       -683.6013665477614722
  Basis Set: (AUG-CC-PVTZ AUX)
    Blend: AUG-CC-PVTZ-RI
    Molecular point group: c1

    Geometry (in Angstrom), charge = 0, multiplicity = 1:

       Center              X                  Y                   Z               Mass
    ------------   -----------------  -----------------  -----------------  -----------------
         O           -0.722253613042    -1.103657541850    -0.248130526002    15.994914619570
         O           -0.766398613042     2.561180458150     0.207668473998    15.994914619570
         O            1.972846386958     1.994580458150    -0.336132526002    15.994914619570
         O            2.898155386958    -0.658764541850     0.176107473998    15.994914619570
         O            0.902264386958    -2.710603541850    -0.060702526002    15.994914619570
         O           -3.427353613042    -0.872109541850     0.196449473998    15.994914619570
         C           -0.334015613042     1.267711458150    -0.231741526002    12.000000000000
         C            1.137743886958     0.984449958150     0.197562473998    12.000000000000
         C           -1.240815613042     0.140744458150     0.237817473998    12.000000000000
         C            1.568761386958    -0.365952541850    -0.216102526002    12.000000000000
         C            0.570780386958    -1.412234541850     0.292775473998    12.000000000000
         C           -2.659670613042     0.217321458150    -0.289943526002    12.000000000000
         H           -0.355619613042     1.317806458150    -1.326062526002     1.007825032230
         H            1.125482386958     1.059522458150     1.318180473998     1.007825032230
         H           -1.274900613042     0.118478458150     1.343052473998     1.007825032230
         H            1.568807386958    -0.410516541850    -1.313014526002     1.007825032230
         H            0.513038386958    -1.399595541850     1.392828473998     1.007825032230
         H           -2.622329613042     0.233006458150    -1.389489526002     1.007825032230
         H           -3.141675613042     1.135690458150     0.051988473998     1.007825032230
         H           -0.839924613042     2.526778458150     1.180255473998     1.007825032230
         H            1.493467386958     2.840929458150    -0.244437526002     1.007825032230
         H            2.989675386958    -0.437559541850     1.119973473998     1.007825032230
         H            1.240834386958    -2.696530541850    -0.973826526002     1.007825032230
         H           -2.904789613042    -1.667028541850    -0.017286526002     1.007825032230

  Basis Set: AUG-CC-PVTZ
    Blend: AUG-CC-PVTZ
  Basis Set: (AUG-CC-PVTZ AUX)
    Blend: AUG-CC-PVTZ-JKFIT
	 Reference Energy          =    -683.6013665477614722 [Eh]
	 Singles Energy            =      -0.0000000000000000 [Eh]
	 Same-Spin Energy          =      -0.6656054523353151 [Eh]
	 Opposite-Spin Energy      =      -2.0449816892535462 [Eh]
	 Correlation Energy        =      -2.7105871415888614 [Eh]
	 Total Energy              =    -686.3119536893503891 [Eh]

	 ================> DF-SCS-MP2 Energies <==================
	-----------------------------------------------------------
	 SCS Same-Spin Scale       =       0.3333333333333333 [-]
	 SCS Opposite-Spin Scale   =       1.2000000000000000 [-]
	 SCS Same-Spin Energy      =      -0.2218684841117717 [Eh]
	 SCS Opposite-Spin Energy  =      -2.4539780271042555 [Eh]
	 SCS Correlation Energy    =      -2.6758465112160272 [Eh]
	 SCS Total Energy          =    -686.2772130589775088 [Eh]
	-----------------------------------------------------------

  Dipole Moment: [D]
     X:     0.2128      Y:     1.5799      Z:     1.3573     Total:     2.0937

*** Psi4 exiting successfully. Buy a developer a beer!
