                               Psi4 1.3.2 release

  ==> Input File <==

--------------------------------------------------------------------------
#psi4
#
memory 32 gb

molecule  {
0 1
  O       -0.7087550    -1.1193400    -0.2546710
  O       -0.7529000     2.5454980     0.2011280
  O        1.9863450     1.9788980    -0.3426730
  O        2.9116540    -0.6744470     0.1695670
  O        0.9157630    -2.7262860    -0.0672430
  O       -3.4138550    -0.8877920     0.1899090
  C       -0.3205170     1.2520290    -0.2382820
  C        1.1174580     1.0033160     0.2012620
  C       -1.2273170     0.1250620     0.2312770
  C        1.5822600    -0.3816350    -0.2226430
  C        0.5984021    -1.4132651     0.2423510
  C       -2.6461720     0.2016390    -0.2964840
  H       -0.3421210     1.3021240    -1.3326030
  H        1.1389810     1.0438400     1.3116400
  H       -1.2614020     0.1027960     1.3365120
  H        1.5823060    -0.4261990    -1.3195550
  H        0.5265370    -1.4152780     1.3862880
  H       -2.6088310     0.2173240    -1.3960300
  H       -3.1281770     1.1200080     0.0454480
  H       -0.8264260     2.5110960     1.1737150
  H        1.5069660     2.8252470    -0.2509780
  H        3.0031740    -0.4532420     1.1134330
  H        1.2543330    -2.7122130    -0.9803670
  H       -2.8912910    -1.6827110    -0.0238270
units angstrom
no_reorient  #important for SAPT in psi4, default
symmetry c1  #important for SAPT in psi4, default
}

set PROPERTIES_ORIGIN ["COM"]
properties('MP2/aug-cc-pvtz', properties = ['dipole'])
--------------------------------------------------------------------------

    Molecular point group: c1
  Charge       = 0
  Multiplicity = 1
  Basis Set: AUG-CC-PVTZ
    Blend: AUG-CC-PVTZ
  Basis Set: (AUG-CC-PVTZ AUX)
    Blend: AUG-CC-PVTZ-JKFIT

    Orbital Energies [Eh]
    ---------------------

    Doubly Occupied:

       1A    -20.598836     2A    -20.589482     3A    -20.585746
       4A    -20.580601     5A    -20.578211     6A    -20.562961
       7A    -11.358406     8A    -11.311402     9A    -11.310764
      10A    -11.308521    11A    -11.305191    12A    -11.287624
      13A     -1.442690    14A     -1.405788    15A     -1.389053
      16A     -1.373827    17A     -1.366843    18A     -1.354308
      19A     -1.083128    20A     -1.054799    21A     -0.948716
      22A     -0.888342    23A     -0.856141    24A     -0.841322
      25A     -0.754458    26A     -0.731802    27A     -0.722391
      28A     -0.709485    29A     -0.693575    30A     -0.676849
      31A     -0.661490    32A     -0.651790    33A     -0.620910
      34A     -0.615829    35A     -0.598987    36A     -0.587200
      37A     -0.572412    38A     -0.561824    39A     -0.556871
      40A     -0.544040    41A     -0.525999    42A     -0.516821
      43A     -0.499623    44A     -0.488186    45A     -0.474176
      46A     -0.463592    47A     -0.447598    48A     -0.433960

  @DF-RHF Final Energy:  -683.60058194791816

   => Energetics <=

    Nuclear Repulsion Energy =            825.1908966254366078
    One-Electron Energy =               -2578.5978202845535634
    Two-Electron Energy =                1069.8063417111986837
    Total Energy =                       -683.6005819479182719
  Basis Set: (AUG-CC-PVTZ AUX)
    Blend: AUG-CC-PVTZ-RI
    Molecular point group: c1

    Geometry (in Angstrom), charge = 0, multiplicity = 1:

       Center              X                  Y                   Z               Mass
    ------------   -----------------  -----------------  -----------------  -----------------
         O           -0.720943314472    -1.106936413842    -0.245888382253    15.994914619570
         O           -0.765088314472     2.557901586158     0.209910617747    15.994914619570
         O            1.974156685528     1.991301586158    -0.333890382253    15.994914619570
         O            2.899465685528    -0.662043413842     0.178349617747    15.994914619570
         O            0.903574685528    -2.713882413842    -0.058460382253    15.994914619570
         O           -3.426043314472    -0.875388413842     0.198691617747    15.994914619570
         C           -0.332705314472     1.264432586158    -0.229499382253    12.000000000000
         C            1.105269685528     1.015719586158     0.210044617747    12.000000000000
         C           -1.239505314472     0.137465586158     0.240059617747    12.000000000000
         C            1.570071685528    -0.369231413842    -0.213860382253    12.000000000000
         C            0.586213785528    -1.400861513842     0.251133617747    12.000000000000
         C           -2.658360314472     0.214042586158    -0.287701382253    12.000000000000
         H           -0.354309314472     1.314527586158    -1.323820382253     1.007825032230
         H            1.126792685528     1.056243586158     1.320422617747     1.007825032230
         H           -1.273590314472     0.115199586158     1.345294617747     1.007825032230
         H            1.570117685528    -0.413795413842    -1.310772382253     1.007825032230
         H            0.514348685528    -1.402874413842     1.395070617747     1.007825032230
         H           -2.621019314472     0.229727586158    -1.387247382253     1.007825032230
         H           -3.140365314472     1.132411586158     0.054230617747     1.007825032230
         H           -0.838614314472     2.523499586158     1.182497617747     1.007825032230
         H            1.494777685528     2.837650586158    -0.242195382253     1.007825032230
         H            2.990985685528    -0.440838413842     1.122215617747     1.007825032230
         H            1.242144685528    -2.699809413842    -0.971584382253     1.007825032230
         H           -2.903479314472    -1.670307413842    -0.015044382253     1.007825032230

  Basis Set: AUG-CC-PVTZ
    Blend: AUG-CC-PVTZ
  Basis Set: (AUG-CC-PVTZ AUX)
    Blend: AUG-CC-PVTZ-JKFIT
	 Reference Energy          =    -683.6005819479181582 [Eh]
	 Singles Energy            =      -0.0000000000000000 [Eh]
	 Same-Spin Energy          =      -0.6658561363447603 [Eh]
	 Opposite-Spin Energy      =      -2.0453506322063961 [Eh]
	 Correlation Energy        =      -2.7112067685511563 [Eh]
	 Total Energy              =    -686.3117887164693229 [Eh]

	 ================> DF-SCS-MP2 Energies <==================
	-----------------------------------------------------------
	 SCS Same-Spin Scale       =       0.3333333333333333 [-]
	 SCS Opposite-Spin Scale   =       1.2000000000000000 [-]
	 SCS Same-Spin Energy      =      -0.2219520454482534 [Eh]
	 SCS Opposite-Spin Energy  =      -2.4544207586476752 [Eh]
	 SCS Correlation Energy    =      -2.6763728040959287 [Eh]
	 SCS Total Energy          =    -686.2769547520140350 [Eh]
	-----------------------------------------------------------

  Dipole Moment: [D]
     X:     0.2286      Y:     1.6460      Z:     1.2710     Total:     2.0921

*** Psi4 exiting successfully. Buy a developer a beer!
