                               Psi4 1.3.2 release

  ==> Input File <==

--------------------------------------------------------------------------
#psi4
#
memory 32 gb

molecule  {
0 1
  O       -0.7087550    -1.1193400    -0.2546710
  O       -0.7529000     2.5454980     0.2011280
  O        1.9863450     1.9788980    -0.3426730
  O        2.9116540    -0.6744470     0.1695670
  O        0.9135390    -2.6980683    -0.1597402
  O       -3.4138550    -0.8877920     0.1899090
  C       -0.3205170     1.2520290    -0.2382820
  C        1.1174580     1.0033160     0.2012620
  C       -1.2273170     0.1250620     0.2312770
  C        1.5822600    -0.3816350    -0.2226430
  C        0.5842790    -1.4279170     0.2862350
  C       -2.6461720     0.2016390    -0.2964840
  H       -0.3421210     1.3021240    -1.3326030
  H        1.1389810     1.0438400     1.3116400
  H       -1.2614020     0.1027960     1.3365120
  H        1.5823060    -0.4261990    -1.3195550
  H        0.5265370    -1.4152780     1.3862880
  H       -2.6088310     0.2173240    -1.3960300
  H       -3.1281770     1.1200080     0.0454480
  H       -0.8264260     2.5110960     1.1737150
  H        1.5069660     2.8252470    -0.2509780
  H        3.0031740    -0.4532420     1.1134330
  H        1.2543330    -2.7122130    -0.9803670
  H       -2.8912910    -1.6827110    -0.0238270
units angstrom
no_reorient  #important for SAPT in psi4, default
symmetry c1  #important for SAPT in psi4, default
}

set PROPERTIES_ORIGIN ["COM"]
properties('MP2/aug-cc-pvtz', properties = ['dipole'])
--------------------------------------------------------------------------

    Molecular point group: c1
  Charge       = 0
  Multiplicity = 1
  Basis Set: AUG-CC-PVTZ
    Blend: AUG-CC-PVTZ
  Basis Set: (AUG-CC-PVTZ AUX)
    Blend: AUG-CC-PVTZ-JKFIT

    Orbital Energies [Eh]
    ---------------------

    Doubly Occupied:

       1A    -20.598125     2A    -20.588154     3A    -20.579365
       4A    -20.577162     5A    -20.571730     6A    -20.562631
       7A    -11.359731     8A    -11.310229     9A    -11.309138
      10A    -11.307579    11A    -11.304186    12A    -11.287134
      13A     -1.446430    14A     -1.405880    15A     -1.388302
      16A     -1.377611    17A     -1.366131    18A     -1.355764
      19A     -1.080700    20A     -1.053275    21A     -0.948131
      22A     -0.898813    23A     -0.855551    24A     -0.842202
      25A     -0.760801    26A     -0.730570    27A     -0.721445
      28A     -0.716889    29A     -0.692365    30A     -0.674841
      31A     -0.664859    32A     -0.657757    33A     -0.620347
      34A     -0.616899    35A     -0.597114    36A     -0.587737
      37A     -0.568436    38A     -0.561946    39A     -0.555473
      40A     -0.542778    41A     -0.528839    42A     -0.516167
      43A     -0.503254    44A     -0.488115    45A     -0.474157
      46A     -0.462036    47A     -0.445763    48A     -0.430669

  @DF-RHF Final Energy:  -683.60042698014433

   => Energetics <=

    Nuclear Repulsion Energy =            825.6580847014666915
    One-Electron Energy =               -2579.5306009252212789
    Two-Electron Energy =                1070.2720892436104805
    Total Energy =                       -683.6004269801442206
  Basis Set: (AUG-CC-PVTZ AUX)
    Blend: AUG-CC-PVTZ-RI
    Molecular point group: c1

    Geometry (in Angstrom), charge = 0, multiplicity = 1:

       Center              X                  Y                   Z               Mass
    ------------   -----------------  -----------------  -----------------  -----------------
         O           -0.719804549439    -1.108466524461    -0.240596485735    15.994914619570
         O           -0.763949549439     2.556371475539     0.215202514265    15.994914619570
         O            1.975295450561     1.989771475539    -0.328598485735    15.994914619570
         O            2.900604450561    -0.663573524461     0.183641514265    15.994914619570
         O            0.902489450561    -2.687194824461    -0.145665685735    15.994914619570
         O           -3.424904549439    -0.876918524461     0.203983514265    15.994914619570
         C           -0.331566549439     1.262902475539    -0.224207485735    12.000000000000
         C            1.106408450561     1.014189475539     0.215336514265    12.000000000000
         C           -1.238366549439     0.135935475539     0.245351514265    12.000000000000
         C            1.571210450561    -0.370761524461    -0.208568485735    12.000000000000
         C            0.573229450561    -1.417043524461     0.300309514265    12.000000000000
         C           -2.657221549439     0.212512475539    -0.282409485735    12.000000000000
         H           -0.353170549439     1.312997475539    -1.318528485735     1.007825032230
         H            1.127931450561     1.054713475539     1.325714514265     1.007825032230
         H           -1.272451549439     0.113669475539     1.350586514265     1.007825032230
         H            1.571256450561    -0.415325524461    -1.305480485735     1.007825032230
         H            0.515487450561    -1.404404524461     1.400362514265     1.007825032230
         H           -2.619880549439     0.228197475539    -1.381955485735     1.007825032230
         H           -3.139226549439     1.130881475539     0.059522514265     1.007825032230
         H           -0.837475549439     2.521969475539     1.187789514265     1.007825032230
         H            1.495916450561     2.836120475539    -0.236903485735     1.007825032230
         H            2.992124450561    -0.442368524461     1.127507514265     1.007825032230
         H            1.243283450561    -2.701339524461    -0.966292485735     1.007825032230
         H           -2.902340549439    -1.671837524461    -0.009752485735     1.007825032230

  Basis Set: AUG-CC-PVTZ
    Blend: AUG-CC-PVTZ
  Basis Set: (AUG-CC-PVTZ AUX)
    Blend: AUG-CC-PVTZ-JKFIT
	 Reference Energy          =    -683.6004269801443343 [Eh]
	 Singles Energy            =      -0.0000000000000000 [Eh]
	 Same-Spin Energy          =      -0.6643564645557387 [Eh]
	 Opposite-Spin Energy      =      -2.0421040934451615 [Eh]
	 Correlation Energy        =      -2.7064605580009005 [Eh]
	 Total Energy              =    -686.3068875381452472 [Eh]

	 ================> DF-SCS-MP2 Energies <==================
	-----------------------------------------------------------
	 SCS Same-Spin Scale       =       0.3333333333333333 [-]
	 SCS Opposite-Spin Scale   =       1.2000000000000000 [-]
	 SCS Same-Spin Energy      =      -0.2214521548519129 [Eh]
	 SCS Opposite-Spin Energy  =      -2.4505249121341937 [Eh]
	 SCS Correlation Energy    =      -2.6719770669861065 [Eh]
	 SCS Total Energy          =    -686.2724040471304079 [Eh]
	-----------------------------------------------------------

  Dipole Moment: [D]
     X:     0.2338      Y:     1.5899      Z:     1.5008     Total:     2.1989

*** Psi4 exiting successfully. Buy a developer a beer!
