                               Psi4 1.3.2 release

  ==> Input File <==

--------------------------------------------------------------------------
#psi4
#
memory 32 gb

molecule  {
0 1
  O       -0.7053315    -1.0736318    -0.2344594
  O       -0.7529000     2.5454980     0.2011280
  O        1.9863450     1.9788980    -0.3426730
  O        2.9116540    -0.6744470     0.1695670
  O        0.9157630    -2.7262860    -0.0672430
  O       -3.4138550    -0.8877920     0.1899090
  C       -0.3205170     1.2520290    -0.2382820
  C        1.1174580     1.0033160     0.2012620
  C       -1.2273170     0.1250620     0.2312770
  C        1.5822600    -0.3816350    -0.2226430
  C        0.5842790    -1.4279170     0.2862350
  C       -2.6461720     0.2016390    -0.2964840
  H       -0.3421210     1.3021240    -1.3326030
  H        1.1389810     1.0438400     1.3116400
  H       -1.2614020     0.1027960     1.3365120
  H        1.5823060    -0.4261990    -1.3195550
  H        0.5265370    -1.4152780     1.3862880
  H       -2.6088310     0.2173240    -1.3960300
  H       -3.1281770     1.1200080     0.0454480
  H       -0.8264260     2.5110960     1.1737150
  H        1.5069660     2.8252470    -0.2509780
  H        3.0031740    -0.4532420     1.1134330
  H        1.2543330    -2.7122130    -0.9803670
  H       -2.8912910    -1.6827110    -0.0238270
units angstrom
no_reorient  #important for SAPT in psi4, default
symmetry c1  #important for SAPT in psi4, default
}

set PROPERTIES_ORIGIN ["COM"]
properties('MP2/aug-cc-pvtz', properties = ['dipole'])
--------------------------------------------------------------------------

    Molecular point group: c1
  Charge       = 0
  Multiplicity = 1
  Basis Set: AUG-CC-PVTZ
    Blend: AUG-CC-PVTZ
  Basis Set: (AUG-CC-PVTZ AUX)
    Blend: AUG-CC-PVTZ-JKFIT

    Orbital Energies [Eh]
    ---------------------

    Doubly Occupied:

       1A    -20.595954     2A    -20.587684     3A    -20.586871
       4A    -20.578994     5A    -20.576905     6A    -20.562671
       7A    -11.359373     8A    -11.309196     9A    -11.307521
      10A    -11.305109    11A    -11.304269    12A    -11.286018
      13A     -1.447403    14A     -1.403672    15A     -1.389837
      16A     -1.375849    17A     -1.365427    18A     -1.356890
      19A     -1.078245    20A     -1.054048    21A     -0.945430
      22A     -0.892829    23A     -0.855316    24A     -0.842325
      25A     -0.756927    26A     -0.731664    27A     -0.721406
      28A     -0.711110    29A     -0.695742    30A     -0.675552
      31A     -0.663147    32A     -0.655512    33A     -0.618956
      34A     -0.616327    35A     -0.597534    36A     -0.588318
      37A     -0.571322    38A     -0.562781    39A     -0.555254
      40A     -0.543430    41A     -0.529247    42A     -0.519433
      43A     -0.502221    44A     -0.486394    45A     -0.472648
      46A     -0.460854    47A     -0.445900    48A     -0.428158

  @DF-RHF Final Energy:  -683.60421759792416

   => Energetics <=

    Nuclear Repulsion Energy =            825.9213304686701349
    One-Electron Energy =               -2580.0957553671737514
    Two-Electron Energy =                1070.5702073005795683
    Total Energy =                       -683.6042175979241620
  Basis Set: (AUG-CC-PVTZ AUX)
    Blend: AUG-CC-PVTZ-RI
    Molecular point group: c1

    Geometry (in Angstrom), charge = 0, multiplicity = 1:

       Center              X                  Y                   Z               Mass
    ------------   -----------------  -----------------  -----------------  -----------------
         O           -0.716882713221    -1.064311994294    -0.230396735739    15.994914619570
         O           -0.764451213221     2.554817805706     0.205190664261    15.994914619570
         O            1.974793786779     1.988217805706    -0.338610335739    15.994914619570
         O            2.900102786779    -0.665127194294     0.173629664261    15.994914619570
         O            0.904211786779    -2.716966194294    -0.063180335739    15.994914619570
         O           -3.425406213221    -0.878472194294     0.193971664261    15.994914619570
         C           -0.332068213221     1.261348805706    -0.234219335739    12.000000000000
         C            1.105906786779     1.012635805706     0.205324664261    12.000000000000
         C           -1.238868213221     0.134381805706     0.235339664261    12.000000000000
         C            1.570708786779    -0.372315194294    -0.218580335739    12.000000000000
         C            0.572727786779    -1.418597194294     0.290297664261    12.000000000000
         C           -2.657723213221     0.210958805706    -0.292421335739    12.000000000000
         H           -0.353672213221     1.311443805706    -1.328540335739     1.007825032230
         H            1.127429786779     1.053159805706     1.315702664261     1.007825032230
         H           -1.272953213221     0.112115805706     1.340574664261     1.007825032230
         H            1.570754786779    -0.416879194294    -1.315492335739     1.007825032230
         H            0.514985786779    -1.405958194294     1.390350664261     1.007825032230
         H           -2.620382213221     0.226643805706    -1.391967335739     1.007825032230
         H           -3.139728213221     1.129327805706     0.049510664261     1.007825032230
         H           -0.837977213221     2.520415805706     1.177777664261     1.007825032230
         H            1.495414786779     2.834566805706    -0.246915335739     1.007825032230
         H            2.991622786779    -0.443922194294     1.117495664261     1.007825032230
         H            1.242781786779    -2.702893194294    -0.976304335739     1.007825032230
         H           -2.902842213221    -1.673391194294    -0.019764335739     1.007825032230

  Basis Set: AUG-CC-PVTZ
    Blend: AUG-CC-PVTZ
  Basis Set: (AUG-CC-PVTZ AUX)
    Blend: AUG-CC-PVTZ-JKFIT
	 Reference Energy          =    -683.6042175979241620 [Eh]
	 Singles Energy            =      -0.0000000000000000 [Eh]
	 Same-Spin Energy          =      -0.6652558950511698 [Eh]
	 Opposite-Spin Energy      =      -2.0436229181267649 [Eh]
	 Correlation Energy        =      -2.7088788131779347 [Eh]
	 Total Energy              =    -686.3130964111021513 [Eh]

	 ================> DF-SCS-MP2 Energies <==================
	-----------------------------------------------------------
	 SCS Same-Spin Scale       =       0.3333333333333333 [-]
	 SCS Opposite-Spin Scale   =       1.2000000000000000 [-]
	 SCS Same-Spin Energy      =      -0.2217519650170566 [Eh]
	 SCS Opposite-Spin Energy  =      -2.4523475017521177 [Eh]
	 SCS Correlation Energy    =      -2.6740994667691744 [Eh]
	 SCS Total Energy          =    -686.2783170646932831 [Eh]
	-----------------------------------------------------------

  Dipole Moment: [D]
     X:     0.2553      Y:     1.4198      Z:     1.3142     Total:     1.9515

*** Psi4 exiting successfully. Buy a developer a beer!
