                               Psi4 1.3.2 release

  ==> Input File <==

--------------------------------------------------------------------------
#psi4
#
memory 32 gb

molecule  {
0 1
  O       -0.7182565    -1.1391843    -0.2426985
  O       -0.7529000     2.5454980     0.2011280
  O        1.9863450     1.9788980    -0.3426730
  O        2.9116540    -0.6744470     0.1695670
  O        0.9157630    -2.7262860    -0.0672430
  O       -3.4138550    -0.8877920     0.1899090
  C       -0.3205170     1.2520290    -0.2382820
  C        1.1174580     1.0033160     0.2012620
  C       -1.2273170     0.1250620     0.2312770
  C        1.5822600    -0.3816350    -0.2226430
  C        0.5842790    -1.4279170     0.2862350
  C       -2.6461720     0.2016390    -0.2964840
  H       -0.3421210     1.3021240    -1.3326030
  H        1.1389810     1.0438400     1.3116400
  H       -1.2614020     0.1027960     1.3365120
  H        1.5823060    -0.4261990    -1.3195550
  H        0.5265370    -1.4152780     1.3862880
  H       -2.6088310     0.2173240    -1.3960300
  H       -3.1281770     1.1200080     0.0454480
  H       -0.8264260     2.5110960     1.1737150
  H        1.5069660     2.8252470    -0.2509780
  H        3.0031740    -0.4532420     1.1134330
  H        1.2543330    -2.7122130    -0.9803670
  H       -2.8912910    -1.6827110    -0.0238270
units angstrom
no_reorient  #important for SAPT in psi4, default
symmetry c1  #important for SAPT in psi4, default
}

set PROPERTIES_ORIGIN ["COM"]
properties('MP2/aug-cc-pvtz', properties = ['dipole'])
--------------------------------------------------------------------------

    Molecular point group: c1
  Charge       = 0
  Multiplicity = 1
  Basis Set: AUG-CC-PVTZ
    Blend: AUG-CC-PVTZ
  Basis Set: (AUG-CC-PVTZ AUX)
    Blend: AUG-CC-PVTZ-JKFIT

    Orbital Energies [Eh]
    ---------------------

    Doubly Occupied:

       1A    -20.599275     2A    -20.588841     3A    -20.582889
       4A    -20.579840     5A    -20.577774     6A    -20.562382
       7A    -11.356392     8A    -11.311531     9A    -11.310128
      10A    -11.308719    11A    -11.305735    12A    -11.287458
      13A     -1.438777    14A     -1.405684    15A     -1.387855
      16A     -1.372054    17A     -1.366232    18A     -1.351575
      19A     -1.082044    20A     -1.050310    21A     -0.946163
      22A     -0.891264    23A     -0.854599    24A     -0.842116
      25A     -0.753232    26A     -0.729324    27A     -0.721382
      28A     -0.710021    29A     -0.692730    30A     -0.674579
      31A     -0.659521    32A     -0.655010    33A     -0.620784
      34A     -0.615711    35A     -0.597902    36A     -0.587317
      37A     -0.570446    38A     -0.562064    39A     -0.556566
      40A     -0.543750    41A     -0.526581    42A     -0.515709
      43A     -0.502820    44A     -0.487460    45A     -0.474821
      46A     -0.462480    47A     -0.446198    48A     -0.432282

  @DF-RHF Final Energy:  -683.60323592457598

   => Energetics <=

    Nuclear Repulsion Energy =            824.2656154830955302
    One-Electron Energy =               -2576.8210576408660017
    Two-Electron Energy =                1068.9522062331943744
    Total Energy =                       -683.6032359245759835
  Basis Set: (AUG-CC-PVTZ AUX)
    Blend: AUG-CC-PVTZ-RI
    Molecular point group: c1

    Geometry (in Angstrom), charge = 0, multiplicity = 1:

       Center              X                  Y                   Z               Mass
    ------------   -----------------  -----------------  -----------------  -----------------
         O           -0.728659593808    -1.124041508003    -0.237903961800    15.994914619570
         O           -0.763303093808     2.560640791997     0.205922538200    15.994914619570
         O            1.975941906192     1.994040791997    -0.337878461800    15.994914619570
         O            2.901250906192    -0.659304208003     0.174361538200    15.994914619570
         O            0.905359906192    -2.711143208003    -0.062448461800    15.994914619570
         O           -3.424258093808    -0.872649208003     0.194703538200    15.994914619570
         C           -0.330920093808     1.267171791997    -0.233487461800    12.000000000000
         C            1.107054906192     1.018458791997     0.206056538200    12.000000000000
         C           -1.237720093808     0.140204791997     0.236071538200    12.000000000000
         C            1.571856906192    -0.366492208003    -0.217848461800    12.000000000000
         C            0.573875906192    -1.412774208003     0.291029538200    12.000000000000
         C           -2.656575093808     0.216781791997    -0.291689461800    12.000000000000
         H           -0.352524093808     1.317266791997    -1.327808461800     1.007825032230
         H            1.128577906192     1.058982791997     1.316434538200     1.007825032230
         H           -1.271805093808     0.117938791997     1.341306538200     1.007825032230
         H            1.571902906192    -0.411056208003    -1.314760461800     1.007825032230
         H            0.516133906192    -1.400135208003     1.391082538200     1.007825032230
         H           -2.619234093808     0.232466791997    -1.391235461800     1.007825032230
         H           -3.138580093808     1.135150791997     0.050242538200     1.007825032230
         H           -0.836829093808     2.526238791997     1.178509538200     1.007825032230
         H            1.496562906192     2.840389791997    -0.246183461800     1.007825032230
         H            2.992770906192    -0.438099208003     1.118227538200     1.007825032230
         H            1.243929906192    -2.697070208003    -0.975572461800     1.007825032230
         H           -2.901694093808    -1.667568208003    -0.019032461800     1.007825032230

  Basis Set: AUG-CC-PVTZ
    Blend: AUG-CC-PVTZ
  Basis Set: (AUG-CC-PVTZ AUX)
    Blend: AUG-CC-PVTZ-JKFIT
	 Reference Energy          =    -683.6032359245759835 [Eh]
	 Singles Energy            =      -0.0000000000000000 [Eh]
	 Same-Spin Energy          =      -0.6655209559656379 [Eh]
	 Opposite-Spin Energy      =      -2.0451744220942243 [Eh]
	 Correlation Energy        =      -2.7106953780598619 [Eh]
	 Total Energy              =    -686.3139313026358650 [Eh]

	 ================> DF-SCS-MP2 Energies <==================
	-----------------------------------------------------------
	 SCS Same-Spin Scale       =       0.3333333333333333 [-]
	 SCS Opposite-Spin Scale   =       1.2000000000000000 [-]
	 SCS Same-Spin Energy      =      -0.2218403186552126 [Eh]
	 SCS Opposite-Spin Energy  =      -2.4542093065130692 [Eh]
	 SCS Correlation Energy    =      -2.6760496251682819 [Eh]
	 SCS Total Energy          =    -686.2792855497442588 [Eh]
	-----------------------------------------------------------

  Dipole Moment: [D]
     X:     0.2377      Y:     1.6606      Z:     1.3537     Total:     2.1557

*** Psi4 exiting successfully. Buy a developer a beer!
