                               Psi4 1.3.2 release

  ==> Input File <==

--------------------------------------------------------------------------
#psi4
#
memory 32 gb

molecule  {
0 1
  O       -0.7087550    -1.1193400    -0.2546710
  O       -0.7529000     2.5454980     0.2011280
  O        1.9670535     1.9895476    -0.3538280
  O        2.9116540    -0.6744470     0.1695670
  O        0.9157630    -2.7262860    -0.0672430
  O       -3.4138550    -0.8877920     0.1899090
  C       -0.3205170     1.2520290    -0.2382820
  C        1.1174580     1.0033160     0.2012620
  C       -1.2273170     0.1250620     0.2312770
  C        1.5822600    -0.3816350    -0.2226430
  C        0.5842790    -1.4279170     0.2862350
  C       -2.6461720     0.2016390    -0.2964840
  H       -0.3421210     1.3021240    -1.3326030
  H        1.1389810     1.0438400     1.3116400
  H       -1.2614020     0.1027960     1.3365120
  H        1.5823060    -0.4261990    -1.3195550
  H        0.5265370    -1.4152780     1.3862880
  H       -2.6088310     0.2173240    -1.3960300
  H       -3.1281770     1.1200080     0.0454480
  H       -0.8264260     2.5110960     1.1737150
  H        1.5069660     2.8252470    -0.2509780
  H        3.0031740    -0.4532420     1.1134330
  H        1.2543330    -2.7122130    -0.9803670
  H       -2.8912910    -1.6827110    -0.0238270
units angstrom
no_reorient  #important for SAPT in psi4, default
symmetry c1  #important for SAPT in psi4, default
}

set PROPERTIES_ORIGIN ["COM"]
properties('MP2/aug-cc-pvtz', properties = ['dipole'])
--------------------------------------------------------------------------

    Molecular point group: c1
  Charge       = 0
  Multiplicity = 1
  Basis Set: AUG-CC-PVTZ
    Blend: AUG-CC-PVTZ
  Basis Set: (AUG-CC-PVTZ AUX)
    Blend: AUG-CC-PVTZ-JKFIT

    Orbital Energies [Eh]
    ---------------------

    Doubly Occupied:

       1A    -20.597870     2A    -20.588525     3A    -20.584052
       4A    -20.579619     5A    -20.575481     6A    -20.562509
       7A    -11.357242     8A    -11.310385     9A    -11.309591
      10A    -11.307588    11A    -11.305628    12A    -11.287026
      13A     -1.440316    14A     -1.405962    15A     -1.388069
      16A     -1.372910    17A     -1.367493    18A     -1.353063
      19A     -1.081321    20A     -1.051206    21A     -0.945993
      22A     -0.891888    23A     -0.854977    24A     -0.842243
      25A     -0.755015    26A     -0.730293    27A     -0.721509
      28A     -0.709778    29A     -0.693255    30A     -0.675319
      31A     -0.661253    32A     -0.656817    33A     -0.619923
      34A     -0.615499    35A     -0.597818    36A     -0.587485
      37A     -0.570158    38A     -0.562299    39A     -0.555886
      40A     -0.542844    41A     -0.527277    42A     -0.517019
      43A     -0.502884    44A     -0.487321    45A     -0.475251
      46A     -0.462020    47A     -0.446307    48A     -0.430970

  @DF-RHF Final Energy:  -683.60480926166201

   => Energetics <=

    Nuclear Repulsion Energy =            824.8173704057351188
    One-Electron Energy =               -2577.9140486208407310
    Two-Electron Energy =                1069.4918689534435998
    Total Energy =                       -683.6048092616620124
  Basis Set: (AUG-CC-PVTZ AUX)
    Blend: AUG-CC-PVTZ-RI
    Molecular point group: c1

    Geometry (in Angstrom), charge = 0, multiplicity = 1:

       Center              X                  Y                   Z               Mass
    ------------   -----------------  -----------------  -----------------  -----------------
         O           -0.718288454423    -1.106905961470    -0.247822060893    15.994914619570
         O           -0.762433454423     2.557932038530     0.207976939107    15.994914619570
         O            1.957520045577     2.001981638530    -0.346979060893    15.994914619570
         O            2.902120545577    -0.662012961470     0.176415939107    15.994914619570
         O            0.906229545577    -2.713851961470    -0.060394060893    15.994914619570
         O           -3.423388454423    -0.875357961470     0.196757939107    15.994914619570
         C           -0.330050454423     1.264463038530    -0.231433060893    12.000000000000
         C            1.107924545577     1.015750038530     0.208110939107    12.000000000000
         C           -1.236850454423     0.137496038530     0.238125939107    12.000000000000
         C            1.572726545577    -0.369200961470    -0.215794060893    12.000000000000
         C            0.574745545577    -1.415482961470     0.293083939107    12.000000000000
         C           -2.655705454423     0.214073038530    -0.289635060893    12.000000000000
         H           -0.351654454423     1.314558038530    -1.325754060893     1.007825032230
         H            1.129447545577     1.056274038530     1.318488939107     1.007825032230
         H           -1.270935454423     0.115230038530     1.343360939107     1.007825032230
         H            1.572772545577    -0.413764961470    -1.312706060893     1.007825032230
         H            0.517003545577    -1.402843961470     1.393136939107     1.007825032230
         H           -2.618364454423     0.229758038530    -1.389181060893     1.007825032230
         H           -3.137710454423     1.132442038530     0.052296939107     1.007825032230
         H           -0.835959454423     2.523530038530     1.180563939107     1.007825032230
         H            1.497432545577     2.837681038530    -0.244129060893     1.007825032230
         H            2.993640545577    -0.440807961470     1.120281939107     1.007825032230
         H            1.244799545577    -2.699778961470    -0.973518060893     1.007825032230
         H           -2.900824454423    -1.670276961470    -0.016978060893     1.007825032230

  Basis Set: AUG-CC-PVTZ
    Blend: AUG-CC-PVTZ
  Basis Set: (AUG-CC-PVTZ AUX)
    Blend: AUG-CC-PVTZ-JKFIT
	 Reference Energy          =    -683.6048092616620124 [Eh]
	 Singles Energy            =      -0.0000000000000000 [Eh]
	 Same-Spin Energy          =      -0.6651874185565805 [Eh]
	 Opposite-Spin Energy      =      -2.0442240276847974 [Eh]
	 Correlation Energy        =      -2.7094114462413779 [Eh]
	 Total Energy              =    -686.3142207079033597 [Eh]

	 ================> DF-SCS-MP2 Energies <==================
	-----------------------------------------------------------
	 SCS Same-Spin Scale       =       0.3333333333333333 [-]
	 SCS Opposite-Spin Scale   =       1.2000000000000000 [-]
	 SCS Same-Spin Energy      =      -0.2217291395188601 [Eh]
	 SCS Opposite-Spin Energy  =      -2.4530688332217570 [Eh]
	 SCS Correlation Energy    =      -2.6747979727406173 [Eh]
	 SCS Total Energy          =    -686.2796072344026470 [Eh]
	-----------------------------------------------------------

  Dipole Moment: [D]
     X:     0.2560      Y:     1.5807      Z:     1.3964     Total:     2.1247

*** Psi4 exiting successfully. Buy a developer a beer!
