                               Psi4 1.3.2 release

  ==> Input File <==

--------------------------------------------------------------------------
#psi4
#
memory 32 gb

molecule  {
0 1
  O       -0.7087550    -1.1193400    -0.2546710
  O       -0.7529000     2.5454980     0.2011280
  O        1.9863450     1.9788980    -0.3426730
  O        2.9116540    -0.6744470     0.1695670
  O        0.9157630    -2.7262860    -0.0672430
  O       -3.4138550    -0.8877920     0.1899090
  C       -0.3205170     1.2520290    -0.2382820
  C        1.0531047     1.0759352     0.2197422
  C       -1.2273170     0.1250620     0.2312770
  C        1.5822600    -0.3816350    -0.2226430
  C        0.5842790    -1.4279170     0.2862350
  C       -2.6461720     0.2016390    -0.2964840
  H       -0.3421210     1.3021240    -1.3326030
  H        1.1389810     1.0438400     1.3116400
  H       -1.2614020     0.1027960     1.3365120
  H        1.5823060    -0.4261990    -1.3195550
  H        0.5265370    -1.4152780     1.3862880
  H       -2.6088310     0.2173240    -1.3960300
  H       -3.1281770     1.1200080     0.0454480
  H       -0.8264260     2.5110960     1.1737150
  H        1.5069660     2.8252470    -0.2509780
  H        3.0031740    -0.4532420     1.1134330
  H        1.2543330    -2.7122130    -0.9803670
  H       -2.8912910    -1.6827110    -0.0238270
units angstrom
no_reorient  #important for SAPT in psi4, default
symmetry c1  #important for SAPT in psi4, default
}

set PROPERTIES_ORIGIN ["COM"]
properties('MP2/aug-cc-pvtz', properties = ['dipole'])
--------------------------------------------------------------------------

    Molecular point group: c1
  Charge       = 0
  Multiplicity = 1
  Basis Set: AUG-CC-PVTZ
    Blend: AUG-CC-PVTZ
  Basis Set: (AUG-CC-PVTZ AUX)
    Blend: AUG-CC-PVTZ-JKFIT

    Orbital Energies [Eh]
    ---------------------

    Doubly Occupied:

       1A    -20.595881     2A    -20.588101     3A    -20.581929
       4A    -20.580454     5A    -20.579796     6A    -20.563431
       7A    -11.354422     8A    -11.309654     9A    -11.308953
      10A    -11.307699    11A    -11.306264    12A    -11.288251
      13A     -1.439113    14A     -1.407783    15A     -1.386406
      16A     -1.372607    17A     -1.366938    18A     -1.352866
      19A     -1.083579    20A     -1.044699    21A     -0.951077
      22A     -0.883550    23A     -0.856939    24A     -0.843496
      25A     -0.751899    26A     -0.727060    27A     -0.725239
      28A     -0.709585    29A     -0.695670    30A     -0.675858
      31A     -0.659063    32A     -0.644249    33A     -0.622010
      34A     -0.616313    35A     -0.598362    36A     -0.587881
      37A     -0.575410    38A     -0.563598    39A     -0.555929
      40A     -0.542181    41A     -0.527287    42A     -0.515941
      43A     -0.500531    44A     -0.487076    45A     -0.473982
      46A     -0.461452    47A     -0.447382    48A     -0.427186

  @DF-RHF Final Energy:  -683.59359020093711

   => Energetics <=

    Nuclear Repulsion Energy =            824.4642305961262991
    One-Electron Energy =               -2577.2255776612278169
    Two-Electron Energy =                1069.1677568641644029
    Total Energy =                       -683.5935902009371148
  Basis Set: (AUG-CC-PVTZ AUX)
    Blend: AUG-CC-PVTZ-RI
    Molecular point group: c1

    Geometry (in Angstrom), charge = 0, multiplicity = 1:

       Center              X                  Y                   Z               Mass
    ------------   -----------------  -----------------  -----------------  -----------------
         O           -0.715713396220    -1.110799540085    -0.250044531973    15.994914619570
         O           -0.759858396220     2.554038459915     0.205754468027    15.994914619570
         O            1.979386603780     1.987438459915    -0.338046531973    15.994914619570
         O            2.904695603780    -0.665906540085     0.174193468027    15.994914619570
         O            0.908804603780    -2.717745540085    -0.062616531973    15.994914619570
         O           -3.420813396220    -0.879251540085     0.194535468027    15.994914619570
         C           -0.327475396220     1.260569459915    -0.233655531973    12.000000000000
         C            1.046146303780     1.084475659915     0.224368668027    12.000000000000
         C           -1.234275396220     0.133602459915     0.235903468027    12.000000000000
         C            1.575301603780    -0.373094540085    -0.218016531973    12.000000000000
         C            0.577320603780    -1.419376540085     0.290861468027    12.000000000000
         C           -2.653130396220     0.210179459915    -0.291857531973    12.000000000000
         H           -0.349079396220     1.310664459915    -1.327976531973     1.007825032230
         H            1.132022603780     1.052380459915     1.316266468027     1.007825032230
         H           -1.268360396220     0.111336459915     1.341138468027     1.007825032230
         H            1.575347603780    -0.417658540085    -1.314928531973     1.007825032230
         H            0.519578603780    -1.406737540085     1.390914468027     1.007825032230
         H           -2.615789396220     0.225864459915    -1.391403531973     1.007825032230
         H           -3.135135396220     1.128548459915     0.050074468027     1.007825032230
         H           -0.833384396220     2.519636459915     1.178341468027     1.007825032230
         H            1.500007603780     2.833787459915    -0.246351531973     1.007825032230
         H            2.996215603780    -0.444701540085     1.118059468027     1.007825032230
         H            1.247374603780    -2.703672540085    -0.975740531973     1.007825032230
         H           -2.898249396220    -1.674170540085    -0.019200531973     1.007825032230

  Basis Set: AUG-CC-PVTZ
    Blend: AUG-CC-PVTZ
  Basis Set: (AUG-CC-PVTZ AUX)
    Blend: AUG-CC-PVTZ-JKFIT
	 Reference Energy          =    -683.5935902009371148 [Eh]
	 Singles Energy            =      -0.0000000000000000 [Eh]
	 Same-Spin Energy          =      -0.6660055803064604 [Eh]
	 Opposite-Spin Energy      =      -2.0460984201203525 [Eh]
	 Correlation Energy        =      -2.7121040004268129 [Eh]
	 Total Energy              =    -686.3056942013639627 [Eh]

	 ================> DF-SCS-MP2 Energies <==================
	-----------------------------------------------------------
	 SCS Same-Spin Scale       =       0.3333333333333333 [-]
	 SCS Opposite-Spin Scale   =       1.2000000000000000 [-]
	 SCS Same-Spin Energy      =      -0.2220018601021534 [Eh]
	 SCS Opposite-Spin Energy  =      -2.4553181041444230 [Eh]
	 SCS Correlation Energy    =      -2.6773199642465766 [Eh]
	 SCS Total Energy          =    -686.2709101651836363 [Eh]
	-----------------------------------------------------------

  Dipole Moment: [D]
     X:     0.2261      Y:     1.6396      Z:     1.3784     Total:     2.1539

*** Psi4 exiting successfully. Buy a developer a beer!
