                               Psi4 1.3.2 release

  ==> Input File <==

--------------------------------------------------------------------------
#psi4
#
memory 32 gb

molecule  {
0 1
  O       -0.7087550    -1.1193400    -0.2546710
  O       -0.7529000     2.5454980     0.2011280
  O        1.9863450     1.9788980    -0.3426730
  O        2.9116540    -0.6744470     0.1695670
  O        0.9148524    -2.7129600    -0.1137353
  O       -3.4138550    -0.8877920     0.1899090
  C       -0.3205170     1.2520290    -0.2382820
  C        1.1174580     1.0033160     0.2012620
  C       -1.2273170     0.1250620     0.2312770
  C        1.5822600    -0.3816350    -0.2226430
  C        0.5842790    -1.4279170     0.2862350
  C       -2.6461720     0.2016390    -0.2964840
  H       -0.3421210     1.3021240    -1.3326030
  H        1.1389810     1.0438400     1.3116400
  H       -1.2614020     0.1027960     1.3365120
  H        1.5823060    -0.4261990    -1.3195550
  H        0.5265370    -1.4152780     1.3862880
  H       -2.6088310     0.2173240    -1.3960300
  H       -3.1281770     1.1200080     0.0454480
  H       -0.8264260     2.5110960     1.1737150
  H        1.5069660     2.8252470    -0.2509780
  H        3.0031740    -0.4532420     1.1134330
  H        1.2543330    -2.7122130    -0.9803670
  H       -2.8912910    -1.6827110    -0.0238270
units angstrom
no_reorient  #important for SAPT in psi4, default
symmetry c1  #important for SAPT in psi4, default
}

set PROPERTIES_ORIGIN ["COM"]
properties('MP2/aug-cc-pvtz', properties = ['dipole'])
--------------------------------------------------------------------------

    Molecular point group: c1
  Charge       = 0
  Multiplicity = 1
  Basis Set: AUG-CC-PVTZ
    Blend: AUG-CC-PVTZ
  Basis Set: (AUG-CC-PVTZ AUX)
    Blend: AUG-CC-PVTZ-JKFIT

    Orbital Energies [Eh]
    ---------------------

    Doubly Occupied:

       1A    -20.598222     2A    -20.588335     3A    -20.579297
       4A    -20.577911     5A    -20.577315     6A    -20.562669
       7A    -11.358185     8A    -11.310375     9A    -11.309409
      10A    -11.307790    11A    -11.304632    12A    -11.287211
      13A     -1.442934    14A     -1.405422    15A     -1.387954
      16A     -1.374973    17A     -1.366042    18A     -1.354581
      19A     -1.080794    20A     -1.052015    21A     -0.946895
      22A     -0.894813    23A     -0.855014    24A     -0.842309
      25A     -0.757092    26A     -0.730002    27A     -0.721157
      28A     -0.713569    29A     -0.692851    30A     -0.674727
      31A     -0.662003    32A     -0.657223    33A     -0.620208
      34A     -0.616373    35A     -0.597549    36A     -0.587548
      37A     -0.569381    38A     -0.562104    39A     -0.555854
      40A     -0.543216    41A     -0.528117    42A     -0.516506
      43A     -0.503147    44A     -0.487644    45A     -0.474246
      46A     -0.462114    47A     -0.446128    48A     -0.430898

  @DF-RHF Final Energy:  -683.60474732825810

   => Energetics <=

    Nuclear Repulsion Energy =            825.1466422028927354
    One-Electron Energy =               -2578.5532692341553229
    Two-Electron Energy =                1069.8018797030044880
    Total Energy =                       -683.6047473282580995
  Basis Set: (AUG-CC-PVTZ AUX)
    Blend: AUG-CC-PVTZ-RI
    Molecular point group: c1

    Geometry (in Angstrom), charge = 0, multiplicity = 1:

       Center              X                  Y                   Z               Mass
    ------------   -----------------  -----------------  -----------------  -----------------
         O           -0.719921217914    -1.107143704356    -0.244683071328    15.994914619570
         O           -0.764066217914     2.557694295644     0.211115928672    15.994914619570
         O            1.975178782086     1.991094295644    -0.332685071328    15.994914619570
         O            2.900487782086    -0.662250704356     0.179554928672    15.994914619570
         O            0.903686182086    -2.700763704356    -0.103747371328    15.994914619570
         O           -3.425021217914    -0.875595704356     0.199896928672    15.994914619570
         C           -0.331683217914     1.264225295644    -0.228294071328    12.000000000000
         C            1.106291782086     1.015512295644     0.211249928672    12.000000000000
         C           -1.238483217914     0.137258295644     0.241264928672    12.000000000000
         C            1.571093782086    -0.369438704356    -0.212655071328    12.000000000000
         C            0.573112782086    -1.415720704356     0.296222928672    12.000000000000
         C           -2.657338217914     0.213835295644    -0.286496071328    12.000000000000
         H           -0.353287217914     1.314320295644    -1.322615071328     1.007825032230
         H            1.127814782086     1.056036295644     1.321627928672     1.007825032230
         H           -1.272568217914     0.114992295644     1.346499928672     1.007825032230
         H            1.571139782086    -0.414002704356    -1.309567071328     1.007825032230
         H            0.515370782086    -1.403081704356     1.396275928672     1.007825032230
         H           -2.619997217914     0.229520295644    -1.386042071328     1.007825032230
         H           -3.139343217914     1.132204295644     0.055435928672     1.007825032230
         H           -0.837592217914     2.523292295644     1.183702928672     1.007825032230
         H            1.495799782086     2.837443295644    -0.240990071328     1.007825032230
         H            2.992007782086    -0.441045704356     1.123420928672     1.007825032230
         H            1.243166782086    -2.700016704356    -0.970379071328     1.007825032230
         H           -2.902457217914    -1.670514704356    -0.013839071328     1.007825032230

  Basis Set: AUG-CC-PVTZ
    Blend: AUG-CC-PVTZ
  Basis Set: (AUG-CC-PVTZ AUX)
    Blend: AUG-CC-PVTZ-JKFIT
	 Reference Energy          =    -683.6047473282580995 [Eh]
	 Singles Energy            =      -0.0000000000000000 [Eh]
	 Same-Spin Energy          =      -0.6648762314086232 [Eh]
	 Opposite-Spin Energy      =      -2.0433904876068194 [Eh]
	 Correlation Energy        =      -2.7082667190154428 [Eh]
	 Total Energy              =    -686.3130140472735548 [Eh]

	 ================> DF-SCS-MP2 Energies <==================
	-----------------------------------------------------------
	 SCS Same-Spin Scale       =       0.3333333333333333 [-]
	 SCS Opposite-Spin Scale   =       1.2000000000000000 [-]
	 SCS Same-Spin Energy      =      -0.2216254104695410 [Eh]
	 SCS Opposite-Spin Energy  =      -2.4520685851281834 [Eh]
	 SCS Correlation Energy    =      -2.6736939955977244 [Eh]
	 SCS Total Energy          =    -686.2784413238558727 [Eh]
	-----------------------------------------------------------

  Dipole Moment: [D]
     X:     0.2255      Y:     1.5948      Z:     1.4323     Total:     2.1553

*** Psi4 exiting successfully. Buy a developer a beer!
