                               Psi4 1.3.2 release

  ==> Input File <==

--------------------------------------------------------------------------
#psi4
#
memory 32 gb

molecule  {
0 1
  O       -0.7087550    -1.1193400    -0.2546710
  O       -0.7529000     2.5454980     0.2011280
  O        1.9863450     1.9788980    -0.3426730
  O        2.9116540    -0.6744470     0.1695670
  O        0.9157630    -2.7262860    -0.0672430
  O       -3.4138550    -0.8877920     0.1899090
  C       -0.3205170     1.2520290    -0.2382820
  C        1.1174580     1.0033160     0.2012620
  C       -1.1549444    -0.0486117     0.1634562
  C        1.5822600    -0.3816350    -0.2226430
  C        0.5842790    -1.4279170     0.2862350
  C       -2.6461720     0.2016390    -0.2964840
  H       -0.3421210     1.3021240    -1.3326030
  H        1.1389810     1.0438400     1.3116400
  H       -1.2614020     0.1027960     1.3365120
  H        1.5823060    -0.4261990    -1.3195550
  H        0.5265370    -1.4152780     1.3862880
  H       -2.6088310     0.2173240    -1.3960300
  H       -3.1281770     1.1200080     0.0454480
  H       -0.8264260     2.5110960     1.1737150
  H        1.5069660     2.8252470    -0.2509780
  H        3.0031740    -0.4532420     1.1134330
  H        1.2543330    -2.7122130    -0.9803670
  H       -2.8912910    -1.6827110    -0.0238270
units angstrom
no_reorient  #important for SAPT in psi4, default
symmetry c1  #important for SAPT in psi4, default
}

set PROPERTIES_ORIGIN ["COM"]
properties('MP2/aug-cc-pvtz', properties = ['dipole'])
--------------------------------------------------------------------------

    Molecular point group: c1
  Charge       = 0
  Multiplicity = 1
  Basis Set: AUG-CC-PVTZ
    Blend: AUG-CC-PVTZ
  Basis Set: (AUG-CC-PVTZ AUX)
    Blend: AUG-CC-PVTZ-JKFIT

    Orbital Energies [Eh]
    ---------------------

    Doubly Occupied:

       1A    -20.608637     2A    -20.597235     3A    -20.593523
       4A    -20.583907     5A    -20.573043     6A    -20.558426
       7A    -11.370775     8A    -11.311825     9A    -11.311041
      10A    -11.305880    11A    -11.302374    12A    -11.283793
      13A     -1.508975    14A     -1.405382    15A     -1.400674
      16A     -1.382101    17A     -1.364551    18A     -1.358428
      19A     -1.079100    20A     -1.044549    21A     -0.937530
      22A     -0.904510    23A     -0.856385    24A     -0.843230
      25A     -0.769435    26A     -0.743301    27A     -0.723093
      28A     -0.719500    29A     -0.704401    30A     -0.672003
      31A     -0.668553    32A     -0.659749    33A     -0.628388
      34A     -0.613951    35A     -0.596880    36A     -0.593009
      37A     -0.581513    38A     -0.563179    39A     -0.556802
      40A     -0.547366    41A     -0.539739    42A     -0.525597
      43A     -0.501032    44A     -0.483663    45A     -0.466097
      46A     -0.458428    47A     -0.426660    48A     -0.405728

  @DF-RHF Final Energy:  -683.56262518908932

   => Energetics <=

    Nuclear Repulsion Energy =            826.9296459220527140
    One-Electron Energy =               -2581.7166657875823148
    Two-Electron Energy =                1071.2243946764401699
    Total Energy =                       -683.5626251890894309
  Basis Set: (AUG-CC-PVTZ AUX)
    Blend: AUG-CC-PVTZ-RI
    Molecular point group: c1

    Geometry (in Angstrom), charge = 0, multiplicity = 1:

       Center              X                  Y                   Z               Mass
    ------------   -----------------  -----------------  -----------------  -----------------
         O           -0.724825247426    -1.094385793620    -0.244293157355    15.994914619570
         O           -0.768970247426     2.570452206380     0.211505842645    15.994914619570
         O            1.970274752574     2.003852206380    -0.332295157355    15.994914619570
         O            2.895583752574    -0.649492793620     0.179944842645    15.994914619570
         O            0.899692752574    -2.701331793620    -0.056865157355    15.994914619570
         O           -3.429925247426    -0.862837793620     0.200286842645    15.994914619570
         C           -0.336587247426     1.276983206380    -0.227904157355    12.000000000000
         C            1.101387752574     1.028270206380     0.211639842645    12.000000000000
         C           -1.171014647426    -0.023657493620     0.173834042645    12.000000000000
         C            1.566189752574    -0.356680793620    -0.212265157355    12.000000000000
         C            0.568208752574    -1.402962793620     0.296612842645    12.000000000000
         C           -2.662242247426     0.226593206380    -0.286106157355    12.000000000000
         H           -0.358191247426     1.327078206380    -1.322225157355     1.007825032230
         H            1.122910752574     1.068794206380     1.322017842645     1.007825032230
         H           -1.277472247426     0.127750206380     1.346889842645     1.007825032230
         H            1.566235752574    -0.401244793620    -1.309177157355     1.007825032230
         H            0.510466752574    -1.390323793620     1.396665842645     1.007825032230
         H           -2.624901247426     0.242278206380    -1.385652157355     1.007825032230
         H           -3.144247247426     1.144962206380     0.055825842645     1.007825032230
         H           -0.842496247426     2.536050206380     1.184092842645     1.007825032230
         H            1.490895752574     2.850201206380    -0.240600157355     1.007825032230
         H            2.987103752574    -0.428287793620     1.123810842645     1.007825032230
         H            1.238262752574    -2.687258793620    -0.969989157355     1.007825032230
         H           -2.907361247426    -1.657756793620    -0.013449157355     1.007825032230

  Basis Set: AUG-CC-PVTZ
    Blend: AUG-CC-PVTZ
  Basis Set: (AUG-CC-PVTZ AUX)
    Blend: AUG-CC-PVTZ-JKFIT
	 Reference Energy          =    -683.5626251890893172 [Eh]
	 Singles Energy            =      -0.0000000000000000 [Eh]
	 Same-Spin Energy          =      -0.6665187448901528 [Eh]
	 Opposite-Spin Energy      =      -2.0445778314898169 [Eh]
	 Correlation Energy        =      -2.7110965763799699 [Eh]
	 Total Energy              =    -686.2737217654693040 [Eh]

	 ================> DF-SCS-MP2 Energies <==================
	-----------------------------------------------------------
	 SCS Same-Spin Scale       =       0.3333333333333333 [-]
	 SCS Opposite-Spin Scale   =       1.2000000000000000 [-]
	 SCS Same-Spin Energy      =      -0.2221729149633843 [Eh]
	 SCS Opposite-Spin Energy  =      -2.4534933977877800 [Eh]
	 SCS Correlation Energy    =      -2.6756663127511642 [Eh]
	 SCS Total Energy          =    -686.2382915018405356 [Eh]
	-----------------------------------------------------------

  Dipole Moment: [D]
     X:     0.5861      Y:     0.9704      Z:     1.1296     Total:     1.6003

*** Psi4 exiting successfully. Buy a developer a beer!
