                               Psi4 1.3.2 release

  ==> Input File <==

--------------------------------------------------------------------------
#psi4
#
memory 32 gb

molecule  {
0 1
  O       -0.7597590    -1.2396031    -0.1804936
  O       -0.7529000     2.5454980     0.2011280
  O        1.9863450     1.9788980    -0.3426730
  O        2.9116540    -0.6744470     0.1695670
  O        0.9157630    -2.7262860    -0.0672430
  O       -3.4138550    -0.8877920     0.1899090
  C       -0.3205170     1.2520290    -0.2382820
  C        1.1174580     1.0033160     0.2012620
  C       -1.2273170     0.1250620     0.2312770
  C        1.5822600    -0.3816350    -0.2226430
  C        0.5842790    -1.4279170     0.2862350
  C       -2.6461720     0.2016390    -0.2964840
  H       -0.3421210     1.3021240    -1.3326030
  H        1.1389810     1.0438400     1.3116400
  H       -1.2614020     0.1027960     1.3365120
  H        1.5823060    -0.4261990    -1.3195550
  H        0.5265370    -1.4152780     1.3862880
  H       -2.6088310     0.2173240    -1.3960300
  H       -3.1281770     1.1200080     0.0454480
  H       -0.8264260     2.5110960     1.1737150
  H        1.5069660     2.8252470    -0.2509780
  H        3.0031740    -0.4532420     1.1134330
  H        1.2543330    -2.7122130    -0.9803670
  H       -2.8912910    -1.6827110    -0.0238270
units angstrom
no_reorient  #important for SAPT in psi4, default
symmetry c1  #important for SAPT in psi4, default
}

set PROPERTIES_ORIGIN ["COM"]
properties('MP2/aug-cc-pvtz', properties = ['dipole'])
--------------------------------------------------------------------------

    Molecular point group: c1
  Charge       = 0
  Multiplicity = 1
  Basis Set: AUG-CC-PVTZ
    Blend: AUG-CC-PVTZ
  Basis Set: (AUG-CC-PVTZ AUX)
    Blend: AUG-CC-PVTZ-JKFIT

    Orbital Energies [Eh]
    ---------------------

    Doubly Occupied:

       1A    -20.603824     2A    -20.589868     3A    -20.582494
       4A    -20.579269     5A    -20.578003     6A    -20.560951
       7A    -11.353627     8A    -11.316790     9A    -11.312670
      10A    -11.312068    11A    -11.308813    12A    -11.288546
      13A     -1.432378    14A     -1.408623    15A     -1.388798
      16A     -1.369947    17A     -1.366833    18A     -1.341865
      19A     -1.087597    20A     -1.046925    21A     -0.947454
      22A     -0.890860    23A     -0.855002    24A     -0.841219
      25A     -0.749745    26A     -0.727541    27A     -0.722722
      28A     -0.709782    29A     -0.690704    30A     -0.673541
      31A     -0.656271    32A     -0.653119    33A     -0.624066
      34A     -0.616081    35A     -0.597437    36A     -0.587387
      37A     -0.571953    38A     -0.563368    39A     -0.556900
      40A     -0.544283    41A     -0.522752    42A     -0.510584
      43A     -0.502404    44A     -0.487201    45A     -0.476573
      46A     -0.463645    47A     -0.445038    48A     -0.437314

  @DF-RHF Final Energy:  -683.59411153697363

   => Energetics <=

    Nuclear Repulsion Energy =            822.1985691769922369
    One-Electron Energy =               -2572.6756885892332321
    Two-Electron Energy =                1066.8830078752673671
    Total Energy =                       -683.5941115369735144
  Basis Set: (AUG-CC-PVTZ AUX)
    Blend: AUG-CC-PVTZ-RI
    Molecular point group: c1

    Geometry (in Angstrom), charge = 0, multiplicity = 1:

       Center              X                  Y                   Z               Mass
    ------------   -----------------  -----------------  -----------------  -----------------
         O           -0.766475453503    -1.215540170771    -0.181224682944    15.994914619570
         O           -0.759616453503     2.569560929229     0.200396917056    15.994914619570
         O            1.979628546497     2.002960929229    -0.343404082944    15.994914619570
         O            2.904937546497    -0.650384070771     0.168835917056    15.994914619570
         O            0.909046546497    -2.702223070771    -0.067974082944    15.994914619570
         O           -3.420571453503    -0.863729070771     0.189177917056    15.994914619570
         C           -0.327233453503     1.276091929229    -0.239013082944    12.000000000000
         C            1.110741546497     1.027378929229     0.200530917056    12.000000000000
         C           -1.234033453503     0.149124929229     0.230545917056    12.000000000000
         C            1.575543546497    -0.357572070771    -0.223374082944    12.000000000000
         C            0.577562546497    -1.403854070771     0.285503917056    12.000000000000
         C           -2.652888453503     0.225701929229    -0.297215082944    12.000000000000
         H           -0.348837453503     1.326186929229    -1.333334082944     1.007825032230
         H            1.132264546497     1.067902929229     1.310908917056     1.007825032230
         H           -1.268118453503     0.126858929229     1.335780917056     1.007825032230
         H            1.575589546497    -0.402136070771    -1.320286082944     1.007825032230
         H            0.519820546497    -1.391215070771     1.385556917056     1.007825032230
         H           -2.615547453503     0.241386929229    -1.396761082944     1.007825032230
         H           -3.134893453503     1.144070929229     0.044716917056     1.007825032230
         H           -0.833142453503     2.535158929229     1.172983917056     1.007825032230
         H            1.500249546497     2.849309929229    -0.251709082944     1.007825032230
         H            2.996457546497    -0.429179070771     1.112701917056     1.007825032230
         H            1.247616546497    -2.688150070771    -0.981098082944     1.007825032230
         H           -2.898007453503    -1.658648070771    -0.024558082944     1.007825032230

  Basis Set: AUG-CC-PVTZ
    Blend: AUG-CC-PVTZ
  Basis Set: (AUG-CC-PVTZ AUX)
    Blend: AUG-CC-PVTZ-JKFIT
	 Reference Energy          =    -683.5941115369736281 [Eh]
	 Singles Energy            =      -0.0000000000000000 [Eh]
	 Same-Spin Energy          =      -0.6661176112216423 [Eh]
	 Opposite-Spin Energy      =      -2.0473404105264770 [Eh]
	 Correlation Energy        =      -2.7134580217481190 [Eh]
	 Total Energy              =    -686.3075695587217524 [Eh]

	 ================> DF-SCS-MP2 Energies <==================
	-----------------------------------------------------------
	 SCS Same-Spin Scale       =       0.3333333333333333 [-]
	 SCS Opposite-Spin Scale   =       1.2000000000000000 [-]
	 SCS Same-Spin Energy      =      -0.2220392037405474 [Eh]
	 SCS Opposite-Spin Energy  =      -2.4568084926317724 [Eh]
	 SCS Correlation Energy    =      -2.6788476963723200 [Eh]
	 SCS Total Energy          =    -686.2729592333460005 [Eh]
	-----------------------------------------------------------

  Dipole Moment: [D]
     X:     0.3195      Y:     1.9629      Z:     1.2752     Total:     2.3624

*** Psi4 exiting successfully. Buy a developer a beer!
