                               Psi4 1.3.2 release

  ==> Input File <==

--------------------------------------------------------------------------
#psi4
#
memory 32 gb

molecule  {
0 1
  O       -0.7087550    -1.1193400    -0.2546710
  O       -0.7529000     2.5454980     0.2011280
  O        1.9863450     1.9788980    -0.3426730
  O        2.9116540    -0.6744470     0.1695670
  O        0.9157630    -2.7262860    -0.0672430
  O       -3.4138550    -0.8877920     0.1899090
  C       -0.3205170     1.2520290    -0.2382820
  C        1.1174580     1.0033160     0.2012620
  C       -1.1857283     0.1307656     0.2584768
  C        1.5822600    -0.3816350    -0.2226430
  C        0.5842790    -1.4279170     0.2862350
  C       -2.6461720     0.2016390    -0.2964840
  H       -0.3421210     1.3021240    -1.3326030
  H        1.1389810     1.0438400     1.3116400
  H       -1.2614020     0.1027960     1.3365120
  H        1.5823060    -0.4261990    -1.3195550
  H        0.5265370    -1.4152780     1.3862880
  H       -2.6088310     0.2173240    -1.3960300
  H       -3.1281770     1.1200080     0.0454480
  H       -0.8264260     2.5110960     1.1737150
  H        1.5069660     2.8252470    -0.2509780
  H        3.0031740    -0.4532420     1.1134330
  H        1.2543330    -2.7122130    -0.9803670
  H       -2.8912910    -1.6827110    -0.0238270
units angstrom
no_reorient  #important for SAPT in psi4, default
symmetry c1  #important for SAPT in psi4, default
}

set PROPERTIES_ORIGIN ["COM"]
properties('MP2/aug-cc-pvtz', properties = ['dipole'])
--------------------------------------------------------------------------

    Molecular point group: c1
  Charge       = 0
  Multiplicity = 1
  Basis Set: AUG-CC-PVTZ
    Blend: AUG-CC-PVTZ
  Basis Set: (AUG-CC-PVTZ AUX)
    Blend: AUG-CC-PVTZ-JKFIT

    Orbital Energies [Eh]
    ---------------------

    Doubly Occupied:

       1A    -20.598913     2A    -20.590243     3A    -20.583493
       4A    -20.579439     5A    -20.576877     6A    -20.562229
       7A    -11.356423     8A    -11.309879     9A    -11.308967
      10A    -11.306138    11A    -11.305255    12A    -11.288359
      13A     -1.441012    14A     -1.405455    15A     -1.387793
      16A     -1.371981    17A     -1.365647    18A     -1.353020
      19A     -1.083279    20A     -1.046854    21A     -0.941451
      22A     -0.891540    23A     -0.854817    24A     -0.845695
      25A     -0.753940    26A     -0.729565    27A     -0.721170
      28A     -0.711571    29A     -0.692633    30A     -0.673734
      31A     -0.659795    32A     -0.654834    33A     -0.620419
      34A     -0.614657    35A     -0.596875    36A     -0.586924
      37A     -0.569819    38A     -0.562019    39A     -0.556774
      40A     -0.544442    41A     -0.526981    42A     -0.517676
      43A     -0.506707    44A     -0.485587    45A     -0.475760
      46A     -0.462168    47A     -0.443156    48A     -0.429262

  @DF-RHF Final Energy:  -683.60095186916010

   => Energetics <=

    Nuclear Repulsion Energy =            824.8441404223551672
    One-Electron Energy =               -2577.9877285808784109
    Two-Electron Energy =                1069.5426362893631449
    Total Energy =                       -683.6009518691600988
  Basis Set: (AUG-CC-PVTZ AUX)
    Blend: AUG-CC-PVTZ-RI
    Molecular point group: c1

    Geometry (in Angstrom), charge = 0, multiplicity = 1:

       Center              X                  Y                   Z               Mass
    ------------   -----------------  -----------------  -----------------  -----------------
         O           -0.722773709887    -1.106340070515    -0.250625634001    15.994914619570
         O           -0.766918709887     2.558497929485     0.205173365999    15.994914619570
         O            1.972326290113     1.991897929485    -0.338627634001    15.994914619570
         O            2.897635290113    -0.661447070515     0.173612365999    15.994914619570
         O            0.901744290113    -2.713286070515    -0.063197634001    15.994914619570
         O           -3.427873709887    -0.874792070515     0.193954365999    15.994914619570
         C           -0.334535709887     1.265028929485    -0.234236634001    12.000000000000
         C            1.103439290113     1.016315929485     0.205307365999    12.000000000000
         C           -1.199747009887     0.143765529485     0.262522165999    12.000000000000
         C            1.568241290113    -0.368635070515    -0.218597634001    12.000000000000
         C            0.570260290113    -1.414917070515     0.290280365999    12.000000000000
         C           -2.660190709887     0.214638929485    -0.292438634001    12.000000000000
         H           -0.356139709887     1.315123929485    -1.328557634001     1.007825032230
         H            1.124962290113     1.056839929485     1.315685365999     1.007825032230
         H           -1.275420709887     0.115795929485     1.340557365999     1.007825032230
         H            1.568287290113    -0.413199070515    -1.315509634001     1.007825032230
         H            0.512518290113    -1.402278070515     1.390333365999     1.007825032230
         H           -2.622849709887     0.230323929485    -1.391984634001     1.007825032230
         H           -3.142195709887     1.133007929485     0.049493365999     1.007825032230
         H           -0.840444709887     2.524095929485     1.177760365999     1.007825032230
         H            1.492947290113     2.838246929485    -0.246932634001     1.007825032230
         H            2.989155290113    -0.440242070515     1.117478365999     1.007825032230
         H            1.240314290113    -2.699213070515    -0.976321634001     1.007825032230
         H           -2.905309709887    -1.669711070515    -0.019781634001     1.007825032230

  Basis Set: AUG-CC-PVTZ
    Blend: AUG-CC-PVTZ
  Basis Set: (AUG-CC-PVTZ AUX)
    Blend: AUG-CC-PVTZ-JKFIT
	 Reference Energy          =    -683.6009518691600988 [Eh]
	 Singles Energy            =      -0.0000000000000000 [Eh]
	 Same-Spin Energy          =      -0.6656009167224545 [Eh]
	 Opposite-Spin Energy      =      -2.0453491337610461 [Eh]
	 Correlation Energy        =      -2.7109500504835005 [Eh]
	 Total Energy              =    -686.3119019196435602 [Eh]

	 ================> DF-SCS-MP2 Energies <==================
	-----------------------------------------------------------
	 SCS Same-Spin Scale       =       0.3333333333333333 [-]
	 SCS Opposite-Spin Scale   =       1.2000000000000000 [-]
	 SCS Same-Spin Energy      =      -0.2218669722408181 [Eh]
	 SCS Opposite-Spin Energy  =      -2.4544189605132551 [Eh]
	 SCS Correlation Energy    =      -2.6762859327540731 [Eh]
	 SCS Total Energy          =    -686.2772378019142252 [Eh]
	-----------------------------------------------------------

  Dipole Moment: [D]
     X:     0.2380      Y:     1.5886      Z:     1.4002     Total:     2.1309

*** Psi4 exiting successfully. Buy a developer a beer!
