                               Psi4 1.3.2 release

  ==> Input File <==

--------------------------------------------------------------------------
#psi4
#
memory 32 gb

molecule  {
0 1
  O       -0.7087550    -1.1193400    -0.2546710
  O       -0.7529000     2.5454980     0.2011280
  O        1.9863450     1.9788980    -0.3426730
  O        2.9116540    -0.6744470     0.1695670
  O        0.9157630    -2.7262860    -0.0672430
  O       -3.4138550    -0.8877920     0.1899090
  C       -0.3205170     1.2520290    -0.2382820
  C        1.1174580     1.0033160     0.2012620
  C       -1.2676257     0.1254441     0.3290956
  C        1.5822600    -0.3816350    -0.2226430
  C        0.5842790    -1.4279170     0.2862350
  C       -2.6461720     0.2016390    -0.2964840
  H       -0.3421210     1.3021240    -1.3326030
  H        1.1389810     1.0438400     1.3116400
  H       -1.2614020     0.1027960     1.3365120
  H        1.5823060    -0.4261990    -1.3195550
  H        0.5265370    -1.4152780     1.3862880
  H       -2.6088310     0.2173240    -1.3960300
  H       -3.1281770     1.1200080     0.0454480
  H       -0.8264260     2.5110960     1.1737150
  H        1.5069660     2.8252470    -0.2509780
  H        3.0031740    -0.4532420     1.1134330
  H        1.2543330    -2.7122130    -0.9803670
  H       -2.8912910    -1.6827110    -0.0238270
units angstrom
no_reorient  #important for SAPT in psi4, default
symmetry c1  #important for SAPT in psi4, default
}

set PROPERTIES_ORIGIN ["COM"]
properties('MP2/aug-cc-pvtz', properties = ['dipole'])
--------------------------------------------------------------------------

    Molecular point group: c1
  Charge       = 0
  Multiplicity = 1
  Basis Set: AUG-CC-PVTZ
    Blend: AUG-CC-PVTZ
  Basis Set: (AUG-CC-PVTZ AUX)
    Blend: AUG-CC-PVTZ-JKFIT

    Orbital Energies [Eh]
    ---------------------

    Doubly Occupied:

       1A    -20.596107     2A    -20.583499     3A    -20.581118
       4A    -20.577669     5A    -20.577108     6A    -20.561359
       7A    -11.353571     8A    -11.313004     9A    -11.308751
      10A    -11.306081    11A    -11.303083    12A    -11.288744
      13A     -1.431494    14A     -1.403694    15A     -1.385076
      16A     -1.369982    17A     -1.364931    18A     -1.345982
      19A     -1.075372    20A     -1.048464    21A     -0.945063
      22A     -0.885567    23A     -0.859381    24A     -0.846882
      25A     -0.750172    26A     -0.730884    27A     -0.716989
      28A     -0.707187    29A     -0.687826    30A     -0.674784
      31A     -0.656183    32A     -0.653758    33A     -0.618047
      34A     -0.615492    35A     -0.597005    36A     -0.595283
      37A     -0.568033    38A     -0.560171    39A     -0.557531
      40A     -0.545056    41A     -0.520455    42A     -0.517887
      43A     -0.499973    44A     -0.484518    45A     -0.472608
      46A     -0.464643    47A     -0.446433    48A     -0.425630

  @DF-RHF Final Energy:  -683.59049242109381

   => Energetics <=

    Nuclear Repulsion Energy =            823.3307299356083604
    One-Electron Energy =               -2575.0853818208584016
    Two-Electron Energy =                1068.1641594641562278
    Total Energy =                       -683.5904924210938134
  Basis Set: (AUG-CC-PVTZ AUX)
    Blend: AUG-CC-PVTZ-RI
    Molecular point group: c1

    Geometry (in Angstrom), charge = 0, multiplicity = 1:

       Center              X                  Y                   Z               Mass
    ------------   -----------------  -----------------  -----------------  -----------------
         O           -0.717315805255    -1.105985428737    -0.255331896662    15.994914619570
         O           -0.761460805255     2.558852571263     0.200467103338    15.994914619570
         O            1.977784194745     1.992252571263    -0.343333896662    15.994914619570
         O            2.903093194745    -0.661092428737     0.168906103338    15.994914619570
         O            0.907202194745    -2.712931428737    -0.067903896662    15.994914619570
         O           -3.422415805255    -0.874437428737     0.189248103338    15.994914619570
         C           -0.329077805255     1.265383571263    -0.238942896662    12.000000000000
         C            1.108897194745     1.016670571263     0.200601103338    12.000000000000
         C           -1.276186505255     0.138798671263     0.328434703338    12.000000000000
         C            1.573699194745    -0.368280428737    -0.223303896662    12.000000000000
         C            0.575718194745    -1.414562428737     0.285574103338    12.000000000000
         C           -2.654732805255     0.214993571263    -0.297144896662    12.000000000000
         H           -0.350681805255     1.315478571263    -1.333263896662     1.007825032230
         H            1.130420194745     1.057194571263     1.310979103338     1.007825032230
         H           -1.269962805255     0.116150571263     1.335851103338     1.007825032230
         H            1.573745194745    -0.412844428737    -1.320215896662     1.007825032230
         H            0.517976194745    -1.401923428737     1.385627103338     1.007825032230
         H           -2.617391805255     0.230678571263    -1.396690896662     1.007825032230
         H           -3.136737805255     1.133362571263     0.044787103338     1.007825032230
         H           -0.834986805255     2.524450571263     1.173054103338     1.007825032230
         H            1.498405194745     2.838601571263    -0.251638896662     1.007825032230
         H            2.994613194745    -0.439887428737     1.112772103338     1.007825032230
         H            1.245772194745    -2.698858428737    -0.981027896662     1.007825032230
         H           -2.899851805255    -1.669356428737    -0.024487896662     1.007825032230

  Basis Set: AUG-CC-PVTZ
    Blend: AUG-CC-PVTZ
  Basis Set: (AUG-CC-PVTZ AUX)
    Blend: AUG-CC-PVTZ-JKFIT
	 Reference Energy          =    -683.5904924210938134 [Eh]
	 Singles Energy            =      -0.0000000000000000 [Eh]
	 Same-Spin Energy          =      -0.6652762952198721 [Eh]
	 Opposite-Spin Energy      =      -2.0458734058622174 [Eh]
	 Correlation Energy        =      -2.7111497010820895 [Eh]
	 Total Energy              =    -686.3016421221758492 [Eh]

	 ================> DF-SCS-MP2 Energies <==================
	-----------------------------------------------------------
	 SCS Same-Spin Scale       =       0.3333333333333333 [-]
	 SCS Opposite-Spin Scale   =       1.2000000000000000 [-]
	 SCS Same-Spin Energy      =      -0.2217587650732907 [Eh]
	 SCS Opposite-Spin Energy  =      -2.4550480870346609 [Eh]
	 SCS Correlation Energy    =      -2.6768068521079518 [Eh]
	 SCS Total Energy          =    -686.2672992732017292 [Eh]
	-----------------------------------------------------------

  Dipole Moment: [D]
     X:     0.0873      Y:     1.6887      Z:     1.4893     Total:     2.2533

*** Psi4 exiting successfully. Buy a developer a beer!
