                               Psi4 1.3.2 release

  ==> Input File <==

--------------------------------------------------------------------------
#psi4
#
memory 32 gb

molecule  {
0 1
  O       -0.7087550    -1.1193400    -0.2546710
  O       -0.7529000     2.5454980     0.2011280
  O        1.9863450     1.9788980    -0.3426730
  O        2.9116540    -0.6744470     0.1695670
  O        0.9157630    -2.7262860    -0.0672430
  O       -3.4138550    -0.8877920     0.1899090
  C       -0.3205170     1.2520290    -0.2382820
  C        1.1174580     1.0033160     0.2012620
  C       -1.3085491     0.1091152     0.1751351
  C        1.5822600    -0.3816350    -0.2226430
  C        0.5842790    -1.4279170     0.2862350
  C       -2.6461720     0.2016390    -0.2964840
  H       -0.3421210     1.3021240    -1.3326030
  H        1.1389810     1.0438400     1.3116400
  H       -1.2614020     0.1027960     1.3365120
  H        1.5823060    -0.4261990    -1.3195550
  H        0.5265370    -1.4152780     1.3862880
  H       -2.6088310     0.2173240    -1.3960300
  H       -3.1281770     1.1200080     0.0454480
  H       -0.8264260     2.5110960     1.1737150
  H        1.5069660     2.8252470    -0.2509780
  H        3.0031740    -0.4532420     1.1134330
  H        1.2543330    -2.7122130    -0.9803670
  H       -2.8912910    -1.6827110    -0.0238270
units angstrom
no_reorient  #important for SAPT in psi4, default
symmetry c1  #important for SAPT in psi4, default
}

set PROPERTIES_ORIGIN ["COM"]
properties('MP2/aug-cc-pvtz', properties = ['dipole'])
--------------------------------------------------------------------------

    Molecular point group: c1
  Charge       = 0
  Multiplicity = 1
  Basis Set: AUG-CC-PVTZ
    Blend: AUG-CC-PVTZ
  Basis Set: (AUG-CC-PVTZ AUX)
    Blend: AUG-CC-PVTZ-JKFIT

    Orbital Energies [Eh]
    ---------------------

    Doubly Occupied:

       1A    -20.597141     2A    -20.585583     3A    -20.584520
       4A    -20.579003     5A    -20.578498     6A    -20.564052
       7A    -11.358303     8A    -11.313033     9A    -11.312188
      10A    -11.311072    11A    -11.304929    12A    -11.284669
      13A     -1.438953    14A     -1.404279    15A     -1.387965
      16A     -1.374868    17A     -1.366261    18A     -1.353216
      19A     -1.078109    20A     -1.061953    21A     -0.955023
      22A     -0.890531    23A     -0.854053    24A     -0.835055
      25A     -0.754652    26A     -0.730238    27A     -0.720944
      28A     -0.707719    29A     -0.696547    30A     -0.678498
      31A     -0.661410    32A     -0.655172    33A     -0.620444
      34A     -0.615848    35A     -0.601048    36A     -0.587284
      37A     -0.571275    38A     -0.562212    39A     -0.555818
      40A     -0.542627    41A     -0.529872    42A     -0.511997
      43A     -0.498251    44A     -0.487991    45A     -0.470620
      46A     -0.460521    47A     -0.453124    48A     -0.427538

  @DF-RHF Final Energy:  -683.59203436747953

   => Energetics <=

    Nuclear Repulsion Energy =            824.3830656814897111
    One-Electron Energy =               -2577.0003860423926199
    Two-Electron Energy =                1069.0252859934232674
    Total Energy =                       -683.5920343674795276
  Basis Set: (AUG-CC-PVTZ AUX)
    Blend: AUG-CC-PVTZ-RI
    Molecular point group: c1

    Geometry (in Angstrom), charge = 0, multiplicity = 1:

       Center              X                  Y                   Z               Mass
    ------------   -----------------  -----------------  -----------------  -----------------
         O           -0.714588539012    -1.104897218624    -0.245071476598    15.994914619570
         O           -0.758733539012     2.559940781376     0.210727523402    15.994914619570
         O            1.980511460988     1.993340781376    -0.333073476598    15.994914619570
         O            2.905820460988    -0.660004218624     0.179166523402    15.994914619570
         O            0.909929460988    -2.711843218624    -0.057643476598    15.994914619570
         O           -3.419688539012    -0.873349218624     0.199508523402    15.994914619570
         C           -0.326350539012     1.266471781376    -0.228682476598    12.000000000000
         C            1.111624460988     1.017758781376     0.210861523402    12.000000000000
         C           -1.314382639012     0.123557981376     0.184734623402    12.000000000000
         C            1.576426460988    -0.367192218624    -0.213043476598    12.000000000000
         C            0.578445460988    -1.413474218624     0.295834523402    12.000000000000
         C           -2.652005539012     0.216081781376    -0.286884476598    12.000000000000
         H           -0.347954539012     1.316566781376    -1.323003476598     1.007825032230
         H            1.133147460988     1.058282781376     1.321239523402     1.007825032230
         H           -1.267235539012     0.117238781376     1.346111523402     1.007825032230
         H            1.576472460988    -0.411756218624    -1.309955476598     1.007825032230
         H            0.520703460988    -1.400835218624     1.395887523402     1.007825032230
         H           -2.614664539012     0.231766781376    -1.386430476598     1.007825032230
         H           -3.134010539012     1.134450781376     0.055047523402     1.007825032230
         H           -0.832259539012     2.525538781376     1.183314523402     1.007825032230
         H            1.501132460988     2.839689781376    -0.241378476598     1.007825032230
         H            2.997340460988    -0.438799218624     1.123032523402     1.007825032230
         H            1.248499460988    -2.697770218624    -0.970767476598     1.007825032230
         H           -2.897124539012    -1.668268218624    -0.014227476598     1.007825032230

  Basis Set: AUG-CC-PVTZ
    Blend: AUG-CC-PVTZ
  Basis Set: (AUG-CC-PVTZ AUX)
    Blend: AUG-CC-PVTZ-JKFIT
	 Reference Energy          =    -683.5920343674795276 [Eh]
	 Singles Energy            =      -0.0000000000000000 [Eh]
	 Same-Spin Energy          =      -0.6659888834186629 [Eh]
	 Opposite-Spin Energy      =      -2.0453673574681233 [Eh]
	 Correlation Energy        =      -2.7113562408867864 [Eh]
	 Total Energy              =    -686.3033906083662714 [Eh]

	 ================> DF-SCS-MP2 Energies <==================
	-----------------------------------------------------------
	 SCS Same-Spin Scale       =       0.3333333333333333 [-]
	 SCS Opposite-Spin Scale   =       1.2000000000000000 [-]
	 SCS Same-Spin Energy      =      -0.2219962944728876 [Eh]
	 SCS Opposite-Spin Energy  =      -2.4544408289617476 [Eh]
	 SCS Correlation Energy    =      -2.6764371234346354 [Eh]
	 SCS Total Energy          =    -686.2684714909141803 [Eh]
	-----------------------------------------------------------

  Dipole Moment: [D]
     X:     0.1595      Y:     1.6109      Z:     1.2850     Total:     2.0667

*** Psi4 exiting successfully. Buy a developer a beer!
