                               Psi4 1.3.2 release

  ==> Input File <==

--------------------------------------------------------------------------
#psi4
#
memory 32 gb

molecule  {
0 1
  O       -0.7087550    -1.1193400    -0.2546710
  O       -0.7529000     2.5454980     0.2011280
  O        1.9863450     1.9788980    -0.3426730
  O        2.9116540    -0.6744470     0.1695670
  O        0.9157630    -2.7262860    -0.0672430
  O       -3.4138550    -0.8877920     0.1899090
  C       -0.3205170     1.2520290    -0.2382820
  C        1.1174580     1.0033160     0.2012620
  C       -1.2273170     0.1250620     0.2312770
  C        1.5685585    -0.3513041    -0.3234648
  C        0.5842790    -1.4279170     0.2862350
  C       -2.6461720     0.2016390    -0.2964840
  H       -0.3421210     1.3021240    -1.3326030
  H        1.1389810     1.0438400     1.3116400
  H       -1.2614020     0.1027960     1.3365120
  H        1.5823060    -0.4261990    -1.3195550
  H        0.5265370    -1.4152780     1.3862880
  H       -2.6088310     0.2173240    -1.3960300
  H       -3.1281770     1.1200080     0.0454480
  H       -0.8264260     2.5110960     1.1737150
  H        1.5069660     2.8252470    -0.2509780
  H        3.0031740    -0.4532420     1.1134330
  H        1.2543330    -2.7122130    -0.9803670
  H       -2.8912910    -1.6827110    -0.0238270
units angstrom
no_reorient  #important for SAPT in psi4, default
symmetry c1  #important for SAPT in psi4, default
}

set PROPERTIES_ORIGIN ["COM"]
properties('MP2/aug-cc-pvtz', properties = ['dipole'])
--------------------------------------------------------------------------

    Molecular point group: c1
  Charge       = 0
  Multiplicity = 1
  Basis Set: AUG-CC-PVTZ
    Blend: AUG-CC-PVTZ
  Basis Set: (AUG-CC-PVTZ AUX)
    Blend: AUG-CC-PVTZ-JKFIT

    Orbital Energies [Eh]
    ---------------------

    Doubly Occupied:

       1A    -20.598536     2A    -20.586625     3A    -20.583652
       4A    -20.576623     5A    -20.569723     6A    -20.562792
       7A    -11.359369     8A    -11.311027     9A    -11.310139
      10A    -11.308126    11A    -11.302973    12A    -11.287485
      13A     -1.438669    14A     -1.405149    15A     -1.380095
      16A     -1.372540    17A     -1.354122    18A     -1.349734
      19A     -1.081761    20A     -1.049252    21A     -0.944433
      22A     -0.891731    23A     -0.859732    24A     -0.843895
      25A     -0.753494    26A     -0.725741    27A     -0.717873
      28A     -0.708847    29A     -0.694981    30A     -0.672505
      31A     -0.658354    32A     -0.649997    33A     -0.621268
      34A     -0.617153    35A     -0.599758    36A     -0.588387
      37A     -0.569665    38A     -0.566581    39A     -0.552840
      40A     -0.543306    41A     -0.526879    42A     -0.513465
      43A     -0.506054    44A     -0.486402    45A     -0.477847
      46A     -0.460714    47A     -0.444142    48A     -0.424893

  @DF-RHF Final Energy:  -683.59023266176337

   => Energetics <=

    Nuclear Repulsion Energy =            823.9985274833904896
    One-Electron Energy =               -2576.3588598625783561
    Two-Electron Energy =                1068.7700997174245003
    Total Energy =                       -683.5902326617633662
  Basis Set: (AUG-CC-PVTZ AUX)
    Blend: AUG-CC-PVTZ-RI
    Molecular point group: c1

    Geometry (in Angstrom), charge = 0, multiplicity = 1:

       Center              X                  Y                   Z               Mass
    ------------   -----------------  -----------------  -----------------  -----------------
         O           -0.719088994149    -1.107981312541    -0.242093865182    15.994914619570
         O           -0.763233994149     2.556856687459     0.213705134818    15.994914619570
         O            1.976011005851     1.990256687459    -0.330095865182    15.994914619570
         O            2.901320005851    -0.663088312541     0.182144134818    15.994914619570
         O            0.905429005851    -2.714927312541    -0.054665865182    15.994914619570
         O           -3.424188994149    -0.876433312541     0.202486134818    15.994914619570
         C           -0.330850994149     1.263387687459    -0.225704865182    12.000000000000
         C            1.107124005851     1.014674687459     0.213839134818    12.000000000000
         C           -1.237650994149     0.136420687459     0.243854134818    12.000000000000
         C            1.558224505851    -0.339945412541    -0.310887665182    12.000000000000
         C            0.573945005851    -1.416558312541     0.298812134818    12.000000000000
         C           -2.656505994149     0.212997687459    -0.283906865182    12.000000000000
         H           -0.352454994149     1.313482687459    -1.320025865182     1.007825032230
         H            1.128647005851     1.055198687459     1.324217134818     1.007825032230
         H           -1.271735994149     0.114154687459     1.349089134818     1.007825032230
         H            1.571972005851    -0.414840312541    -1.306977865182     1.007825032230
         H            0.516203005851    -1.403919312541     1.398865134818     1.007825032230
         H           -2.619164994149     0.228682687459    -1.383452865182     1.007825032230
         H           -3.138510994149     1.131366687459     0.058025134818     1.007825032230
         H           -0.836759994149     2.522454687459     1.186292134818     1.007825032230
         H            1.496632005851     2.836605687459    -0.238400865182     1.007825032230
         H            2.992840005851    -0.441883312541     1.126010134818     1.007825032230
         H            1.243999005851    -2.700854312541    -0.967789865182     1.007825032230
         H           -2.901624994149    -1.671352312541    -0.011249865182     1.007825032230

  Basis Set: AUG-CC-PVTZ
    Blend: AUG-CC-PVTZ
  Basis Set: (AUG-CC-PVTZ AUX)
    Blend: AUG-CC-PVTZ-JKFIT
	 Reference Energy          =    -683.5902326617633662 [Eh]
	 Singles Energy            =      -0.0000000000000000 [Eh]
	 Same-Spin Energy          =      -0.6651713314995362 [Eh]
	 Opposite-Spin Energy      =      -2.0454538510815383 [Eh]
	 Correlation Energy        =      -2.7106251825810745 [Eh]
	 Total Energy              =    -686.3008578443444776 [Eh]

	 ================> DF-SCS-MP2 Energies <==================
	-----------------------------------------------------------
	 SCS Same-Spin Scale       =       0.3333333333333333 [-]
	 SCS Opposite-Spin Scale   =       1.2000000000000000 [-]
	 SCS Same-Spin Energy      =      -0.2217237771665121 [Eh]
	 SCS Opposite-Spin Energy  =      -2.4545446212978459 [Eh]
	 SCS Correlation Energy    =      -2.6762683984643578 [Eh]
	 SCS Total Energy          =    -686.2665010602277107 [Eh]
	-----------------------------------------------------------

  Dipole Moment: [D]
     X:     0.0585      Y:     1.6161      Z:     1.2640     Total:     2.0525

*** Psi4 exiting successfully. Buy a developer a beer!
