                               Psi4 1.3.2 release

  ==> Input File <==

--------------------------------------------------------------------------
#psi4
#
memory 32 gb

molecule  {
0 1
  O       -0.7087550    -1.1193400    -0.2546710
  O       -0.7529000     2.5454980     0.2011280
  O        1.9863450     1.9788980    -0.3426730
  O        2.9116540    -0.6744470     0.1695670
  O        0.9157630    -2.7262860    -0.0672430
  O       -3.4138550    -0.8877920     0.1899090
  C       -0.3205170     1.2520290    -0.2382820
  C        1.1174580     1.0033160     0.2012620
  C       -1.2273170     0.1250620     0.2312770
  C        1.3945767    -0.3402959    -0.2780150
  C        0.5842790    -1.4279170     0.2862350
  C       -2.6461720     0.2016390    -0.2964840
  H       -0.3421210     1.3021240    -1.3326030
  H        1.1389810     1.0438400     1.3116400
  H       -1.2614020     0.1027960     1.3365120
  H        1.5823060    -0.4261990    -1.3195550
  H        0.5265370    -1.4152780     1.3862880
  H       -2.6088310     0.2173240    -1.3960300
  H       -3.1281770     1.1200080     0.0454480
  H       -0.8264260     2.5110960     1.1737150
  H        1.5069660     2.8252470    -0.2509780
  H        3.0031740    -0.4532420     1.1134330
  H        1.2543330    -2.7122130    -0.9803670
  H       -2.8912910    -1.6827110    -0.0238270
units angstrom
no_reorient  #important for SAPT in psi4, default
symmetry c1  #important for SAPT in psi4, default
}

set PROPERTIES_ORIGIN ["COM"]
properties('MP2/aug-cc-pvtz', properties = ['dipole'])
--------------------------------------------------------------------------

    Molecular point group: c1
  Charge       = 0
  Multiplicity = 1
  Basis Set: AUG-CC-PVTZ
    Blend: AUG-CC-PVTZ
  Basis Set: (AUG-CC-PVTZ AUX)
    Blend: AUG-CC-PVTZ-JKFIT

    Orbital Energies [Eh]
    ---------------------

    Doubly Occupied:

       1A    -20.600036     2A    -20.590478     3A    -20.589701
       4A    -20.582403     5A    -20.565237     6A    -20.553539
       7A    -11.364219     8A    -11.315155     9A    -11.313415
      10A    -11.312028    11A    -11.310122    12A    -11.290463
      13A     -1.447296    14A     -1.408195    15A     -1.380916
      16A     -1.376435    17A     -1.357550    18A     -1.310059
      19A     -1.103223    20A     -1.064351    21A     -0.952784
      22A     -0.899255    23A     -0.856778    24A     -0.848575
      25A     -0.762070    26A     -0.731520    27A     -0.714847
      28A     -0.710256    29A     -0.703328    30A     -0.668118
      31A     -0.664521    32A     -0.650362    33A     -0.618848
      34A     -0.612185    35A     -0.598598    36A     -0.584843
      37A     -0.572105    38A     -0.557149    39A     -0.547253
      40A     -0.543032    41A     -0.528538    42A     -0.509336
      43A     -0.504057    44A     -0.488926    45A     -0.483109
      46A     -0.462189    47A     -0.454642    48A     -0.431494

  @DF-RHF Final Energy:  -683.56725018999828

   => Energetics <=

    Nuclear Repulsion Energy =            826.2219170254220444
    One-Electron Energy =               -2580.5912628386931829
    Two-Electron Energy =                1070.8020956232728622
    Total Energy =                       -683.5672501899982763
  Basis Set: (AUG-CC-PVTZ AUX)
    Blend: AUG-CC-PVTZ-RI
    Molecular point group: c1

    Geometry (in Angstrom), charge = 0, multiplicity = 1:

       Center              X                  Y                   Z               Mass
    ------------   -----------------  -----------------  -----------------  -----------------
         O           -0.707494290628    -1.108714934192    -0.245122785196    15.994914619570
         O           -0.751639290628     2.556123065808     0.210676214804    15.994914619570
         O            1.987605709372     1.989523065808    -0.333124785196    15.994914619570
         O            2.912914709372    -0.663821934192     0.179115214804    15.994914619570
         O            0.917023709372    -2.715660934192    -0.057694785196    15.994914619570
         O           -3.412594290628    -0.877166934192     0.199457214804    15.994914619570
         C           -0.319256290628     1.262654065808    -0.228733785196    12.000000000000
         C            1.118718709372     1.013941065808     0.210810214804    12.000000000000
         C           -1.226056290628     0.135687065808     0.240825214804    12.000000000000
         C            1.395837409372    -0.329670834192    -0.268466785196    12.000000000000
         C            0.585539709372    -1.417291934192     0.295783214804    12.000000000000
         C           -2.644911290628     0.212264065808    -0.286935785196    12.000000000000
         H           -0.340860290628     1.312749065808    -1.323054785196     1.007825032230
         H            1.140241709372     1.054465065808     1.321188214804     1.007825032230
         H           -1.260141290628     0.113421065808     1.346060214804     1.007825032230
         H            1.583566709372    -0.415573934192    -1.310006785196     1.007825032230
         H            0.527797709372    -1.404652934192     1.395836214804     1.007825032230
         H           -2.607570290628     0.227949065808    -1.386481785196     1.007825032230
         H           -3.126916290628     1.130633065808     0.054996214804     1.007825032230
         H           -0.825165290628     2.521721065808     1.183263214804     1.007825032230
         H            1.508226709372     2.835872065808    -0.241429785196     1.007825032230
         H            3.004434709372    -0.442616934192     1.122981214804     1.007825032230
         H            1.255593709372    -2.701587934192    -0.970818785196     1.007825032230
         H           -2.890030290628    -1.672085934192    -0.014278785196     1.007825032230

  Basis Set: AUG-CC-PVTZ
    Blend: AUG-CC-PVTZ
  Basis Set: (AUG-CC-PVTZ AUX)
    Blend: AUG-CC-PVTZ-JKFIT
	 Reference Energy          =    -683.5672501899982763 [Eh]
	 Singles Energy            =      -0.0000000000000000 [Eh]
	 Same-Spin Energy          =      -0.6679182288447629 [Eh]
	 Opposite-Spin Energy      =      -2.0507397659251301 [Eh]
	 Correlation Energy        =      -2.7186579947698930 [Eh]
	 Total Energy              =    -686.2859081847681182 [Eh]

	 ================> DF-SCS-MP2 Energies <==================
	-----------------------------------------------------------
	 SCS Same-Spin Scale       =       0.3333333333333333 [-]
	 SCS Opposite-Spin Scale   =       1.2000000000000000 [-]
	 SCS Same-Spin Energy      =      -0.2226394096149210 [Eh]
	 SCS Opposite-Spin Energy  =      -2.4608877191101559 [Eh]
	 SCS Correlation Energy    =      -2.6835271287250770 [Eh]
	 SCS Total Energy          =    -686.2507773187234079 [Eh]
	-----------------------------------------------------------

  Dipole Moment: [D]
     X:    -0.4510      Y:     1.6895      Z:     1.2059     Total:     2.1242

*** Psi4 exiting successfully. Buy a developer a beer!
