                               Psi4 1.3.2 release

  ==> Input File <==

--------------------------------------------------------------------------
#psi4
#
memory 32 gb

molecule  {
0 1
  O       -0.7087550    -1.1193400    -0.2546710
  O       -0.7529000     2.5454980     0.2011280
  O        1.9863450     1.9788980    -0.3426730
  O        2.9116540    -0.6744470     0.1695670
  O        0.9157630    -2.7262860    -0.0672430
  O       -3.2913793    -0.9321360     0.2612230
  C       -0.3205170     1.2520290    -0.2382820
  C        1.1174580     1.0033160     0.2012620
  C       -1.2273170     0.1250620     0.2312770
  C        1.5822600    -0.3816350    -0.2226430
  C        0.5842790    -1.4279170     0.2862350
  C       -2.6461720     0.2016390    -0.2964840
  H       -0.3421210     1.3021240    -1.3326030
  H        1.1389810     1.0438400     1.3116400
  H       -1.2614020     0.1027960     1.3365120
  H        1.5823060    -0.4261990    -1.3195550
  H        0.5265370    -1.4152780     1.3862880
  H       -2.6088310     0.2173240    -1.3960300
  H       -3.1281770     1.1200080     0.0454480
  H       -0.8264260     2.5110960     1.1737150
  H        1.5069660     2.8252470    -0.2509780
  H        3.0031740    -0.4532420     1.1134330
  H        1.2543330    -2.7122130    -0.9803670
  H       -2.8912910    -1.6827110    -0.0238270
units angstrom
no_reorient  #important for SAPT in psi4, default
symmetry c1  #important for SAPT in psi4, default
}

set PROPERTIES_ORIGIN ["COM"]
properties('MP2/aug-cc-pvtz', properties = ['dipole'])
--------------------------------------------------------------------------

    Molecular point group: c1
  Charge       = 0
  Multiplicity = 1
  Basis Set: AUG-CC-PVTZ
    Blend: AUG-CC-PVTZ
  Basis Set: (AUG-CC-PVTZ AUX)
    Blend: AUG-CC-PVTZ-JKFIT

    Orbital Energies [Eh]
    ---------------------

    Doubly Occupied:

       1A    -20.597221     2A    -20.585455     3A    -20.582235
       4A    -20.577841     5A    -20.575891     6A    -20.553133
       7A    -11.354965     8A    -11.308026     9A    -11.307300
      10A    -11.304285    11A    -11.303436    12A    -11.290230
      13A     -1.438646    14A     -1.403692    15A     -1.389654
      16A     -1.380044    17A     -1.365181    18A     -1.355851
      19A     -1.079190    20A     -1.050729    21A     -0.949785
      22A     -0.889536    23A     -0.856393    24A     -0.841177
      25A     -0.753288    26A     -0.730406    27A     -0.721684
      28A     -0.711899    29A     -0.696890    30A     -0.672648
      31A     -0.664789    32A     -0.654180    33A     -0.619295
      34A     -0.613867    35A     -0.604429    36A     -0.586113
      37A     -0.569412    38A     -0.559434    39A     -0.554141
      40A     -0.542267    41A     -0.524158    42A     -0.515353
      43A     -0.500534    44A     -0.488823    45A     -0.472554
      46A     -0.465736    47A     -0.443136    48A     -0.428097

  @DF-RHF Final Energy:  -683.59955359173887

   => Energetics <=

    Nuclear Repulsion Energy =            827.0852611580853591
    One-Electron Energy =               -2582.5035779650074801
    Two-Electron Energy =                1071.8187632151832531
    Total Energy =                       -683.5995535917388679
  Basis Set: (AUG-CC-PVTZ AUX)
    Blend: AUG-CC-PVTZ-RI
    Molecular point group: c1

    Geometry (in Angstrom), charge = 0, multiplicity = 1:

       Center              X                  Y                   Z               Mass
    ------------   -----------------  -----------------  -----------------  -----------------
         O           -0.730881543355    -1.102020915455    -0.255147728969    15.994914619570
         O           -0.775026543355     2.562817084545     0.200651271031    15.994914619570
         O            1.964218456645     1.996217084545    -0.343149728969    15.994914619570
         O            2.889527456645    -0.657127915455     0.169090271031    15.994914619570
         O            0.893636456645    -2.708966915455    -0.067719728969    15.994914619570
         O           -3.313505843355    -0.914816915455     0.260746271031    15.994914619570
         C           -0.342643543355     1.269348084545    -0.238758728969    12.000000000000
         C            1.095331456645     1.020635084545     0.200785271031    12.000000000000
         C           -1.249443543355     0.142381084545     0.230800271031    12.000000000000
         C            1.560133456645    -0.364315915455    -0.223119728969    12.000000000000
         C            0.562152456645    -1.410597915455     0.285758271031    12.000000000000
         C           -2.668298543355     0.218958084545    -0.296960728969    12.000000000000
         H           -0.364247543355     1.319443084545    -1.333079728968     1.007825032230
         H            1.116854456645     1.061159084545     1.311163271031     1.007825032230
         H           -1.283528543355     0.120115084545     1.336035271031     1.007825032230
         H            1.560179456645    -0.408879915455    -1.320031728969     1.007825032230
         H            0.504410456645    -1.397958915455     1.385811271031     1.007825032230
         H           -2.630957543355     0.234643084545    -1.396506728969     1.007825032230
         H           -3.150303543355     1.137327084545     0.044971271031     1.007825032230
         H           -0.848552543355     2.528415084545     1.173238271031     1.007825032230
         H            1.484839456645     2.842566084545    -0.251454728969     1.007825032230
         H            2.981047456645    -0.435922915455     1.112956271031     1.007825032230
         H            1.232206456645    -2.694893915455    -0.980843728969     1.007825032230
         H           -2.913417543355    -1.665391915455    -0.024303728969     1.007825032230

  Basis Set: AUG-CC-PVTZ
    Blend: AUG-CC-PVTZ
  Basis Set: (AUG-CC-PVTZ AUX)
    Blend: AUG-CC-PVTZ-JKFIT
	 Reference Energy          =    -683.5995535917388679 [Eh]
	 Singles Energy            =      -0.0000000000000000 [Eh]
	 Same-Spin Energy          =      -0.6645826615347812 [Eh]
	 Opposite-Spin Energy      =      -2.0425114972495866 [Eh]
	 Correlation Energy        =      -2.7070941587843675 [Eh]
	 Total Energy              =    -686.3066477505232115 [Eh]

	 ================> DF-SCS-MP2 Energies <==================
	-----------------------------------------------------------
	 SCS Same-Spin Scale       =       0.3333333333333333 [-]
	 SCS Opposite-Spin Scale   =       1.2000000000000000 [-]
	 SCS Same-Spin Energy      =      -0.2215275538449271 [Eh]
	 SCS Opposite-Spin Energy  =      -2.4510137966995038 [Eh]
	 SCS Correlation Energy    =      -2.6725413505444306 [Eh]
	 SCS Total Energy          =    -686.2720949422832746 [Eh]
	-----------------------------------------------------------

  Dipole Moment: [D]
     X:    -0.1233      Y:     1.6521      Z:     1.1662     Total:     2.0260

*** Psi4 exiting successfully. Buy a developer a beer!
