                               Psi4 1.4a3.dev225

  ==> Input File <==

--------------------------------------------------------------------------
#psi4
#
memory 32 gb

molecule  {
0 1
  O       -0.7087730    -1.1193010    -0.2547420
  O       -0.7528450     2.5455330     0.2012150
  O        1.9863940     1.9788490    -0.3427120
  O        2.9116460    -0.6744970     0.1694850
  O        0.9156910    -2.7263170    -0.0671110
  O       -3.4138470    -0.8877920     0.1898460
  C       -0.3144684     1.2340098    -0.2443891
  C        1.1174820     1.0032940     0.2012350
  C       -1.2273260     0.1250970     0.2312670
  C        1.5822430    -0.3816820    -0.2226620
  C        0.5842200    -1.4279110     0.2862640
  C       -2.6461850     0.2016990    -0.2964600
  H       -0.3421180     1.3022200    -1.3325700
  H        1.1390340     1.0438120     1.3116130
  H       -1.2614040     0.1027740     1.3364960
  H        1.5822050    -0.4262820    -1.3195710
  H        0.5263940    -1.4152120     1.3863080
  H       -2.6088500     0.2174640    -1.3960030
  H       -3.1281860     1.1200450     0.0455410
  H       -0.8261980     2.5111300     1.1738140
  H        1.5071200     2.8252430    -0.2509020
  H        3.0032160    -0.4533580     1.1133610
  H        1.2544120    -2.7122960    -0.9801810
  H       -2.8913510    -1.6827050    -0.0240770
units angstrom
no_reorient  #important for SAPT in psi4, default
symmetry c1  #important for SAPT in psi4, default
}

set PROPERTIES_ORIGIN ["COM"]
properties('MP2/aug-cc-pvtz', properties = ['dipole'])
--------------------------------------------------------------------------

    Molecular point group: c1
  Charge       = 0
  Multiplicity = 1
  Basis Set: AUG-CC-PVTZ
    Blend: AUG-CC-PVTZ
  Basis Set: (AUG-CC-PVTZ AUX)
    Blend: AUG-CC-PVTZ-JKFIT

    Orbital Energies [Eh]
    ---------------------

    Doubly Occupied:

       1A    -20.595887     2A    -20.588598     3A    -20.584094
       4A    -20.579378     5A    -20.577897     6A    -20.563169
       7A    -11.357268     8A    -11.310723     9A    -11.310058
      10A    -11.308443    11A    -11.305311    12A    -11.287732
      13A     -1.440576    14A     -1.401060    15A     -1.386686
      16A     -1.371786    17A     -1.365204    18A     -1.353515
      19A     -1.083347    20A     -1.051936    21A     -0.946684
      22A     -0.891330    23A     -0.855265    24A     -0.842274
      25A     -0.754035    26A     -0.729729    27A     -0.720998
      28A     -0.707445    29A     -0.693260    30A     -0.675568
      31A     -0.660685    32A     -0.655191    33A     -0.617262
      34A     -0.614753    35A     -0.597925    36A     -0.587402
      37A     -0.570762    38A     -0.562612    39A     -0.554360
      40A     -0.543575    41A     -0.527285    42A     -0.516726
      43A     -0.503981    44A     -0.487584    45A     -0.475182
      46A     -0.463267    47A     -0.447223    48A     -0.432560

  @DF-RHF Final Energy:  -683.60304971469918

   => Energetics <=

    Nuclear Repulsion Energy =            824.7928086192988530
    One-Electron Energy =               -2577.8765336427441071
    Two-Electron Energy =                1069.4806753087461857
    Total Energy =                       -683.6030497146991820
  Basis Set: (AUG-CC-PVTZ AUX)
    Blend: AUG-CC-PVTZ-RI
    Molecular point group: c1

    Geometry (in Angstrom), charge = 0, multiplicity = 1:

       Center              X                  Y                   Z               Mass
    ------------   -----------------  -----------------  -----------------  -----------------
         O           -0.720420775323    -1.104717506073    -0.248474414238    15.994914619570
         O           -0.764492775323     2.560116493927     0.207482585762    15.994914619570
         O            1.974746224677     1.993432493927    -0.336444414238    15.994914619570
         O            2.899998224677    -0.659913506073     0.175752585762    15.994914619570
         O            0.904043224677    -2.711733506073    -0.060843414238    15.994914619570
         O           -3.425494775323    -0.873208506073     0.196113585762    15.994914619570
         C           -0.326116175323     1.248593293927    -0.238121514238    12.000000000000
         C            1.105834224677     1.017877493927     0.207502585762    12.000000000000
         C           -1.238973775323     0.139680493927     0.237534585762    12.000000000000
         C            1.570595224677    -0.367098506073    -0.216394414238    12.000000000000
         C            0.572572224677    -1.413327506073     0.292531585762    12.000000000000
         C           -2.657832775323     0.216282493927    -0.290192414238    12.000000000000
         H           -0.353765775323     1.316803493927    -1.326302414238     1.007825032230
         H            1.127386224677     1.058395493927     1.317880585762     1.007825032230
         H           -1.273051775323     0.117357493927     1.342763585762     1.007825032230
         H            1.570557224677    -0.411698506073    -1.313303414238     1.007825032230
         H            0.514746224677    -1.400628506073     1.392575585762     1.007825032230
         H           -2.620497775323     0.232047493927    -1.389735414238     1.007825032230
         H           -3.139833775323     1.134628493927     0.051808585762     1.007825032230
         H           -0.837845775323     2.525713493927     1.180081585762     1.007825032230
         H            1.495472224677     2.839826493927    -0.244634414238     1.007825032230
         H            2.991568224677    -0.438774506073     1.119628585762     1.007825032230
         H            1.242764224677    -2.697712506073    -0.973913414238     1.007825032230
         H           -2.902998775323    -1.668121506073    -0.017809414238     1.007825032230

  Basis Set: AUG-CC-PVTZ
    Blend: AUG-CC-PVTZ
  Basis Set: (AUG-CC-PVTZ AUX)
    Blend: AUG-CC-PVTZ-JKFIT
	 Reference Energy          =    -683.6030497146991820 [Eh]
	 Singles Energy            =      -0.0000000000000000 [Eh]
	 Same-Spin Energy          =      -0.6655598181305092 [Eh]
	 Opposite-Spin Energy      =      -2.0452134252018128 [Eh]
	 Correlation Energy        =      -2.7107732433323219 [Eh]
	 Total Energy              =    -686.3138229580315510 [Eh]

	 ================> DF-SCS-MP2 Energies <==================
	-----------------------------------------------------------
	 SCS Same-Spin Scale       =       0.3333333333333333 [-]
	 SCS Opposite-Spin Scale   =       1.2000000000000000 [-]
	 SCS Same-Spin Energy      =      -0.2218532727101697 [Eh]
	 SCS Opposite-Spin Energy  =      -2.4542561102421754 [Eh]
	 SCS Correlation Energy    =      -2.6761093829523452 [Eh]
	 SCS Total Energy          =    -686.2791590976514726 [Eh]
	-----------------------------------------------------------

  Dipole Moment: [D]
     X:     0.2335      Y:     1.5363      Z:     1.3524     Total:     2.0601

*** Psi4 exiting successfully. Buy a developer a beer!
