                               Psi4 1.4a3.dev225

  ==> Input File <==

--------------------------------------------------------------------------
#psi4
#
memory 32 gb

molecule  {
0 1
  O       -0.7087730    -1.1193010    -0.2547420
  O       -0.7528450     2.5455330     0.2012150
  O        1.9863940     1.9788490    -0.3427120
  O        2.9116460    -0.6744970     0.1694850
  O        0.9156910    -2.7263170    -0.0671110
  O       -3.4138470    -0.8877920     0.1898460
  C       -0.3205030     1.2520640    -0.2382550
  C        1.1174820     1.0032940     0.2012350
  C       -1.2273260     0.1250970     0.2312670
  C        1.6010116    -0.3858160    -0.2171257
  C        0.5842200    -1.4279110     0.2862640
  C       -2.6461850     0.2016990    -0.2964600
  H       -0.3421180     1.3022200    -1.3325700
  H        1.1390340     1.0438120     1.3116130
  H       -1.2614040     0.1027740     1.3364960
  H        1.5822050    -0.4262820    -1.3195710
  H        0.5263940    -1.4152120     1.3863080
  H       -2.6088500     0.2174640    -1.3960030
  H       -3.1281860     1.1200450     0.0455410
  H       -0.8261980     2.5111300     1.1738140
  H        1.5071200     2.8252430    -0.2509020
  H        3.0032160    -0.4533580     1.1133610
  H        1.2544120    -2.7122960    -0.9801810
  H       -2.8913510    -1.6827050    -0.0240770
units angstrom
no_reorient  #important for SAPT in psi4, default
symmetry c1  #important for SAPT in psi4, default
}

set PROPERTIES_ORIGIN ["COM"]
properties('MP2/aug-cc-pvtz', properties = ['dipole'])
--------------------------------------------------------------------------

    Molecular point group: c1
  Charge       = 0
  Multiplicity = 1
  Basis Set: AUG-CC-PVTZ
    Blend: AUG-CC-PVTZ
  Basis Set: (AUG-CC-PVTZ AUX)
    Blend: AUG-CC-PVTZ-JKFIT

    Orbital Energies [Eh]
    ---------------------

    Doubly Occupied:

       1A    -20.598182     2A    -20.588551     3A    -20.583110
       4A    -20.581540     5A    -20.576987     6A    -20.562502
       7A    -11.356160     8A    -11.310281     9A    -11.309214
      10A    -11.307679    11A    -11.305355    12A    -11.287030
      13A     -1.439872    14A     -1.404986    15A     -1.392813
      16A     -1.372420    17A     -1.368239    18A     -1.352782
      19A     -1.079143    20A     -1.049262    21A     -0.945352
      22A     -0.890405    23A     -0.854596    24A     -0.841945
      25A     -0.753540    26A     -0.729975    27A     -0.723114
      28A     -0.709740    29A     -0.692629    30A     -0.676120
      31A     -0.659620    32A     -0.655035    33A     -0.620409
      34A     -0.616826    35A     -0.598066    36A     -0.589539
      37A     -0.569931    38A     -0.561630    39A     -0.557275
      40A     -0.542924    41A     -0.527364    42A     -0.517474
      43A     -0.501515    44A     -0.486661    45A     -0.472736
      46A     -0.461826    47A     -0.445516    48A     -0.429492

  @DF-RHF Final Energy:  -683.60385026174094

   => Energetics <=

    Nuclear Repulsion Energy =            824.5323435932980374
    One-Electron Energy =               -2577.3576632539306956
    Two-Electron Energy =                1069.2214693988917134
    Total Energy =                       -683.6038502617409449
  Basis Set: (AUG-CC-PVTZ AUX)
    Blend: AUG-CC-PVTZ-RI
    Molecular point group: c1

    Geometry (in Angstrom), charge = 0, multiplicity = 1:

       Center              X                  Y                   Z               Mass
    ------------   -----------------  -----------------  -----------------  -----------------
         O           -0.721269409805    -1.105645192715    -0.249252167014    15.994914619570
         O           -0.765341409805     2.559188807285     0.206704832986    15.994914619570
         O            1.973897590195     1.992504807285    -0.337222167014    15.994914619570
         O            2.899149590195    -0.660841192715     0.174974832986    15.994914619570
         O            0.903194590195    -2.712661192715    -0.061621167014    15.994914619570
         O           -3.426343409805    -0.874136192715     0.195335832986    15.994914619570
         C           -0.332999409805     1.265719807285    -0.232765167014    12.000000000000
         C            1.104985590195     1.016949807285     0.206724832986    12.000000000000
         C           -1.239822409805     0.138752807285     0.236756832986    12.000000000000
         C            1.588515190195    -0.372160192715    -0.211635867014    12.000000000000
         C            0.571723590195    -1.414255192715     0.291753832986    12.000000000000
         C           -2.658681409805     0.215354807285    -0.290970167014    12.000000000000
         H           -0.354614409805     1.315875807285    -1.327080167014     1.007825032230
         H            1.126537590195     1.057467807285     1.317102832986     1.007825032230
         H           -1.273900409805     0.116429807285     1.341985832986     1.007825032230
         H            1.569708590195    -0.412626192715    -1.314081167014     1.007825032230
         H            0.513897590195    -1.401556192715     1.391797832986     1.007825032230
         H           -2.621346409805     0.231119807285    -1.390513167014     1.007825032230
         H           -3.140682409805     1.133700807285     0.051030832986     1.007825032230
         H           -0.838694409805     2.524785807285     1.179303832986     1.007825032230
         H            1.494623590195     2.838898807285    -0.245412167014     1.007825032230
         H            2.990719590195    -0.439702192715     1.118850832986     1.007825032230
         H            1.241915590195    -2.698640192715    -0.974691167014     1.007825032230
         H           -2.903847409805    -1.669049192715    -0.018587167014     1.007825032230

  Basis Set: AUG-CC-PVTZ
    Blend: AUG-CC-PVTZ
  Basis Set: (AUG-CC-PVTZ AUX)
    Blend: AUG-CC-PVTZ-JKFIT
	 Reference Energy          =    -683.6038502617409449 [Eh]
	 Singles Energy            =      -0.0000000000000000 [Eh]
	 Same-Spin Energy          =      -0.6654036016950337 [Eh]
	 Opposite-Spin Energy      =      -2.0445940470592294 [Eh]
	 Correlation Energy        =      -2.7099976487542632 [Eh]
	 Total Energy              =    -686.3138479104951557 [Eh]

	 ================> DF-SCS-MP2 Energies <==================
	-----------------------------------------------------------
	 SCS Same-Spin Scale       =       0.3333333333333333 [-]
	 SCS Opposite-Spin Scale   =       1.2000000000000000 [-]
	 SCS Same-Spin Energy      =      -0.2218012005650112 [Eh]
	 SCS Opposite-Spin Energy  =      -2.4535128564710753 [Eh]
	 SCS Correlation Energy    =      -2.6753140570360867 [Eh]
	 SCS Total Energy          =    -686.2791643187770205 [Eh]
	-----------------------------------------------------------

  Dipole Moment: [D]
     X:     0.2893      Y:     1.5899      Z:     1.3886     Total:     2.1306

*** Psi4 exiting successfully. Buy a developer a beer!
