                               Psi4 1.3.2 release

  ==> Input File <==

--------------------------------------------------------------------------
#psi4
#
memory 32 gb

molecule  {
0 1
  O       -0.7087550    -1.1193400    -0.2546710
  O       -0.7529000     2.5454980     0.2011280
  O        1.9076502     2.0196813    -0.3862651
  O        2.9116540    -0.6744470     0.1695670
  O        0.9157630    -2.7262860    -0.0672430
  O       -3.4138550    -0.8877920     0.1899090
  C       -0.3205170     1.2520290    -0.2382820
  C        1.1174580     1.0033160     0.2012620
  C       -1.2273170     0.1250620     0.2312770
  C        1.5822600    -0.3816350    -0.2226430
  C        0.5842790    -1.4279170     0.2862350
  C       -2.6461720     0.2016390    -0.2964840
  H       -0.3421210     1.3021240    -1.3326030
  H        1.1389810     1.0438400     1.3116400
  H       -1.2614020     0.1027960     1.3365120
  H        1.5823060    -0.4261990    -1.3195550
  H        0.5265370    -1.4152780     1.3862880
  H       -2.6088310     0.2173240    -1.3960300
  H       -3.1281770     1.1200080     0.0454480
  H       -0.8264260     2.5110960     1.1737150
  H        1.5069660     2.8252470    -0.2509780
  H        3.0031740    -0.4532420     1.1134330
  H        1.2543330    -2.7122130    -0.9803670
  H       -2.8912910    -1.6827110    -0.0238270
units angstrom
no_reorient  #important for SAPT in psi4, default
symmetry c1  #important for SAPT in psi4, default
}

set PROPERTIES_ORIGIN ["COM"]
properties('MP2/aug-cc-pvtz', properties = ['dipole'])
--------------------------------------------------------------------------

    Molecular point group: c1
  Charge       = 0
  Multiplicity = 1
  Basis Set: AUG-CC-PVTZ
    Blend: AUG-CC-PVTZ
  Basis Set: (AUG-CC-PVTZ AUX)
    Blend: AUG-CC-PVTZ-JKFIT

    Orbital Energies [Eh]
    ---------------------

    Doubly Occupied:

       1A    -20.596458     2A    -20.588376     3A    -20.584776
       4A    -20.580692     5A    -20.569330     6A    -20.561851
       7A    -11.358179     8A    -11.311612     9A    -11.307791
      10A    -11.307214    11A    -11.306226    12A    -11.286167
      13A     -1.440666    14A     -1.410078    15A     -1.388794
      16A     -1.374468    17A     -1.370606    18A     -1.352873
      19A     -1.082844    20A     -1.051528    21A     -0.946123
      22A     -0.893822    23A     -0.856775    24A     -0.841774
      25A     -0.758684    26A     -0.732243    27A     -0.722563
      28A     -0.709097    29A     -0.693149    30A     -0.678484
      31A     -0.665760    32A     -0.658246    33A     -0.619324
      34A     -0.615115    35A     -0.597327    36A     -0.587773
      37A     -0.570023    38A     -0.562969    39A     -0.555067
      40A     -0.540277    41A     -0.526979    42A     -0.517303
      43A     -0.503018    44A     -0.487630    45A     -0.478128
      46A     -0.461359    47A     -0.445900    48A     -0.430235

  @DF-RHF Final Energy:  -683.60279227284400

   => Energetics <=

    Nuclear Repulsion Energy =            825.3184000785369108
    One-Electron Energy =               -2578.8710286582218032
    Two-Electron Energy =                1069.9498363068410072
    Total Energy =                       -683.6027922728439989
  Basis Set: (AUG-CC-PVTZ AUX)
    Blend: AUG-CC-PVTZ-RI
    Molecular point group: c1

    Geometry (in Angstrom), charge = 0, multiplicity = 1:

       Center              X                  Y                   Z               Mass
    ------------   -----------------  -----------------  -----------------  -----------------
         O           -0.713011697601    -1.109582718604    -0.244940694223    15.994914619570
         O           -0.757156697601     2.555255281396     0.210858305777    15.994914619570
         O            1.903393502399     2.029438581396    -0.376534794223    15.994914619570
         O            2.907397302399    -0.664689718604     0.179297305777    15.994914619570
         O            0.911506302399    -2.716528718604    -0.057512694223    15.994914619570
         O           -3.418111697601    -0.878034718604     0.199639305777    15.994914619570
         C           -0.324773697601     1.261786281396    -0.228551694223    12.000000000000
         C            1.113201302399     1.013073281396     0.210992305777    12.000000000000
         C           -1.231573697601     0.134819281396     0.241007305777    12.000000000000
         C            1.578003302399    -0.371877718604    -0.212912694223    12.000000000000
         C            0.580022302399    -1.418159718604     0.295965305777    12.000000000000
         C           -2.650428697601     0.211396281396    -0.286753694223    12.000000000000
         H           -0.346377697601     1.311881281396    -1.322872694223     1.007825032230
         H            1.134724302399     1.053597281396     1.321370305777     1.007825032230
         H           -1.265658697601     0.112553281396     1.346242305777     1.007825032230
         H            1.578049302399    -0.416441718604    -1.309824694223     1.007825032230
         H            0.522280302399    -1.405520718604     1.396018305777     1.007825032230
         H           -2.613087697601     0.227081281396    -1.386299694223     1.007825032230
         H           -3.132433697601     1.129765281396     0.055178305777     1.007825032230
         H           -0.830682697601     2.520853281396     1.183445305777     1.007825032230
         H            1.502709302399     2.835004281396    -0.241247694223     1.007825032230
         H            2.998917302399    -0.443484718604     1.123163305777     1.007825032230
         H            1.250076302399    -2.702455718604    -0.970636694223     1.007825032230
         H           -2.895547697601    -1.672953718604    -0.014096694223     1.007825032230

  Basis Set: AUG-CC-PVTZ
    Blend: AUG-CC-PVTZ
  Basis Set: (AUG-CC-PVTZ AUX)
    Blend: AUG-CC-PVTZ-JKFIT
	 Reference Energy          =    -683.6027922728439989 [Eh]
	 Singles Energy            =      -0.0000000000000000 [Eh]
	 Same-Spin Energy          =      -0.6644804991986699 [Eh]
	 Opposite-Spin Energy      =      -2.0425635256536649 [Eh]
	 Correlation Energy        =      -2.7070440248523351 [Eh]
	 Total Energy              =    -686.3098362976962790 [Eh]

	 ================> DF-SCS-MP2 Energies <==================
	-----------------------------------------------------------
	 SCS Same-Spin Scale       =       0.3333333333333333 [-]
	 SCS Opposite-Spin Scale   =       1.2000000000000000 [-]
	 SCS Same-Spin Energy      =      -0.2214934997328900 [Eh]
	 SCS Opposite-Spin Energy  =      -2.4510762307843978 [Eh]
	 SCS Correlation Energy    =      -2.6725697305172877 [Eh]
	 SCS Total Energy          =    -686.2753620033612378 [Eh]
	-----------------------------------------------------------

  Dipole Moment: [D]
     X:     0.3800      Y:     1.5247      Z:     1.4795     Total:     2.1583

*** Psi4 exiting successfully. Buy a developer a beer!
