                               Psi4 1.3.2 release

  ==> Input File <==

--------------------------------------------------------------------------
#psi4
#
memory 32 gb

molecule  {
0 1
  O       -0.7087550    -1.1193400    -0.2546710
  O       -0.7553687     2.5525396     0.1772593
  O        1.9863450     1.9788980    -0.3426730
  O        2.9116540    -0.6744470     0.1695670
  O        0.9157630    -2.7262860    -0.0672430
  O       -3.4138550    -0.8877920     0.1899090
  C       -0.3205170     1.2520290    -0.2382820
  C        1.1174580     1.0033160     0.2012620
  C       -1.2273170     0.1250620     0.2312770
  C        1.5822600    -0.3816350    -0.2226430
  C        0.5842790    -1.4279170     0.2862350
  C       -2.6461720     0.2016390    -0.2964840
  H       -0.3421210     1.3021240    -1.3326030
  H        1.1389810     1.0438400     1.3116400
  H       -1.2614020     0.1027960     1.3365120
  H        1.5823060    -0.4261990    -1.3195550
  H        0.5265370    -1.4152780     1.3862880
  H       -2.6088310     0.2173240    -1.3960300
  H       -3.1281770     1.1200080     0.0454480
  H       -0.8264260     2.5110960     1.1737150
  H        1.5069660     2.8252470    -0.2509780
  H        3.0031740    -0.4532420     1.1134330
  H        1.2543330    -2.7122130    -0.9803670
  H       -2.8912910    -1.6827110    -0.0238270
units angstrom
no_reorient  #important for SAPT in psi4, default
symmetry c1  #important for SAPT in psi4, default
}

set PROPERTIES_ORIGIN ["COM"]
properties('MP2/aug-cc-pvtz', properties = ['dipole'])
--------------------------------------------------------------------------

    Molecular point group: c1
  Charge       = 0
  Multiplicity = 1
  Basis Set: AUG-CC-PVTZ
    Blend: AUG-CC-PVTZ
  Basis Set: (AUG-CC-PVTZ AUX)
    Blend: AUG-CC-PVTZ-JKFIT

    Orbital Energies [Eh]
    ---------------------

    Doubly Occupied:

       1A    -20.601389     2A    -20.588759     3A    -20.583888
       4A    -20.579377     5A    -20.577464     6A    -20.562718
       7A    -11.357033     8A    -11.310293     9A    -11.309654
      10A    -11.308185    11A    -11.305277    12A    -11.287296
      13A     -1.440247    14A     -1.402934    15A     -1.387202
      16A     -1.372120    17A     -1.365493    18A     -1.353141
      19A     -1.080319    20A     -1.051018    21A     -0.945539
      22A     -0.890459    23A     -0.854484    24A     -0.841466
      25A     -0.753820    26A     -0.729733    27A     -0.720911
      28A     -0.707316    29A     -0.692433    30A     -0.674915
      31A     -0.660217    32A     -0.654952    33A     -0.620586
      34A     -0.613801    35A     -0.597569    36A     -0.587548
      37A     -0.570382    38A     -0.561835    39A     -0.556126
      40A     -0.542731    41A     -0.527456    42A     -0.517112
      43A     -0.502933    44A     -0.487387    45A     -0.474322
      46A     -0.462283    47A     -0.446638    48A     -0.431141

  @DF-RHF Final Energy:  -683.60145338323707

   => Energetics <=

    Nuclear Repulsion Energy =            824.4542501507713723
    One-Electron Energy =               -2577.2116055805363430
    Two-Electron Energy =                1069.1559020465281264
    Total Energy =                       -683.6014533832369580
  Basis Set: (AUG-CC-PVTZ AUX)
    Blend: AUG-CC-PVTZ-RI
    Molecular point group: c1

    Geometry (in Angstrom), charge = 0, multiplicity = 1:

       Center              X                  Y                   Z               Mass
    ------------   -----------------  -----------------  -----------------  -----------------
         O           -0.719782812896    -1.106585465157    -0.246692711123    15.994914619570
         O           -0.766396512896     2.565294134843     0.185237588877    15.994914619570
         O            1.975317187104     1.991652534843    -0.334694711123    15.994914619570
         O            2.900626187104    -0.661692465157     0.177545288877    15.994914619570
         O            0.904735187104    -2.713531465157    -0.059264711123    15.994914619570
         O           -3.424882812896    -0.875037465157     0.197887288877    15.994914619570
         C           -0.331544812896     1.264783534843    -0.230303711123    12.000000000000
         C            1.106430187104     1.016070534843     0.209240288877    12.000000000000
         C           -1.238344812896     0.137816534843     0.239255288877    12.000000000000
         C            1.571232187104    -0.368880465157    -0.214664711123    12.000000000000
         C            0.573251187104    -1.415162465157     0.294213288877    12.000000000000
         C           -2.657199812896     0.214393534843    -0.288505711123    12.000000000000
         H           -0.353148812896     1.314878534843    -1.324624711123     1.007825032230
         H            1.127953187104     1.056594534843     1.319618288877     1.007825032230
         H           -1.272429812896     0.115550534843     1.344490288877     1.007825032230
         H            1.571278187104    -0.413444465157    -1.311576711123     1.007825032230
         H            0.515509187104    -1.402523465157     1.394266288877     1.007825032230
         H           -2.619858812896     0.230078534843    -1.388051711123     1.007825032230
         H           -3.139204812896     1.132762534843     0.053426288877     1.007825032230
         H           -0.837453812896     2.523850534843     1.181693288877     1.007825032230
         H            1.495938187104     2.838001534843    -0.242999711123     1.007825032230
         H            2.992146187104    -0.440487465157     1.121411288877     1.007825032230
         H            1.243305187104    -2.699458465157    -0.972388711123     1.007825032230
         H           -2.902318812896    -1.669956465157    -0.015848711123     1.007825032230

  Basis Set: AUG-CC-PVTZ
    Blend: AUG-CC-PVTZ
  Basis Set: (AUG-CC-PVTZ AUX)
    Blend: AUG-CC-PVTZ-JKFIT
	 Reference Energy          =    -683.6014533832370716 [Eh]
	 Singles Energy            =      -0.0000000000000000 [Eh]
	 Same-Spin Energy          =      -0.6658310953769881 [Eh]
	 Opposite-Spin Energy      =      -2.0458203052618558 [Eh]
	 Correlation Energy        =      -2.7116514006388437 [Eh]
	 Total Energy              =    -686.3131047838759287 [Eh]

	 ================> DF-SCS-MP2 Energies <==================
	-----------------------------------------------------------
	 SCS Same-Spin Scale       =       0.3333333333333333 [-]
	 SCS Opposite-Spin Scale   =       1.2000000000000000 [-]
	 SCS Same-Spin Energy      =      -0.2219436984589960 [Eh]
	 SCS Opposite-Spin Energy  =      -2.4549843663142270 [Eh]
	 SCS Correlation Energy    =      -2.6769280647732230 [Eh]
	 SCS Total Energy          =    -686.2783814480103501 [Eh]
	-----------------------------------------------------------

  Dipole Moment: [D]
     X:     0.2214      Y:     1.5942      Z:     1.3941     Total:     2.1293

*** Psi4 exiting successfully. Buy a developer a beer!
