                               Psi4 1.3.2 release

  ==> Input File <==

--------------------------------------------------------------------------
#psi4
#
memory 32 gb

molecule  {
0 1
  O       -0.7087550    -1.1193400    -0.2546710
  O       -0.7502996     2.5380624     0.2248629
  O        1.9863450     1.9788980    -0.3426730
  O        2.9116540    -0.6744470     0.1695670
  O        0.9157630    -2.7262860    -0.0672430
  O       -3.4138550    -0.8877920     0.1899090
  C       -0.3205170     1.2520290    -0.2382820
  C        1.1174580     1.0033160     0.2012620
  C       -1.2273170     0.1250620     0.2312770
  C        1.5822600    -0.3816350    -0.2226430
  C        0.5842790    -1.4279170     0.2862350
  C       -2.6461720     0.2016390    -0.2964840
  H       -0.3421210     1.3021240    -1.3326030
  H        1.1389810     1.0438400     1.3116400
  H       -1.2614020     0.1027960     1.3365120
  H        1.5823060    -0.4261990    -1.3195550
  H        0.5265370    -1.4152780     1.3862880
  H       -2.6088310     0.2173240    -1.3960300
  H       -3.1281770     1.1200080     0.0454480
  H       -0.8264260     2.5110960     1.1737150
  H        1.5069660     2.8252470    -0.2509780
  H        3.0031740    -0.4532420     1.1134330
  H        1.2543330    -2.7122130    -0.9803670
  H       -2.8912910    -1.6827110    -0.0238270
units angstrom
no_reorient  #important for SAPT in psi4, default
symmetry c1  #important for SAPT in psi4, default
}

set PROPERTIES_ORIGIN ["COM"]
properties('MP2/aug-cc-pvtz', properties = ['dipole'])
--------------------------------------------------------------------------

    Molecular point group: c1
  Charge       = 0
  Multiplicity = 1
  Basis Set: AUG-CC-PVTZ
    Blend: AUG-CC-PVTZ
  Basis Set: (AUG-CC-PVTZ AUX)
    Blend: AUG-CC-PVTZ-JKFIT

    Orbital Energies [Eh]
    ---------------------

    Doubly Occupied:

       1A    -20.595157     2A    -20.588373     3A    -20.583726
       4A    -20.579151     5A    -20.577496     6A    -20.562721
       7A    -11.356820     8A    -11.311022     9A    -11.309542
      10A    -11.307847    11A    -11.304941    12A    -11.287308
      13A     -1.440194    14A     -1.407699    15A     -1.388284
      16A     -1.373282    17A     -1.366189    18A     -1.353053
      19A     -1.081587    20A     -1.051105    21A     -0.946549
      22A     -0.892126    23A     -0.854421    24A     -0.843277
      25A     -0.754321    26A     -0.729612    27A     -0.721510
      28A     -0.712765    29A     -0.693941    30A     -0.674753
      31A     -0.660128    32A     -0.654980    33A     -0.619877
      34A     -0.617131    35A     -0.598308    36A     -0.587217
      37A     -0.570143    38A     -0.562216    39A     -0.556109
      40A     -0.544179    41A     -0.527271    42A     -0.516687
      43A     -0.502592    44A     -0.487105    45A     -0.474328
      46A     -0.462126    47A     -0.446315    48A     -0.431044

  @DF-RHF Final Energy:  -683.60509190926746

   => Energetics <=

    Nuclear Repulsion Energy =            824.8943144306722388
    One-Electron Energy =               -2578.0657557681424805
    Two-Electron Energy =                1069.5663494282027841
    Total Energy =                       -683.6050919092674576
  Basis Set: (AUG-CC-PVTZ AUX)
    Blend: AUG-CC-PVTZ-RI
    Molecular point group: c1

    Geometry (in Angstrom), charge = 0, multiplicity = 1:

       Center              X                  Y                   Z               Mass
    ------------   -----------------  -----------------  -----------------  -----------------
         O           -0.720233097779    -1.105299464820    -0.250921308205    15.994914619570
         O           -0.761777697779     2.552102935180     0.228612591795    15.994914619570
         O            1.974866902221     1.992938535180    -0.338923308205    15.994914619570
         O            2.900175902221    -0.660406464820     0.173316691795    15.994914619570
         O            0.904284902221    -2.712245464820    -0.063493308205    15.994914619570
         O           -3.425333097779    -0.873751464820     0.193658691795    15.994914619570
         C           -0.331995097779     1.266069535180    -0.234532308205    12.000000000000
         C            1.105979902221     1.017356535180     0.205011691795    12.000000000000
         C           -1.238795097779     0.139102535180     0.235026691795    12.000000000000
         C            1.570781902221    -0.367594464820    -0.218893308205    12.000000000000
         C            0.572800902221    -1.413876464820     0.289984691795    12.000000000000
         C           -2.657650097779     0.215679535180    -0.292734308205    12.000000000000
         H           -0.353599097779     1.316164535180    -1.328853308205     1.007825032230
         H            1.127502902221     1.057880535180     1.315389691795     1.007825032230
         H           -1.272880097779     0.116836535180     1.340261691795     1.007825032230
         H            1.570827902221    -0.412158464820    -1.315805308205     1.007825032230
         H            0.515058902221    -1.401237464820     1.390037691795     1.007825032230
         H           -2.620309097779     0.231364535180    -1.392280308205     1.007825032230
         H           -3.139655097779     1.134048535180     0.049197691795     1.007825032230
         H           -0.837904097779     2.525136535180     1.177464691795     1.007825032230
         H            1.495487902221     2.839287535180    -0.247228308205     1.007825032230
         H            2.991695902221    -0.439201464820     1.117182691795     1.007825032230
         H            1.242854902221    -2.698172464820    -0.976617308205     1.007825032230
         H           -2.902769097779    -1.668670464820    -0.020077308205     1.007825032230

  Basis Set: AUG-CC-PVTZ
    Blend: AUG-CC-PVTZ
  Basis Set: (AUG-CC-PVTZ AUX)
    Blend: AUG-CC-PVTZ-JKFIT
	 Reference Energy          =    -683.6050919092674576 [Eh]
	 Singles Energy            =      -0.0000000000000000 [Eh]
	 Same-Spin Energy          =      -0.6650958284433075 [Eh]
	 Opposite-Spin Energy      =      -2.0439577717304758 [Eh]
	 Correlation Energy        =      -2.7090536001737835 [Eh]
	 Total Energy              =    -686.3141455094412322 [Eh]

	 ================> DF-SCS-MP2 Energies <==================
	-----------------------------------------------------------
	 SCS Same-Spin Scale       =       0.3333333333333333 [-]
	 SCS Opposite-Spin Scale   =       1.2000000000000000 [-]
	 SCS Same-Spin Energy      =      -0.2216986094811025 [Eh]
	 SCS Opposite-Spin Energy  =      -2.4527493260765709 [Eh]
	 SCS Correlation Energy    =      -2.6744479355576734 [Eh]
	 SCS Total Energy          =    -686.2795398448250808 [Eh]
	-----------------------------------------------------------

  Dipole Moment: [D]
     X:     0.2138      Y:     1.6047      Z:     1.3426     Total:     2.1032

*** Psi4 exiting successfully. Buy a developer a beer!
