                               Psi4 1.3.2 release

  ==> Input File <==

--------------------------------------------------------------------------
#psi4
#
memory 32 gb

molecule  {
0 1
  O       -0.7567044    -1.1080615    -0.1127536
  O       -0.7529000     2.5454980     0.2011280
  O        1.9863450     1.9788980    -0.3426730
  O        2.9116540    -0.6744470     0.1695670
  O        0.9157630    -2.7262860    -0.0672430
  O       -3.4138550    -0.8877920     0.1899090
  C       -0.3205170     1.2520290    -0.2382820
  C        1.1174580     1.0033160     0.2012620
  C       -1.2273170     0.1250620     0.2312770
  C        1.5822600    -0.3816350    -0.2226430
  C        0.5842790    -1.4279170     0.2862350
  C       -2.6461720     0.2016390    -0.2964840
  H       -0.3421210     1.3021240    -1.3326030
  H        1.1389810     1.0438400     1.3116400
  H       -1.2614020     0.1027960     1.3365120
  H        1.5823060    -0.4261990    -1.3195550
  H        0.5265370    -1.4152780     1.3862880
  H       -2.6088310     0.2173240    -1.3960300
  H       -3.1281770     1.1200080     0.0454480
  H       -0.8264260     2.5110960     1.1737150
  H        1.5069660     2.8252470    -0.2509780
  H        3.0031740    -0.4532420     1.1134330
  H        1.2543330    -2.7122130    -0.9803670
  H       -2.8912910    -1.6827110    -0.0238270
units angstrom
no_reorient  #important for SAPT in psi4, default
symmetry c1  #important for SAPT in psi4, default
}

set PROPERTIES_ORIGIN ["COM"]
properties('MP2/aug-cc-pvtz', properties = ['dipole'])
--------------------------------------------------------------------------

    Molecular point group: c1
  Charge       = 0
  Multiplicity = 1
  Basis Set: AUG-CC-PVTZ
    Blend: AUG-CC-PVTZ
  Basis Set: (AUG-CC-PVTZ AUX)
    Blend: AUG-CC-PVTZ-JKFIT

    Orbital Energies [Eh]
    ---------------------

    Doubly Occupied:

       1A    -20.597629     2A    -20.589421     3A    -20.585258
       4A    -20.582014     5A    -20.577669     6A    -20.560557
       7A    -11.360423     8A    -11.310397     9A    -11.309307
      10A    -11.308944    11A    -11.301658    12A    -11.284772
      13A     -1.451172    14A     -1.404889    15A     -1.393142
      16A     -1.378077    17A     -1.366854    18A     -1.355831
      19A     -1.080604    20A     -1.054549    21A     -0.945091
      22A     -0.897009    23A     -0.858041    24A     -0.839763
      25A     -0.756502    26A     -0.733056    27A     -0.724178
      28A     -0.713954    29A     -0.695590    30A     -0.675913
      31A     -0.665020    32A     -0.657007    33A     -0.621182
      34A     -0.618367    35A     -0.596437    36A     -0.589458
      37A     -0.574488    38A     -0.564866    39A     -0.556627
      40A     -0.544617    41A     -0.527516    42A     -0.518395
      43A     -0.500936    44A     -0.485665    45A     -0.472508
      46A     -0.461102    47A     -0.440517    48A     -0.430336

  @DF-RHF Final Energy:  -683.59944644417249

   => Energetics <=

    Nuclear Repulsion Energy =            825.7146135691623385
    One-Electron Energy =               -2579.5935095660847765
    Two-Electron Energy =                1070.2794495527498384
    Total Energy =                       -683.5994464441725995
  Basis Set: (AUG-CC-PVTZ AUX)
    Blend: AUG-CC-PVTZ-RI
    Molecular point group: c1

    Geometry (in Angstrom), charge = 0, multiplicity = 1:

       Center              X                  Y                   Z               Mass
    ------------   -----------------  -----------------  -----------------  -----------------
         O           -0.763692191651    -1.095683326252    -0.119501983449    15.994914619570
         O           -0.759887791651     2.557876173748     0.194379616551    15.994914619570
         O            1.979357208349     1.991276173748    -0.349421383449    15.994914619570
         O            2.904666208349    -0.662068826252     0.162818616551    15.994914619570
         O            0.908775208349    -2.713907826252    -0.073991383449    15.994914619570
         O           -3.420842791651    -0.875413826252     0.183160616551    15.994914619570
         C           -0.327504791651     1.264407173748    -0.245030383449    12.000000000000
         C            1.110470208349     1.015694173748     0.194513616551    12.000000000000
         C           -1.234304791651     0.137440173748     0.224528616551    12.000000000000
         C            1.575272208349    -0.369256826252    -0.229391383449    12.000000000000
         C            0.577291208349    -1.415538826252     0.279486616551    12.000000000000
         C           -2.653159791651     0.214017173748    -0.303232383449    12.000000000000
         H           -0.349108791651     1.314502173748    -1.339351383449     1.007825032230
         H            1.131993208349     1.056218173748     1.304891616551     1.007825032230
         H           -1.268389791651     0.115174173748     1.329763616551     1.007825032230
         H            1.575318208349    -0.413820826252    -1.326303383449     1.007825032230
         H            0.519549208349    -1.402899826252     1.379539616551     1.007825032230
         H           -2.615818791651     0.229702173748    -1.402778383449     1.007825032230
         H           -3.135164791651     1.132386173748     0.038699616551     1.007825032230
         H           -0.833413791651     2.523474173748     1.166966616551     1.007825032230
         H            1.499978208349     2.837625173748    -0.257726383449     1.007825032230
         H            2.996186208349    -0.440863826252     1.106684616551     1.007825032230
         H            1.247345208349    -2.699834826252    -0.987115383449     1.007825032230
         H           -2.898278791651    -1.670332826252    -0.030575383449     1.007825032230

  Basis Set: AUG-CC-PVTZ
    Blend: AUG-CC-PVTZ
  Basis Set: (AUG-CC-PVTZ AUX)
    Blend: AUG-CC-PVTZ-JKFIT
	 Reference Energy          =    -683.5994464441724858 [Eh]
	 Singles Energy            =      -0.0000000000000000 [Eh]
	 Same-Spin Energy          =      -0.6652808566987988 [Eh]
	 Opposite-Spin Energy      =      -2.0432454548120313 [Eh]
	 Correlation Energy        =      -2.7085263115108300 [Eh]
	 Total Energy              =    -686.3079727556832950 [Eh]

	 ================> DF-SCS-MP2 Energies <==================
	-----------------------------------------------------------
	 SCS Same-Spin Scale       =       0.3333333333333333 [-]
	 SCS Opposite-Spin Scale   =       1.2000000000000000 [-]
	 SCS Same-Spin Energy      =      -0.2217602855662663 [Eh]
	 SCS Opposite-Spin Energy  =      -2.4518945457744374 [Eh]
	 SCS Correlation Energy    =      -2.6736548313407038 [Eh]
	 SCS Total Energy          =    -686.2731012755132269 [Eh]
	-----------------------------------------------------------

  Dipole Moment: [D]
     X:     0.4453      Y:     1.4621      Z:     1.0959     Total:     1.8807

*** Psi4 exiting successfully. Buy a developer a beer!
