                               Psi4 1.3.2 release

  ==> Input File <==

--------------------------------------------------------------------------
#psi4
#
memory 32 gb

molecule  {
0 1
  O       -0.7087550    -1.1193400    -0.2546710
  O       -0.7529000     2.5454980     0.2011280
  O        1.9863450     1.9788980    -0.3426730
  O        2.9116540    -0.6744470     0.1695670
  O        0.9157630    -2.7262860    -0.0672430
  O       -3.4138550    -0.8877920     0.1899090
  C       -0.3205170     1.2520290    -0.2382820
  C        1.1174580     1.0033160     0.2012620
  C       -1.2273170     0.1250620     0.2312770
  C        1.5822600    -0.3816350    -0.2226430
  C        0.5842790    -1.4279170     0.2862350
  C       -2.6461720     0.2016390    -0.2964840
  H       -0.3421210     1.3021240    -1.3326030
  H        1.1389810     1.0438400     1.3116400
  H       -1.2614020     0.1027960     1.3365120
  H        1.5823060    -0.4261990    -1.3195550
  H        0.5265370    -1.4152780     1.3862880
  H       -2.6088310     0.2173240    -1.3960300
  H       -3.1281770     1.1200080     0.0454480
  H       -0.8264260     2.5110960     1.1737150
  H        1.5069660     2.8252470    -0.2509780
  H        3.0031740    -0.4532420     1.1134330
  H        1.2543330    -2.7122130    -0.9803670
  H       -2.8912910    -1.6827110    -0.0238270
units angstrom
no_reorient  #important for SAPT in psi4, default
symmetry c1  #important for SAPT in psi4, default
}

set PROPERTIES_ORIGIN ["COM"]
properties('MP2/aug-cc-pvtz', properties = ['dipole'])
--------------------------------------------------------------------------

    Molecular point group: c1
  Charge       = 0
  Multiplicity = 1
  Basis Set: AUG-CC-PVTZ
    Blend: AUG-CC-PVTZ
  Basis Set: (AUG-CC-PVTZ AUX)
    Blend: AUG-CC-PVTZ-JKFIT

    Orbital Energies [Eh]
    ---------------------

    Doubly Occupied:

       1A    -20.598327     2A    -20.588564     3A    -20.583806
       4A    -20.579262     5A    -20.577474     6A    -20.562717
       7A    -11.356925     8A    -11.310532     9A    -11.309676
      10A    -11.308015    11A    -11.305108    12A    -11.287298
      13A     -1.440208    14A     -1.405077    15A     -1.387765
      16A     -1.372710    17A     -1.365896    18A     -1.353096
      19A     -1.080905    20A     -1.051055    21A     -0.946004
      22A     -0.891241    23A     -0.854447    24A     -0.842368
      25A     -0.754045    26A     -0.729669    27A     -0.721066
      28A     -0.709988    29A     -0.693314    30A     -0.674830
      31A     -0.660169    32A     -0.654969    33A     -0.620132
      34A     -0.615572    35A     -0.597978    36A     -0.587384
      37A     -0.570259    38A     -0.562042    39A     -0.556121
      40A     -0.543492    41A     -0.527363    42A     -0.516900
      43A     -0.502796    44A     -0.487248    45A     -0.474329
      46A     -0.462198    47A     -0.446474    48A     -0.431089

  @DF-RHF Final Energy:  -683.60387657589217

   => Energetics <=

    Nuclear Repulsion Energy =            824.6697600427562520
    One-Electron Energy =               -2577.6314779224153426
    Two-Electron Energy =                1069.3578413037669179
    Total Energy =                       -683.6038765758921727
  Basis Set: (AUG-CC-PVTZ AUX)
    Blend: AUG-CC-PVTZ-RI
    Molecular point group: c1

    Geometry (in Angstrom), charge = 0, multiplicity = 1:

       Center              X                  Y                   Z               Mass
    ------------   -----------------  -----------------  -----------------  -----------------
         O           -0.720002105924    -1.105959964371    -0.248812952348    15.994914619570
         O           -0.764147105924     2.558878035629     0.206986047652    15.994914619570
         O            1.975097894076     1.992278035629    -0.336814952348    15.994914619570
         O            2.900406894076    -0.661066964371     0.175425047652    15.994914619570
         O            0.904515894076    -2.712905964371    -0.061384952348    15.994914619570
         O           -3.425102105924    -0.874411964371     0.195767047652    15.994914619570
         C           -0.331764105924     1.265409035629    -0.232423952348    12.000000000000
         C            1.106210894076     1.016696035629     0.207120047652    12.000000000000
         C           -1.238564105924     0.138442035629     0.237135047652    12.000000000000
         C            1.571012894076    -0.368254964371    -0.216784952348    12.000000000000
         C            0.573031894076    -1.414536964371     0.292093047652    12.000000000000
         C           -2.657419105924     0.215019035629    -0.290625952348    12.000000000000
         H           -0.353368105924     1.315504035629    -1.326744952348     1.007825032230
         H            1.127733894076     1.057220035629     1.317498047652     1.007825032230
         H           -1.272649105924     0.116176035629     1.342370047652     1.007825032230
         H            1.571058894076    -0.412818964371    -1.313696952348     1.007825032230
         H            0.515289894076    -1.401897964371     1.392146047652     1.007825032230
         H           -2.620078105924     0.230704035629    -1.390171952348     1.007825032230
         H           -3.139424105924     1.133388035629     0.051306047652     1.007825032230
         H           -0.837673105924     2.524476035629     1.179573047652     1.007825032230
         H            1.495718894076     2.838627035629    -0.245119952348     1.007825032230
         H            2.991926894076    -0.439861964371     1.119291047652     1.007825032230
         H            1.243085894076    -2.698832964371    -0.974508952348     1.007825032230
         H           -2.902538105924    -1.669330964371    -0.017968952348     1.007825032230

  Basis Set: AUG-CC-PVTZ
    Blend: AUG-CC-PVTZ
  Basis Set: (AUG-CC-PVTZ AUX)
    Blend: AUG-CC-PVTZ-JKFIT
	 Reference Energy          =    -683.6038765758921727 [Eh]
	 Singles Energy            =      -0.0000000000000000 [Eh]
	 Same-Spin Energy          =      -0.6654581473838066 [Eh]
	 Opposite-Spin Energy      =      -2.0448668902103480 [Eh]
	 Correlation Energy        =      -2.7103250375941546 [Eh]
	 Total Energy              =    -686.3142016134863752 [Eh]

	 ================> DF-SCS-MP2 Energies <==================
	-----------------------------------------------------------
	 SCS Same-Spin Scale       =       0.3333333333333333 [-]
	 SCS Opposite-Spin Scale   =       1.2000000000000000 [-]
	 SCS Same-Spin Energy      =      -0.2218193824612689 [Eh]
	 SCS Opposite-Spin Energy  =      -2.4538402682524176 [Eh]
	 SCS Correlation Energy    =      -2.6756596507136865 [Eh]
	 SCS Total Energy          =    -686.2795362266058419 [Eh]
	-----------------------------------------------------------

  Dipole Moment: [D]
     X:     0.2176      Y:     1.5996      Z:     1.3691     Total:     2.1168

*** Psi4 exiting successfully. Buy a developer a beer!
