                               Psi4 1.3.2 release

  ==> Input File <==

--------------------------------------------------------------------------
#psi4
#
memory 32 gb

molecule  {
0 1
  O       -0.7087550    -1.1193400    -0.2546710
  O       -0.7529000     2.5454980     0.2011280
  O        1.9863450     1.9788980    -0.3426730
  O        2.9116540    -0.6744470     0.1695670
  O        0.9157630    -2.7262860    -0.0672430
  O       -3.4138550    -0.8877920     0.1899090
  C       -0.3205170     1.2520290    -0.2382820
  C        1.1174580     1.0033160     0.2012620
  C       -1.2273170     0.1250620     0.2312770
  C        1.5790445    -0.3746796    -0.2480614
  C        0.5842790    -1.4279170     0.2862350
  C       -2.6461720     0.2016390    -0.2964840
  H       -0.3421210     1.3021240    -1.3326030
  H        1.1389810     1.0438400     1.3116400
  H       -1.2614020     0.1027960     1.3365120
  H        1.5823060    -0.4261990    -1.3195550
  H        0.5265370    -1.4152780     1.3862880
  H       -2.6088310     0.2173240    -1.3960300
  H       -3.1281770     1.1200080     0.0454480
  H       -0.8264260     2.5110960     1.1737150
  H        1.5069660     2.8252470    -0.2509780
  H        3.0031740    -0.4532420     1.1134330
  H        1.2543330    -2.7122130    -0.9803670
  H       -2.8912910    -1.6827110    -0.0238270
units angstrom
no_reorient  #important for SAPT in psi4, default
symmetry c1  #important for SAPT in psi4, default
}

set PROPERTIES_ORIGIN ["COM"]
properties('MP2/aug-cc-pvtz', properties = ['dipole'])
--------------------------------------------------------------------------

    Molecular point group: c1
  Charge       = 0
  Multiplicity = 1
  Basis Set: AUG-CC-PVTZ
    Blend: AUG-CC-PVTZ
  Basis Set: (AUG-CC-PVTZ AUX)
    Blend: AUG-CC-PVTZ-JKFIT

    Orbital Energies [Eh]
    ---------------------

    Doubly Occupied:

       1A    -20.598350     2A    -20.588041     3A    -20.583745
       4A    -20.577226     5A    -20.576866     6A    -20.562720
       7A    -11.357380     8A    -11.310486     9A    -11.309725
      10A    -11.308012    11A    -11.304285    12A    -11.287325
      13A     -1.439762    14A     -1.405027    15A     -1.384906
      16A     -1.372629    17A     -1.363224    18A     -1.352947
      19A     -1.081004    20A     -1.050473    21A     -0.945378
      22A     -0.891171    23A     -0.855401    24A     -0.842902
      25A     -0.753834    26A     -0.728533    27A     -0.720105
      28A     -0.709655    29A     -0.693691    30A     -0.674265
      31A     -0.659711    32A     -0.653895    33A     -0.619838
      34A     -0.615743    35A     -0.598300    36A     -0.586309
      37A     -0.569717    38A     -0.564553    39A     -0.555195
      40A     -0.544035    41A     -0.527183    42A     -0.516147
      43A     -0.504332    44A     -0.487064    45A     -0.475572
      46A     -0.461806    47A     -0.445912    48A     -0.429783

  @DF-RHF Final Energy:  -683.60326511633957

   => Energetics <=

    Nuclear Repulsion Energy =            824.5105243459431676
    One-Electron Energy =               -2577.3392528377407871
    Two-Electron Energy =                1069.2254633754580482
    Total Energy =                       -683.6032651163395713
  Basis Set: (AUG-CC-PVTZ AUX)
    Blend: AUG-CC-PVTZ-RI
    Molecular point group: c1

    Geometry (in Angstrom), charge = 0, multiplicity = 1:

       Center              X                  Y                   Z               Mass
    ------------   -----------------  -----------------  -----------------  -----------------
         O           -0.719787814722    -1.106423494470    -0.247118988888    15.994914619570
         O           -0.763932814722     2.558414505530     0.208680011112    15.994914619570
         O            1.975312185278     1.991814505530    -0.335120988888    15.994914619570
         O            2.900621185278    -0.661530494470     0.177119011112    15.994914619570
         O            0.904730185278    -2.713369494470    -0.059690988888    15.994914619570
         O           -3.424887814722    -0.874875494470     0.197461011112    15.994914619570
         C           -0.331549814722     1.264945505530    -0.230729988888    12.000000000000
         C            1.106425185278     1.016232505530     0.208814011112    12.000000000000
         C           -1.238349814722     0.137978505530     0.238829011112    12.000000000000
         C            1.568011685278    -0.361763094470    -0.240509388888    12.000000000000
         C            0.573246185278    -1.415000494470     0.293787011112    12.000000000000
         C           -2.657204814722     0.214555505530    -0.288931988888    12.000000000000
         H           -0.353153814722     1.315040505530    -1.325050988888     1.007825032230
         H            1.127948185278     1.056756505530     1.319192011112     1.007825032230
         H           -1.272434814722     0.115712505530     1.344064011112     1.007825032230
         H            1.571273185278    -0.413282494470    -1.312002988888     1.007825032230
         H            0.515504185278    -1.402361494470     1.393840011112     1.007825032230
         H           -2.619863814722     0.230240505530    -1.388477988888     1.007825032230
         H           -3.139209814722     1.132924505530     0.053000011112     1.007825032230
         H           -0.837458814722     2.524012505530     1.181267011112     1.007825032230
         H            1.495933185278     2.838163505530    -0.243425988888     1.007825032230
         H            2.992141185278    -0.440325494470     1.120985011112     1.007825032230
         H            1.243300185278    -2.699296494470    -0.972814988888     1.007825032230
         H           -2.902323814722    -1.669794494470    -0.016274988888     1.007825032230

  Basis Set: AUG-CC-PVTZ
    Blend: AUG-CC-PVTZ
  Basis Set: (AUG-CC-PVTZ AUX)
    Blend: AUG-CC-PVTZ-JKFIT
	 Reference Energy          =    -683.6032651163395713 [Eh]
	 Singles Energy            =      -0.0000000000000000 [Eh]
	 Same-Spin Energy          =      -0.6653212943501301 [Eh]
	 Opposite-Spin Energy      =      -2.0448384916506464 [Eh]
	 Correlation Energy        =      -2.7101597860007764 [Eh]
	 Total Energy              =    -686.3134249023403299 [Eh]

	 ================> DF-SCS-MP2 Energies <==================
	-----------------------------------------------------------
	 SCS Same-Spin Scale       =       0.3333333333333333 [-]
	 SCS Opposite-Spin Scale   =       1.2000000000000000 [-]
	 SCS Same-Spin Energy      =      -0.2217737647833767 [Eh]
	 SCS Opposite-Spin Energy  =      -2.4538061899807757 [Eh]
	 SCS Correlation Energy    =      -2.6755799547641526 [Eh]
	 SCS Total Energy          =    -686.2788450711037740 [Eh]
	-----------------------------------------------------------

  Dipole Moment: [D]
     X:     0.1796      Y:     1.6026      Z:     1.3404     Total:     2.0970

*** Psi4 exiting successfully. Buy a developer a beer!
