                               Psi4 1.3.2 release

  ==> Input File <==

--------------------------------------------------------------------------
#psi4
#
memory 32 gb

molecule  {
0 1
  O       -0.7526506    -1.1278745    -0.2770834
  O       -0.7529000     2.5454980     0.2011280
  O        1.9863450     1.9788980    -0.3426730
  O        2.9116540    -0.6744470     0.1695670
  O        0.9157630    -2.7262860    -0.0672430
  O       -3.4138550    -0.8877920     0.1899090
  C       -0.3205170     1.2520290    -0.2382820
  C        1.1174580     1.0033160     0.2012620
  C       -1.2273170     0.1250620     0.2312770
  C        1.5822600    -0.3816350    -0.2226430
  C        0.5842790    -1.4279170     0.2862350
  C       -2.6461720     0.2016390    -0.2964840
  H       -0.3421210     1.3021240    -1.3326030
  H        1.1389810     1.0438400     1.3116400
  H       -1.2614020     0.1027960     1.3365120
  H        1.5823060    -0.4261990    -1.3195550
  H        0.5265370    -1.4152780     1.3862880
  H       -2.6088310     0.2173240    -1.3960300
  H       -3.1281770     1.1200080     0.0454480
  H       -0.8264260     2.5110960     1.1737150
  H        1.5069660     2.8252470    -0.2509780
  H        3.0031740    -0.4532420     1.1134330
  H        1.2543330    -2.7122130    -0.9803670
  H       -2.8912910    -1.6827110    -0.0238270
units angstrom
no_reorient  #important for SAPT in psi4, default
symmetry c1  #important for SAPT in psi4, default
}

set PROPERTIES_ORIGIN ["COM"]
properties('MP2/aug-cc-pvtz', properties = ['dipole'])
--------------------------------------------------------------------------

    Molecular point group: c1
  Charge       = 0
  Multiplicity = 1
  Basis Set: AUG-CC-PVTZ
    Blend: AUG-CC-PVTZ
  Basis Set: (AUG-CC-PVTZ AUX)
    Blend: AUG-CC-PVTZ-JKFIT

    Orbital Energies [Eh]
    ---------------------

    Doubly Occupied:

       1A    -20.598411     2A    -20.589438     3A    -20.586413
       4A    -20.581893     5A    -20.577993     6A    -20.560187
       7A    -11.361588     8A    -11.310803     9A    -11.310054
      10A    -11.308181    11A    -11.305282    12A    -11.284318
      13A     -1.433408    14A     -1.405081    15A     -1.388541
      16A     -1.372333    17A     -1.366975    18A     -1.348942
      19A     -1.081222    20A     -1.047688    21A     -0.945958
      22A     -0.892619    23A     -0.852646    24A     -0.840869
      25A     -0.752756    26A     -0.727488    27A     -0.721359
      28A     -0.709175    29A     -0.690778    30A     -0.674838
      31A     -0.658263    32A     -0.653439    33A     -0.620837
      34A     -0.615024    35A     -0.596410    36A     -0.587770
      37A     -0.569546    38A     -0.560407    39A     -0.557665
      40A     -0.544294    41A     -0.526210    42A     -0.519344
      43A     -0.502385    44A     -0.483899    45A     -0.474814
      46A     -0.461574    47A     -0.446787    48A     -0.432978

  @DF-RHF Final Energy:  -683.59937438960606

   => Energetics <=

    Nuclear Repulsion Energy =            823.6109692074688837
    One-Electron Energy =               -2575.5429231281364082
    Two-Electron Energy =                1068.3325795310615831
    Total Energy =                       -683.5993743896060550
  Basis Set: (AUG-CC-PVTZ AUX)
    Blend: AUG-CC-PVTZ-RI
    Molecular point group: c1

    Geometry (in Angstrom), charge = 0, multiplicity = 1:

       Center              X                  Y                   Z               Mass
    ------------   -----------------  -----------------  -----------------  -----------------
         O           -0.759998488090    -1.113736350241    -0.269234473313    15.994914619570
         O           -0.760247888090     2.559636149759     0.208976926687    15.994914619570
         O            1.978997111910     1.993036149759    -0.334824073313    15.994914619570
         O            2.904306111910    -0.660308850241     0.177415926687    15.994914619570
         O            0.908415111910    -2.712147850241    -0.059394073313    15.994914619570
         O           -3.421202888090    -0.873653850241     0.197757926687    15.994914619570
         C           -0.327864888090     1.266167149759    -0.230433073313    12.000000000000
         C            1.110110111910     1.017454149759     0.209110926687    12.000000000000
         C           -1.234664888090     0.139200149759     0.239125926687    12.000000000000
         C            1.574912111910    -0.367496850241    -0.214794073313    12.000000000000
         C            0.576931111910    -1.413778850241     0.294083926687    12.000000000000
         C           -2.653519888090     0.215777149759    -0.288635073313    12.000000000000
         H           -0.349468888090     1.316262149759    -1.324754073313     1.007825032230
         H            1.131633111910     1.057978149759     1.319488926687     1.007825032230
         H           -1.268749888090     0.116934149759     1.344360926687     1.007825032230
         H            1.574958111910    -0.412060850241    -1.311706073313     1.007825032230
         H            0.519189111910    -1.401139850241     1.394136926687     1.007825032230
         H           -2.616178888090     0.231462149759    -1.388181073313     1.007825032230
         H           -3.135524888090     1.134146149759     0.053296926687     1.007825032230
         H           -0.833773888090     2.525234149759     1.181563926687     1.007825032230
         H            1.499618111910     2.839385149759    -0.243129073313     1.007825032230
         H            2.995826111910    -0.439103850241     1.121281926687     1.007825032230
         H            1.246985111910    -2.698074850241    -0.972518073313     1.007825032230
         H           -2.898638888090    -1.668572850241    -0.015978073313     1.007825032230

  Basis Set: AUG-CC-PVTZ
    Blend: AUG-CC-PVTZ
  Basis Set: (AUG-CC-PVTZ AUX)
    Blend: AUG-CC-PVTZ-JKFIT
	 Reference Energy          =    -683.5993743896060550 [Eh]
	 Singles Energy            =      -0.0000000000000000 [Eh]
	 Same-Spin Energy          =      -0.6660406527683187 [Eh]
	 Opposite-Spin Energy      =      -2.0467249147244599 [Eh]
	 Correlation Energy        =      -2.7127655674927786 [Eh]
	 Total Energy              =    -686.3121399570987933 [Eh]

	 ================> DF-SCS-MP2 Energies <==================
	-----------------------------------------------------------
	 SCS Same-Spin Scale       =       0.3333333333333333 [-]
	 SCS Opposite-Spin Scale   =       1.2000000000000000 [-]
	 SCS Same-Spin Energy      =      -0.2220135509227729 [Eh]
	 SCS Opposite-Spin Energy  =      -2.4560698976693520 [Eh]
	 SCS Correlation Energy    =      -2.6780834485921248 [Eh]
	 SCS Total Energy          =    -686.2774578381981883 [Eh]
	-----------------------------------------------------------

  Dipole Moment: [D]
     X:     0.4535      Y:     1.5518      Z:     1.4203     Total:     2.1520

*** Psi4 exiting successfully. Buy a developer a beer!
