                               Psi4 1.3.2 release

  ==> Input File <==

--------------------------------------------------------------------------
#psi4
#
memory 32 gb

molecule  {
0 1
  O       -0.7087550    -1.1193400    -0.2546710
  O       -0.7529000     2.5454980     0.2011280
  O        1.9863450     1.9788980    -0.3426730
  O        2.9116540    -0.6744470     0.1695670
  O        0.9157630    -2.7262860    -0.0672430
  O       -3.4138550    -0.8877920     0.1899090
  C       -0.3205170     1.2520290    -0.2382820
  C        1.1174580     1.0033160     0.2012620
  C       -1.2273170     0.1250620     0.2312770
  C        1.7699433    -0.4229741    -0.1672710
  C        0.5842790    -1.4279170     0.2862350
  C       -2.6461720     0.2016390    -0.2964840
  H       -0.3421210     1.3021240    -1.3326030
  H        1.1389810     1.0438400     1.3116400
  H       -1.2614020     0.1027960     1.3365120
  H        1.5823060    -0.4261990    -1.3195550
  H        0.5265370    -1.4152780     1.3862880
  H       -2.6088310     0.2173240    -1.3960300
  H       -3.1281770     1.1200080     0.0454480
  H       -0.8264260     2.5110960     1.1737150
  H        1.5069660     2.8252470    -0.2509780
  H        3.0031740    -0.4532420     1.1134330
  H        1.2543330    -2.7122130    -0.9803670
  H       -2.8912910    -1.6827110    -0.0238270
units angstrom
no_reorient  #important for SAPT in psi4, default
symmetry c1  #important for SAPT in psi4, default
}

set PROPERTIES_ORIGIN ["COM"]
properties('MP2/aug-cc-pvtz', properties = ['dipole'])
--------------------------------------------------------------------------

    Molecular point group: c1
  Charge       = 0
  Multiplicity = 1
  Basis Set: AUG-CC-PVTZ
    Blend: AUG-CC-PVTZ
  Basis Set: (AUG-CC-PVTZ AUX)
    Blend: AUG-CC-PVTZ-JKFIT

    Orbital Energies [Eh]
    ---------------------

    Doubly Occupied:

       1A    -20.604424     2A    -20.596290     3A    -20.587866
       4A    -20.576381     5A    -20.572313     6A    -20.560291
       7A    -11.347340     8A    -11.313783     9A    -11.307949
      10A    -11.304348    11A    -11.303416    12A    -11.284358
      13A     -1.492268    14A     -1.428963    15A     -1.400930
      16A     -1.370163    17A     -1.367907    18A     -1.349238
      19A     -1.067575    20A     -1.028859    21A     -0.939706
      22A     -0.885241    23A     -0.864370    24A     -0.839976
      25A     -0.759983    26A     -0.743811    27A     -0.729526
      28A     -0.709841    29A     -0.695600    30A     -0.684593
      31A     -0.659197    32A     -0.658010    33A     -0.641270
      34A     -0.618033    35A     -0.601339    36A     -0.592990
      37A     -0.577242    38A     -0.564057    39A     -0.555409
      40A     -0.536804    41A     -0.525689    42A     -0.517941
      43A     -0.490515    44A     -0.478403    45A     -0.458115
      46A     -0.447708    47A     -0.440231    48A     -0.398160

  @DF-RHF Final Energy:  -683.55609008773627

   => Energetics <=

    Nuclear Repulsion Energy =            823.6174713439112338
    One-Electron Energy =               -2575.3902861273186318
    Two-Electron Energy =                1068.2167246956710187
    Total Energy =                       -683.5560900877362656
  Basis Set: (AUG-CC-PVTZ AUX)
    Blend: AUG-CC-PVTZ-RI
    Molecular point group: c1

    Geometry (in Angstrom), charge = 0, multiplicity = 1:

       Center              X                  Y                   Z               Mass
    ------------   -----------------  -----------------  -----------------  -----------------
         O           -0.732509921221    -1.103204994551    -0.252503119500    15.994914619570
         O           -0.776654921221     2.561633005449     0.203295880500    15.994914619570
         O            1.962590078779     1.995033005449    -0.340505119500    15.994914619570
         O            2.887899078779    -0.658311994551     0.171734880500    15.994914619570
         O            0.892008078779    -2.710150994551    -0.065075119500    15.994914619570
         O           -3.437609921221    -0.871656994551     0.192076880500    15.994914619570
         C           -0.344271921221     1.268164005449    -0.236114119500    12.000000000000
         C            1.093703078779     1.019451005449     0.203429880500    12.000000000000
         C           -1.251071921221     0.141197005449     0.233444880500    12.000000000000
         C            1.746188378779    -0.406839094551    -0.165103119500    12.000000000000
         C            0.560524078779    -1.411781994551     0.288402880500    12.000000000000
         C           -2.669926921221     0.217774005449    -0.294316119500    12.000000000000
         H           -0.365875921221     1.318259005449    -1.330435119500     1.007825032230
         H            1.115226078779     1.059975005449     1.313807880500     1.007825032230
         H           -1.285156921221     0.118931005449     1.338679880500     1.007825032230
         H            1.558551078779    -0.410063994551    -1.317387119500     1.007825032230
         H            0.502782078779    -1.399142994551     1.388455880500     1.007825032230
         H           -2.632585921221     0.233459005449    -1.393862119500     1.007825032230
         H           -3.151931921221     1.136143005449     0.047615880500     1.007825032230
         H           -0.850180921221     2.527231005449     1.175882880500     1.007825032230
         H            1.483211078779     2.841382005449    -0.248810119500     1.007825032230
         H            2.979419078779    -0.437106994551     1.115600880500     1.007825032230
         H            1.230578078779    -2.696077994551    -0.978199119500     1.007825032230
         H           -2.915045921221    -1.666575994551    -0.021659119500     1.007825032230

  Basis Set: AUG-CC-PVTZ
    Blend: AUG-CC-PVTZ
  Basis Set: (AUG-CC-PVTZ AUX)
    Blend: AUG-CC-PVTZ-JKFIT
	 Reference Energy          =    -683.5560900877362656 [Eh]
	 Singles Energy            =      -0.0000000000000000 [Eh]
	 Same-Spin Energy          =      -0.6666064321389447 [Eh]
	 Opposite-Spin Energy      =      -2.0449916489224611 [Eh]
	 Correlation Energy        =      -2.7115980810614060 [Eh]
	 Total Energy              =    -686.2676881687976902 [Eh]

	 ================> DF-SCS-MP2 Energies <==================
	-----------------------------------------------------------
	 SCS Same-Spin Scale       =       0.3333333333333333 [-]
	 SCS Opposite-Spin Scale   =       1.2000000000000000 [-]
	 SCS Same-Spin Energy      =      -0.2222021440463149 [Eh]
	 SCS Opposite-Spin Energy  =      -2.4539899787069532 [Eh]
	 SCS Correlation Energy    =      -2.6761921227532683 [Eh]
	 SCS Total Energy          =    -686.2322822104895295 [Eh]
	-----------------------------------------------------------

  Dipole Moment: [D]
     X:     1.0677      Y:     1.4728      Z:     1.6091     Total:     2.4287

*** Psi4 exiting successfully. Buy a developer a beer!
