                               Psi4 1.3.2 release

  ==> Input File <==

--------------------------------------------------------------------------
#psi4
#
memory 32 gb

molecule  {
0 1
  O       -0.7087550    -1.1193400    -0.2546710
  O       -0.7529000     2.5454980     0.2011280
  O        1.9863450     1.9788980    -0.3426730
  O        2.9116540    -0.6744470     0.1695670
  O        0.9157630    -2.7262860    -0.0672430
  O       -3.4138550    -0.8877920     0.1899090
  C       -0.3205170     1.2520290    -0.2382820
  C        1.1174580     1.0033160     0.2012620
  C       -1.2273170     0.1250620     0.2312770
  C        1.5822600    -0.3816350    -0.2226430
  C        0.5842790    -1.4279170     0.2862350
  C       -2.6551835     0.2015168    -0.2716117
  H       -0.3421210     1.3021240    -1.3326030
  H        1.1389810     1.0438400     1.3116400
  H       -1.2614020     0.1027960     1.3365120
  H        1.5823060    -0.4261990    -1.3195550
  H        0.5265370    -1.4152780     1.3862880
  H       -2.6088310     0.2173240    -1.3960300
  H       -3.1281770     1.1200080     0.0454480
  H       -0.8264260     2.5110960     1.1737150
  H        1.5069660     2.8252470    -0.2509780
  H        3.0031740    -0.4532420     1.1134330
  H        1.2543330    -2.7122130    -0.9803670
  H       -2.8912910    -1.6827110    -0.0238270
units angstrom
no_reorient  #important for SAPT in psi4, default
symmetry c1  #important for SAPT in psi4, default
}

set PROPERTIES_ORIGIN ["COM"]
properties('MP2/aug-cc-pvtz', properties = ['dipole'])
--------------------------------------------------------------------------

    Molecular point group: c1
  Charge       = 0
  Multiplicity = 1
  Basis Set: AUG-CC-PVTZ
    Blend: AUG-CC-PVTZ
  Basis Set: (AUG-CC-PVTZ AUX)
    Blend: AUG-CC-PVTZ-JKFIT

    Orbital Energies [Eh]
    ---------------------

    Doubly Occupied:

       1A    -20.598266     2A    -20.588721     3A    -20.583840
       4A    -20.579225     5A    -20.577430     6A    -20.563789
       7A    -11.356985     8A    -11.310543     9A    -11.309650
      10A    -11.307797    11A    -11.305060    12A    -11.288080
      13A     -1.440252    14A     -1.405014    15A     -1.388039
      16A     -1.374817    17A     -1.366192    18A     -1.355491
      19A     -1.080741    20A     -1.050703    21A     -0.946052
      22A     -0.891104    23A     -0.854559    24A     -0.841938
      25A     -0.754565    26A     -0.729193    27A     -0.721115
      28A     -0.709725    29A     -0.694780    30A     -0.675602
      31A     -0.660385    32A     -0.654207    33A     -0.620548
      34A     -0.615211    35A     -0.602815    36A     -0.586879
      37A     -0.570751    38A     -0.562186    39A     -0.556157
      40A     -0.543344    41A     -0.527978    42A     -0.516835
      43A     -0.502825    44A     -0.487104    45A     -0.474253
      46A     -0.459626    47A     -0.444672    48A     -0.431313

  @DF-RHF Final Energy:  -683.60342744811021

   => Energetics <=

    Nuclear Repulsion Energy =            824.7059335681466337
    One-Electron Energy =               -2577.6859994654882939
    Two-Electron Energy =                1069.3766384492314501
    Total Energy =                       -683.6034274481103239
  Basis Set: (AUG-CC-PVTZ AUX)
    Blend: AUG-CC-PVTZ-RI
    Molecular point group: c1

    Geometry (in Angstrom), charge = 0, multiplicity = 1:

       Center              X                  Y                   Z               Mass
    ------------   -----------------  -----------------  -----------------  -----------------
         O           -0.719401550747    -1.105951820573    -0.250470521958    15.994914619570
         O           -0.763546550747     2.558886179427     0.205328478042    15.994914619570
         O            1.975698449253     1.992286179427    -0.338472521958    15.994914619570
         O            2.901007449253    -0.661058820573     0.173767478042    15.994914619570
         O            0.905116449253    -2.712897820573    -0.063042521958    15.994914619570
         O           -3.424501550747    -0.874403820573     0.194109478042    15.994914619570
         C           -0.331163550747     1.265417179427    -0.234081521958    12.000000000000
         C            1.106811449253     1.016704179427     0.205462478042    12.000000000000
         C           -1.237963550747     0.138450179427     0.235477478042    12.000000000000
         C            1.571613449253    -0.368246820573    -0.218442521958    12.000000000000
         C            0.573632449253    -1.414528820573     0.290435478042    12.000000000000
         C           -2.665830050747     0.214904979427    -0.267411221958    12.000000000000
         H           -0.352767550747     1.315512179427    -1.328402521958     1.007825032230
         H            1.128334449253     1.057228179427     1.315840478042     1.007825032230
         H           -1.272048550747     0.116184179427     1.340712478042     1.007825032230
         H            1.571659449253    -0.412810820573    -1.315354521958     1.007825032230
         H            0.515890449253    -1.401889820573     1.390488478042     1.007825032230
         H           -2.619477550747     0.230712179427    -1.391829521958     1.007825032230
         H           -3.138823550747     1.133396179427     0.049648478042     1.007825032230
         H           -0.837072550747     2.524484179427     1.177915478042     1.007825032230
         H            1.496319449253     2.838635179427    -0.246777521958     1.007825032230
         H            2.992527449253    -0.439853820573     1.117633478042     1.007825032230
         H            1.243686449253    -2.698824820573    -0.976166521958     1.007825032230
         H           -2.901937550747    -1.669322820573    -0.019626521958     1.007825032230

  Basis Set: AUG-CC-PVTZ
    Blend: AUG-CC-PVTZ
  Basis Set: (AUG-CC-PVTZ AUX)
    Blend: AUG-CC-PVTZ-JKFIT
	 Reference Energy          =    -683.6034274481102102 [Eh]
	 Singles Energy            =      -0.0000000000000000 [Eh]
	 Same-Spin Energy          =      -0.6654382800801428 [Eh]
	 Opposite-Spin Energy      =      -2.0446099949555974 [Eh]
	 Correlation Energy        =      -2.7100482750357404 [Eh]
	 Total Energy              =    -686.3134757231459844 [Eh]

	 ================> DF-SCS-MP2 Energies <==================
	-----------------------------------------------------------
	 SCS Same-Spin Scale       =       0.3333333333333333 [-]
	 SCS Opposite-Spin Scale   =       1.2000000000000000 [-]
	 SCS Same-Spin Energy      =      -0.2218127600267143 [Eh]
	 SCS Opposite-Spin Energy  =      -2.4535319939467168 [Eh]
	 SCS Correlation Energy    =      -2.6753447539734312 [Eh]
	 SCS Total Energy          =    -686.2787722020835872 [Eh]
	-----------------------------------------------------------

  Dipole Moment: [D]
     X:     0.1900      Y:     1.5747      Z:     1.4136     Total:     2.1246

*** Psi4 exiting successfully. Buy a developer a beer!
