                               Psi4 1.3.2 release

  ==> Input File <==

--------------------------------------------------------------------------
#psi4
#
memory 32 gb

molecule  {
0 1
  O       -0.7087550    -1.1193400    -0.2546710
  O       -0.7529000     2.5454980     0.2011280
  O        1.9863450     1.9788980    -0.3426730
  O        2.9116540    -0.6744470     0.1695670
  O        0.9157630    -2.7262860    -0.0672430
  O       -3.4138550    -0.8877920     0.1899090
  C       -0.2601647     1.0714858    -0.2996151
  C        1.1174580     1.0033160     0.2012620
  C       -1.2273170     0.1250620     0.2312770
  C        1.5822600    -0.3816350    -0.2226430
  C        0.5842790    -1.4279170     0.2862350
  C       -2.6461720     0.2016390    -0.2964840
  H       -0.3421210     1.3021240    -1.3326030
  H        1.1389810     1.0438400     1.3116400
  H       -1.2614020     0.1027960     1.3365120
  H        1.5823060    -0.4261990    -1.3195550
  H        0.5265370    -1.4152780     1.3862880
  H       -2.6088310     0.2173240    -1.3960300
  H       -3.1281770     1.1200080     0.0454480
  H       -0.8264260     2.5110960     1.1737150
  H        1.5069660     2.8252470    -0.2509780
  H        3.0031740    -0.4532420     1.1134330
  H        1.2543330    -2.7122130    -0.9803670
  H       -2.8912910    -1.6827110    -0.0238270
units angstrom
no_reorient  #important for SAPT in psi4, default
symmetry c1  #important for SAPT in psi4, default
}

set PROPERTIES_ORIGIN ["COM"]
properties('MP2/aug-cc-pvtz', properties = ['dipole'])
--------------------------------------------------------------------------

    Molecular point group: c1
  Charge       = 0
  Multiplicity = 1
  Basis Set: AUG-CC-PVTZ
    Blend: AUG-CC-PVTZ
  Basis Set: (AUG-CC-PVTZ AUX)
    Blend: AUG-CC-PVTZ-JKFIT

    Orbital Energies [Eh]
    ---------------------

    Doubly Occupied:

       1A    -20.590556     2A    -20.587460     3A    -20.581716
       4A    -20.580899     5A    -20.569845     6A    -20.567254
       7A    -11.361315     8A    -11.317320     9A    -11.315271
      10A    -11.312970    11A    -11.308183    12A    -11.291636
      13A     -1.446537    14A     -1.396392    15A     -1.384406
      16A     -1.370915    17A     -1.358543    18A     -1.324173
      19A     -1.104803    20A     -1.060758    21A     -0.952226
      22A     -0.894164    23A     -0.862848    24A     -0.845401
      25A     -0.757836    26A     -0.732263    27A     -0.721653
      28A     -0.701281    29A     -0.688746    30A     -0.682437
      31A     -0.665893    32A     -0.656731    33A     -0.612670
      34A     -0.604690    35A     -0.597071    36A     -0.583432
      37A     -0.571900    38A     -0.569280    39A     -0.549657
      40A     -0.533504    41A     -0.524577    42A     -0.516254
      43A     -0.498376    44A     -0.489387    45A     -0.481968
      46A     -0.468402    47A     -0.453865    48A     -0.436249

  @DF-RHF Final Energy:  -683.56874598103832

   => Energetics <=

    Nuclear Repulsion Energy =            826.0390469623418994
    One-Electron Energy =               -2580.2481675926778735
    Two-Electron Energy =                1070.6403746492976552
    Total Energy =                       -683.5687459810383189
  Basis Set: (AUG-CC-PVTZ AUX)
    Blend: AUG-CC-PVTZ-RI
    Molecular point group: c1

    Geometry (in Angstrom), charge = 0, multiplicity = 1:

       Center              X                  Y                   Z               Mass
    ------------   -----------------  -----------------  -----------------  -----------------
         O           -0.724024176194    -1.093927988172    -0.244725518430    15.994914619570
         O           -0.768169176194     2.570910011828     0.211073481570    15.994914619570
         O            1.971075823806     2.004310011828    -0.332727518430    15.994914619570
         O            2.896384823806    -0.649034988172     0.179512481570    15.994914619570
         O            0.900493823806    -2.700873988172    -0.057297518430    15.994914619570
         O           -3.429124176194    -0.862379988172     0.199854481570    15.994914619570
         C           -0.275433876194     1.096897811828    -0.289669618430    12.000000000000
         C            1.102188823806     1.028728011828     0.211207481570    12.000000000000
         C           -1.242586176194     0.150474011828     0.241222481570    12.000000000000
         C            1.566990823806    -0.356222988172    -0.212697518430    12.000000000000
         C            0.569009823806    -1.402504988172     0.296180481570    12.000000000000
         C           -2.661441176194     0.227051011828    -0.286538518430    12.000000000000
         H           -0.357390176194     1.327536011828    -1.322657518430     1.007825032230
         H            1.123711823806     1.069252011828     1.321585481570     1.007825032230
         H           -1.276671176194     0.128208011828     1.346457481570     1.007825032230
         H            1.567036823806    -0.400786988172    -1.309609518430     1.007825032230
         H            0.511267823806    -1.389865988172     1.396233481570     1.007825032230
         H           -2.624100176194     0.242736011828    -1.386084518430     1.007825032230
         H           -3.143446176194     1.145420011828     0.055393481570     1.007825032230
         H           -0.841695176194     2.536508011828     1.183660481570     1.007825032230
         H            1.491696823806     2.850659011828    -0.241032518430     1.007825032230
         H            2.987904823806    -0.427829988172     1.123378481570     1.007825032230
         H            1.239063823806    -2.686800988172    -0.970421518430     1.007825032230
         H           -2.906560176194    -1.657298988172    -0.013881518430     1.007825032230

  Basis Set: AUG-CC-PVTZ
    Blend: AUG-CC-PVTZ
  Basis Set: (AUG-CC-PVTZ AUX)
    Blend: AUG-CC-PVTZ-JKFIT
	 Reference Energy          =    -683.5687459810383189 [Eh]
	 Singles Energy            =      -0.0000000000000000 [Eh]
	 Same-Spin Energy          =      -0.6678696495402386 [Eh]
	 Opposite-Spin Energy      =      -2.0505400851954025 [Eh]
	 Correlation Energy        =      -2.7184097347356411 [Eh]
	 Total Energy              =    -686.2871557157739062 [Eh]

	 ================> DF-SCS-MP2 Energies <==================
	-----------------------------------------------------------
	 SCS Same-Spin Scale       =       0.3333333333333333 [-]
	 SCS Opposite-Spin Scale   =       1.2000000000000000 [-]
	 SCS Same-Spin Energy      =      -0.2226232165134129 [Eh]
	 SCS Opposite-Spin Energy  =      -2.4606481022344830 [Eh]
	 SCS Correlation Energy    =      -2.6832713187478960 [Eh]
	 SCS Total Energy          =    -686.2520172997861891 [Eh]
	-----------------------------------------------------------

  Dipole Moment: [D]
     X:     0.3736      Y:     0.9517      Z:     1.2122     Total:     1.5858

*** Psi4 exiting successfully. Buy a developer a beer!
