                               Psi4 1.4a3.dev225

  ==> Input File <==

--------------------------------------------------------------------------
#psi4
#
memory 32 gb

molecule  {
0 1
  O       -0.7087730    -1.1193010    -0.2547420
  O       -0.7528450     2.5455330     0.2012150
  O        1.9863940     1.9788490    -0.3427120
  O        2.9116460    -0.6744970     0.1694850
  O        0.9156910    -2.7263170    -0.0671110
  O       -3.4138470    -0.8877920     0.1898460
  C       -0.3205030     1.2520640    -0.2382550
  C        1.1174820     1.0032940     0.2012350
  C       -1.2273260     0.1250970     0.2312670
  C        1.5822430    -0.3816820    -0.2226620
  C        0.5722610    -1.3810662     0.2990133
  C       -2.6461850     0.2016990    -0.2964600
  H       -0.3421180     1.3022200    -1.3325700
  H        1.1390340     1.0438120     1.3116130
  H       -1.2614040     0.1027740     1.3364960
  H        1.5822050    -0.4262820    -1.3195710
  H        0.5263940    -1.4152120     1.3863080
  H       -2.6088500     0.2174640    -1.3960030
  H       -3.1281860     1.1200450     0.0455410
  H       -0.8261980     2.5111300     1.1738140
  H        1.5071200     2.8252430    -0.2509020
  H        3.0032160    -0.4533580     1.1133610
  H        1.2544120    -2.7122960    -0.9801810
  H       -2.8913510    -1.6827050    -0.0240770
units angstrom
no_reorient  #important for SAPT in psi4, default
symmetry c1  #important for SAPT in psi4, default
}

set PROPERTIES_ORIGIN ["COM"]
properties('MP2/aug-cc-pvtz', properties = ['dipole'])
--------------------------------------------------------------------------

    Molecular point group: c1
  Charge       = 0
  Multiplicity = 1
  Basis Set: AUG-CC-PVTZ
    Blend: AUG-CC-PVTZ
  Basis Set: (AUG-CC-PVTZ AUX)
    Blend: AUG-CC-PVTZ-JKFIT

    Orbital Energies [Eh]
    ---------------------

    Doubly Occupied:

       1A    -20.599819     2A    -20.594100     3A    -20.580450
       4A    -20.578094     5A    -20.575534     6A    -20.564162
       7A    -11.356569     8A    -11.312220     9A    -11.310450
      10A    -11.309954    11A    -11.305918    12A    -11.288754
      13A     -1.439636    14A     -1.405392    15A     -1.388717
      16A     -1.369326    17A     -1.365294    18A     -1.346552
      19A     -1.084394    20A     -1.055308    21A     -0.948440
      22A     -0.891223    23A     -0.855341    24A     -0.844894
      25A     -0.751819    26A     -0.732679    27A     -0.722762
      28A     -0.707376    29A     -0.693613    30A     -0.674859
      31A     -0.657783    32A     -0.652828    33A     -0.621722
      34A     -0.616068    35A     -0.597630    36A     -0.585842
      37A     -0.568450    38A     -0.564438    39A     -0.556137
      40A     -0.544060    41A     -0.527747    42A     -0.514077
      43A     -0.505325    44A     -0.488696    45A     -0.475874
      46A     -0.463988    47A     -0.448014    48A     -0.435215

  @DF-RHF Final Energy:  -683.60040079770852

   => Energetics <=

    Nuclear Repulsion Energy =            825.0446268209286700
    One-Electron Energy =               -2578.3349731637895275
    Two-Electron Energy =                1069.6899455451523409
    Total Energy =                       -683.6004007977085166
  Basis Set: (AUG-CC-PVTZ AUX)
    Blend: AUG-CC-PVTZ-RI
    Molecular point group: c1

    Geometry (in Angstrom), charge = 0, multiplicity = 1:

       Center              X                  Y                   Z               Mass
    ------------   -----------------  -----------------  -----------------  -----------------
         O           -0.719221624278    -1.109042582970    -0.249732864400    15.994914619570
         O           -0.763293624278     2.555791417030     0.206224135600    15.994914619570
         O            1.975945375722     1.989107417030    -0.337702864400    15.994914619570
         O            2.901197375722    -0.664238582970     0.174494135600    15.994914619570
         O            0.905242375722    -2.716058582970    -0.062101864400    15.994914619570
         O           -3.424295624278    -0.877533582970     0.194855135600    15.994914619570
         C           -0.330951624278     1.262322417030    -0.233245864400    12.000000000000
         C            1.107033375722     1.013552417030     0.206244135600    12.000000000000
         C           -1.237774624278     0.135355417030     0.236276135600    12.000000000000
         C            1.571794375722    -0.371423582970    -0.217652864400    12.000000000000
         C            0.561812375722    -1.370807782970     0.304022435600    12.000000000000
         C           -2.656633624278     0.211957417030    -0.291450864400    12.000000000000
         H           -0.352566624278     1.312478417030    -1.327560864400     1.007825032230
         H            1.128585375722     1.054070417030     1.316622135600     1.007825032230
         H           -1.271852624278     0.113032417030     1.341505135600     1.007825032230
         H            1.571756375722    -0.416023582970    -1.314561864400     1.007825032230
         H            0.515945375722    -1.404953582970     1.391317135600     1.007825032230
         H           -2.619298624278     0.227722417030    -1.390993864400     1.007825032230
         H           -3.138634624278     1.130303417030     0.050550135600     1.007825032230
         H           -0.836646624278     2.521388417030     1.178823135600     1.007825032230
         H            1.496671375722     2.835501417030    -0.245892864400     1.007825032230
         H            2.992767375722    -0.443099582970     1.118370135600     1.007825032230
         H            1.243963375722    -2.702037582970    -0.975171864400     1.007825032230
         H           -2.901799624278    -1.672446582970    -0.019067864400     1.007825032230

  Basis Set: AUG-CC-PVTZ
    Blend: AUG-CC-PVTZ
  Basis Set: (AUG-CC-PVTZ AUX)
    Blend: AUG-CC-PVTZ-JKFIT
	 Reference Energy          =    -683.6004007977085166 [Eh]
	 Singles Energy            =      -0.0000000000000000 [Eh]
	 Same-Spin Energy          =      -0.6657093331002998 [Eh]
	 Opposite-Spin Energy      =      -2.0458094614541142 [Eh]
	 Correlation Energy        =      -2.7115187945544141 [Eh]
	 Total Energy              =    -686.3119195922629387 [Eh]

	 ================> DF-SCS-MP2 Energies <==================
	-----------------------------------------------------------
	 SCS Same-Spin Scale       =       0.3333333333333333 [-]
	 SCS Opposite-Spin Scale   =       1.2000000000000000 [-]
	 SCS Same-Spin Energy      =      -0.2219031110334332 [Eh]
	 SCS Opposite-Spin Energy  =      -2.4549713537449369 [Eh]
	 SCS Correlation Energy    =      -2.6768744647783702 [Eh]
	 SCS Total Energy          =    -686.2772752624869099 [Eh]
	-----------------------------------------------------------

  Dipole Moment: [D]
     X:     0.0959      Y:     1.8554      Z:     1.4157     Total:     2.3358

*** Psi4 exiting successfully. Buy a developer a beer!
