                               Psi4 1.3.2 release

  ==> Input File <==

--------------------------------------------------------------------------
#psi4
#
memory 32 gb

molecule  {
0 1
  O       -0.7087550    -1.1193400    -0.2546710
  O       -0.7529000     2.5454980     0.2011280
  O        1.9863450     1.9788980    -0.3426730
  O        2.9116540    -0.6744470     0.1695670
  O        0.9157630    -2.7262860    -0.0672430
  O       -3.4138550    -0.8877920     0.1899090
  C       -0.3205170     1.2520290    -0.2382820
  C        1.0847321     1.0390531     0.2108393
  C       -1.2273170     0.1250620     0.2312770
  C        1.5822600    -0.3816350    -0.2226430
  C        0.5842790    -1.4279170     0.2862350
  C       -2.6461720     0.2016390    -0.2964840
  H       -0.3421210     1.3021240    -1.3326030
  H        1.1389810     1.0438400     1.3116400
  H       -1.2614020     0.1027960     1.3365120
  H        1.5823060    -0.4261990    -1.3195550
  H        0.5265370    -1.4152780     1.3862880
  H       -2.6088310     0.2173240    -1.3960300
  H       -3.1281770     1.1200080     0.0454480
  H       -0.8264260     2.5110960     1.1737150
  H        1.5069660     2.8252470    -0.2509780
  H        3.0031740    -0.4532420     1.1134330
  H        1.2543330    -2.7122130    -0.9803670
  H       -2.8912910    -1.6827110    -0.0238270
units angstrom
no_reorient  #important for SAPT in psi4, default
symmetry c1  #important for SAPT in psi4, default
}

set PROPERTIES_ORIGIN ["COM"]
properties('MP2/aug-cc-pvtz', properties = ['dipole'])
--------------------------------------------------------------------------

    Molecular point group: c1
  Charge       = 0
  Multiplicity = 1
  Basis Set: AUG-CC-PVTZ
    Blend: AUG-CC-PVTZ
  Basis Set: (AUG-CC-PVTZ AUX)
    Blend: AUG-CC-PVTZ-JKFIT

    Orbital Energies [Eh]
    ---------------------

    Doubly Occupied:

       1A    -20.597097     2A    -20.588348     3A    -20.582858
       4A    -20.579564     5A    -20.578871     6A    -20.563072
       7A    -11.355639     8A    -11.309536     9A    -11.308932
      10A    -11.308510    11A    -11.305858    12A    -11.287771
      13A     -1.439648    14A     -1.406290    15A     -1.387000
      16A     -1.372595    17A     -1.366446    18A     -1.352995
      19A     -1.081758    20A     -1.047851    21A     -0.948646
      22A     -0.887293    23A     -0.855735    24A     -0.842950
      25A     -0.752917    26A     -0.728319    27A     -0.723136
      28A     -0.709783    29A     -0.694499    30A     -0.675294
      31A     -0.659255    32A     -0.649662    33A     -0.620930
      34A     -0.615969    35A     -0.598135    36A     -0.587708
      37A     -0.572523    38A     -0.563015    39A     -0.555999
      40A     -0.542797    41A     -0.527320    42A     -0.516405
      43A     -0.501588    44A     -0.487248    45A     -0.472917
      46A     -0.463179    47A     -0.447004    48A     -0.430452

  @DF-RHF Final Energy:  -683.60117237254201

   => Energetics <=

    Nuclear Repulsion Energy =            824.5673286047808688
    One-Electron Energy =               -2577.4343662541214144
    Two-Electron Energy =                1069.2658652767986496
    Total Energy =                       -683.6011723725418960
  Basis Set: (AUG-CC-PVTZ AUX)
    Blend: AUG-CC-PVTZ-RI
    Molecular point group: c1

    Geometry (in Angstrom), charge = 0, multiplicity = 1:

       Center              X                  Y                   Z               Mass
    ------------   -----------------  -----------------  -----------------  -----------------
         O           -0.717821147296    -1.108341598998    -0.249451214247    15.994914619570
         O           -0.761966147296     2.556496401002     0.206347785753    15.994914619570
         O            1.977278852704     1.989896401002    -0.337453214247    15.994914619570
         O            2.902587852704    -0.663448598998     0.174786785753    15.994914619570
         O            0.906696852704    -2.715287598998    -0.062023214247    15.994914619570
         O           -3.422921147296    -0.876793598998     0.195128785753    15.994914619570
         C           -0.329583147296     1.263027401002    -0.233062214247    12.000000000000
         C            1.075665952704     1.050051501002     0.216059085753    12.000000000000
         C           -1.236383147296     0.136060401002     0.236496785753    12.000000000000
         C            1.573193852704    -0.370636598998    -0.217423214247    12.000000000000
         C            0.575212852704    -1.416918598998     0.291454785753    12.000000000000
         C           -2.655238147296     0.212637401002    -0.291264214247    12.000000000000
         H           -0.351187147296     1.313122401002    -1.327383214247     1.007825032230
         H            1.129914852704     1.054838401002     1.316859785753     1.007825032230
         H           -1.270468147296     0.113794401002     1.341731785753     1.007825032230
         H            1.573239852704    -0.415200598998    -1.314335214247     1.007825032230
         H            0.517470852704    -1.404279598998     1.391507785753     1.007825032230
         H           -2.617897147296     0.228322401002    -1.390810214247     1.007825032230
         H           -3.137243147296     1.131006401002     0.050667785753     1.007825032230
         H           -0.835492147296     2.522094401002     1.178934785753     1.007825032230
         H            1.497899852704     2.836245401002    -0.245758214247     1.007825032230
         H            2.994107852704    -0.442243598998     1.118652785753     1.007825032230
         H            1.245266852704    -2.701214598998    -0.975147214247     1.007825032230
         H           -2.900357147296    -1.671712598998    -0.018607214247     1.007825032230

  Basis Set: AUG-CC-PVTZ
    Blend: AUG-CC-PVTZ
  Basis Set: (AUG-CC-PVTZ AUX)
    Blend: AUG-CC-PVTZ-JKFIT
	 Reference Energy          =    -683.6011723725420097 [Eh]
	 Singles Energy            =      -0.0000000000000000 [Eh]
	 Same-Spin Energy          =      -0.6655933136871766 [Eh]
	 Opposite-Spin Energy      =      -2.0452430985299976 [Eh]
	 Correlation Energy        =      -2.7108364122171742 [Eh]
	 Total Energy              =    -686.3120087847592004 [Eh]

	 ================> DF-SCS-MP2 Energies <==================
	-----------------------------------------------------------
	 SCS Same-Spin Scale       =       0.3333333333333333 [-]
	 SCS Opposite-Spin Scale   =       1.2000000000000000 [-]
	 SCS Same-Spin Energy      =      -0.2218644378957255 [Eh]
	 SCS Opposite-Spin Energy  =      -2.4542917182359969 [Eh]
	 SCS Correlation Energy    =      -2.6761561561317224 [Eh]
	 SCS Total Energy          =    -686.2773285286737064 [Eh]
	-----------------------------------------------------------

  Dipole Moment: [D]
     X:     0.2218      Y:     1.6194      Z:     1.3761     Total:     2.1367

*** Psi4 exiting successfully. Buy a developer a beer!
