                               Psi4 1.3.2 release

  ==> Input File <==

--------------------------------------------------------------------------
#psi4
#
memory 32 gb

molecule  {
0 1
  O       -0.7087550    -1.1193400    -0.2546710
  O       -0.7529000     2.5454980     0.2011280
  O        1.9863450     1.9788980    -0.3426730
  O        2.9116540    -0.6744470     0.1695670
  O        0.9157630    -2.7262860    -0.0672430
  O       -3.4138550    -0.8877920     0.1899090
  C       -0.3205170     1.2520290    -0.2382820
  C        1.1174580     1.0033160     0.2012620
  C       -1.2273170     0.1250620     0.2312770
  C        1.5822600    -0.3816350    -0.2226430
  C        0.5572611    -1.4619467     0.3726580
  C       -2.6461720     0.2016390    -0.2964840
  H       -0.3421210     1.3021240    -1.3326030
  H        1.1389810     1.0438400     1.3116400
  H       -1.2614020     0.1027960     1.3365120
  H        1.5823060    -0.4261990    -1.3195550
  H        0.5265370    -1.4152780     1.3862880
  H       -2.6088310     0.2173240    -1.3960300
  H       -3.1281770     1.1200080     0.0454480
  H       -0.8264260     2.5110960     1.1737150
  H        1.5069660     2.8252470    -0.2509780
  H        3.0031740    -0.4532420     1.1134330
  H        1.2543330    -2.7122130    -0.9803670
  H       -2.8912910    -1.6827110    -0.0238270
units angstrom
no_reorient  #important for SAPT in psi4, default
symmetry c1  #important for SAPT in psi4, default
}

set PROPERTIES_ORIGIN ["COM"]
properties('MP2/aug-cc-pvtz', properties = ['dipole'])
--------------------------------------------------------------------------

    Molecular point group: c1
  Charge       = 0
  Multiplicity = 1
  Basis Set: AUG-CC-PVTZ
    Blend: AUG-CC-PVTZ
  Basis Set: (AUG-CC-PVTZ AUX)
    Blend: AUG-CC-PVTZ-JKFIT

    Orbital Energies [Eh]
    ---------------------

    Doubly Occupied:

       1A    -20.597215     2A    -20.586999     3A    -20.581296
       4A    -20.576735     5A    -20.575970     6A    -20.562119
       7A    -11.356030     8A    -11.308955     9A    -11.307395
      10A    -11.306758    11A    -11.305437    12A    -11.286491
      13A     -1.434715    14A     -1.403618    15A     -1.385249
      16A     -1.370795    17A     -1.364050    18A     -1.350265
      19A     -1.077173    20A     -1.044169    21A     -0.943008
      22A     -0.900415    23A     -0.850416    24A     -0.843023
      25A     -0.752802    26A     -0.725939    27A     -0.718329
      28A     -0.712493    29A     -0.693337    30A     -0.672373
      31A     -0.664950    32A     -0.653571    33A     -0.618697
      34A     -0.615523    35A     -0.596558    36A     -0.590592
      37A     -0.566275    38A     -0.560031    39A     -0.554269
      40A     -0.542837    41A     -0.530274    42A     -0.517126
      43A     -0.505032    44A     -0.484551    45A     -0.473379
      46A     -0.460200    47A     -0.443195    48A     -0.420864

  @DF-RHF Final Energy:  -683.59302482160592

   => Energetics <=

    Nuclear Repulsion Energy =            823.4837527609251993
    One-Electron Energy =               -2575.3705687713895713
    Two-Electron Energy =                1068.2937911888584495
    Total Energy =                       -683.5930248216059226
  Basis Set: (AUG-CC-PVTZ AUX)
    Blend: AUG-CC-PVTZ-RI
    Molecular point group: c1

    Geometry (in Angstrom), charge = 0, multiplicity = 1:

       Center              X                  Y                   Z               Mass
    ------------   -----------------  -----------------  -----------------  -----------------
         O           -0.718201546669    -1.103692116341    -0.254572457436    15.994914619570
         O           -0.762346546669     2.561145883659     0.201226542564    15.994914619570
         O            1.976898453331     1.994545883659    -0.342574457436    15.994914619570
         O            2.902207453331    -0.658799116341     0.169665542564    15.994914619570
         O            0.906316453331    -2.710638116341    -0.067144457436    15.994914619570
         O           -3.423301546669    -0.872144116341     0.190007542564    15.994914619570
         C           -0.329963546669     1.267676883659    -0.238183457436    12.000000000000
         C            1.108011453331     1.018963883659     0.201360542564    12.000000000000
         C           -1.236763546669     0.140709883659     0.231375542564    12.000000000000
         C            1.572813453331    -0.365987116341    -0.222544457436    12.000000000000
         C            0.547814553331    -1.446298816341     0.372756542564    12.000000000000
         C           -2.655618546669     0.217286883659    -0.296385457436    12.000000000000
         H           -0.351567546669     1.317771883659    -1.332504457436     1.007825032230
         H            1.129534453331     1.059487883659     1.311738542564     1.007825032230
         H           -1.270848546669     0.118443883659     1.336610542564     1.007825032230
         H            1.572859453331    -0.410551116341    -1.319456457436     1.007825032230
         H            0.517090453331    -1.399630116341     1.386386542564     1.007825032230
         H           -2.618277546669     0.232971883659    -1.395931457436     1.007825032230
         H           -3.137623546669     1.135655883659     0.045546542564     1.007825032230
         H           -0.835872546669     2.526743883659     1.173813542564     1.007825032230
         H            1.497519453331     2.840894883659    -0.250879457436     1.007825032230
         H            2.993727453331    -0.437594116341     1.113531542564     1.007825032230
         H            1.244886453331    -2.696565116341    -0.980268457436     1.007825032230
         H           -2.900737546669    -1.667063116341    -0.023728457436     1.007825032230

  Basis Set: AUG-CC-PVTZ
    Blend: AUG-CC-PVTZ
  Basis Set: (AUG-CC-PVTZ AUX)
    Blend: AUG-CC-PVTZ-JKFIT
	 Reference Energy          =    -683.5930248216059226 [Eh]
	 Singles Energy            =      -0.0000000000000000 [Eh]
	 Same-Spin Energy          =      -0.6651474355617798 [Eh]
	 Opposite-Spin Energy      =      -2.0450937408779417 [Eh]
	 Correlation Energy        =      -2.7102411764397214 [Eh]
	 Total Energy              =    -686.3032659980456174 [Eh]

	 ================> DF-SCS-MP2 Energies <==================
	-----------------------------------------------------------
	 SCS Same-Spin Scale       =       0.3333333333333333 [-]
	 SCS Opposite-Spin Scale   =       1.2000000000000000 [-]
	 SCS Same-Spin Energy      =      -0.2217158118539266 [Eh]
	 SCS Opposite-Spin Energy  =      -2.4541124890535300 [Eh]
	 SCS Correlation Energy    =      -2.6758283009074564 [Eh]
	 SCS Total Energy          =    -686.2688531225134057 [Eh]
	-----------------------------------------------------------

  Dipole Moment: [D]
     X:     0.2082      Y:     1.4854      Z:     1.5385     Total:     2.1486

*** Psi4 exiting successfully. Buy a developer a beer!
