                               Psi4 1.3.2 release

  ==> Input File <==

--------------------------------------------------------------------------
#psi4
#
memory 32 gb

molecule  {
0 1
  O       -0.7087550    -1.1193400    -0.2546710
  O       -0.7529000     2.5454980     0.2011280
  O        1.9863450     1.9788980    -0.3426730
  O        2.9116540    -0.6744470     0.1695670
  O        0.9157630    -2.7262860    -0.0672430
  O       -3.4138550    -0.8877920     0.1899090
  C       -0.3205170     1.2520290    -0.2382820
  C        1.1174580     1.0033160     0.2012620
  C       -1.2273170     0.1250620     0.2312770
  C        1.5882653    -0.3942781    -0.1714265
  C        0.5842790    -1.4279170     0.2862350
  C       -2.6461720     0.2016390    -0.2964840
  H       -0.3421210     1.3021240    -1.3326030
  H        1.1389810     1.0438400     1.3116400
  H       -1.2614020     0.1027960     1.3365120
  H        1.5823060    -0.4261990    -1.3195550
  H        0.5265370    -1.4152780     1.3862880
  H       -2.6088310     0.2173240    -1.3960300
  H       -3.1281770     1.1200080     0.0454480
  H       -0.8264260     2.5110960     1.1737150
  H        1.5069660     2.8252470    -0.2509780
  H        3.0031740    -0.4532420     1.1134330
  H        1.2543330    -2.7122130    -0.9803670
  H       -2.8912910    -1.6827110    -0.0238270
units angstrom
no_reorient  #important for SAPT in psi4, default
symmetry c1  #important for SAPT in psi4, default
}

set PROPERTIES_ORIGIN ["COM"]
properties('MP2/aug-cc-pvtz', properties = ['dipole'])
--------------------------------------------------------------------------

    Molecular point group: c1
  Charge       = 0
  Multiplicity = 1
  Basis Set: AUG-CC-PVTZ
    Blend: AUG-CC-PVTZ
  Basis Set: (AUG-CC-PVTZ AUX)
    Blend: AUG-CC-PVTZ-JKFIT

    Orbital Energies [Eh]
    ---------------------

    Doubly Occupied:

       1A    -20.598339     2A    -20.589672     3A    -20.584105
       4A    -20.583972     5A    -20.578043     6A    -20.562742
       7A    -11.356355     8A    -11.310769     9A    -11.309909
      10A    -11.308077    11A    -11.307359    12A    -11.287283
      13A     -1.441266    14A     -1.405467    15A     -1.395083
      16A     -1.372962    17A     -1.369334    18A     -1.353339
      19A     -1.080952    20A     -1.052445    21A     -0.947592
      22A     -0.891714    23A     -0.853236    24A     -0.841049
      25A     -0.754610    26A     -0.732283    27A     -0.722929
      28A     -0.710664    29A     -0.692680    30A     -0.676330
      31A     -0.661013    32A     -0.656684    33A     -0.621477
      34A     -0.615672    35A     -0.597560    36A     -0.590974
      37A     -0.570936    38A     -0.559467    39A     -0.556850
      40A     -0.541165    41A     -0.527854    42A     -0.518264
      43A     -0.498666    44A     -0.487295    45A     -0.470592
      46A     -0.462724    47A     -0.447493    48A     -0.433270

  @DF-RHF Final Energy:  -683.60010754735890

   => Energetics <=

    Nuclear Repulsion Energy =            824.9653134995193113
    One-Electron Energy =               -2578.1538107847686661
    Two-Electron Energy =                1069.5883897378905658
    Total Energy =                       -683.6001075473589026
  Basis Set: (AUG-CC-PVTZ AUX)
    Blend: AUG-CC-PVTZ-RI
    Molecular point group: c1

    Geometry (in Angstrom), charge = 0, multiplicity = 1:

       Center              X                  Y                   Z               Mass
    ------------   -----------------  -----------------  -----------------  -----------------
         O           -0.720402318321    -1.105117387757    -0.252226183691    15.994914619570
         O           -0.764547318321     2.559720612243     0.203572816309    15.994914619570
         O            1.974697681679     1.993120612243    -0.340228183691    15.994914619570
         O            2.900006681679    -0.660224387757     0.172011816309    15.994914619570
         O            0.904115681679    -2.712063387757    -0.064798183691    15.994914619570
         O           -3.425502318321    -0.873569387757     0.192353816309    15.994914619570
         C           -0.332164318321     1.266251612243    -0.235837183691    12.000000000000
         C            1.105810681679     1.017538612243     0.203706816309    12.000000000000
         C           -1.238964318321     0.139284612243     0.233721816309    12.000000000000
         C            1.576617981679    -0.380055487757    -0.168981683691    12.000000000000
         C            0.572631681679    -1.413694387757     0.288679816309    12.000000000000
         C           -2.657819318321     0.215861612243    -0.294039183691    12.000000000000
         H           -0.353768318321     1.316346612243    -1.330158183691     1.007825032230
         H            1.127333681679     1.058062612243     1.314084816309     1.007825032230
         H           -1.273049318321     0.117018612243     1.338956816309     1.007825032230
         H            1.570658681679    -0.411976387757    -1.317110183691     1.007825032230
         H            0.514889681679    -1.401055387757     1.388732816309     1.007825032230
         H           -2.620478318321     0.231546612243    -1.393585183691     1.007825032230
         H           -3.139824318321     1.134230612243     0.047892816309     1.007825032230
         H           -0.838073318321     2.525318612243     1.176159816309     1.007825032230
         H            1.495318681679     2.839469612243    -0.248533183691     1.007825032230
         H            2.991526681679    -0.439019387757     1.115877816309     1.007825032230
         H            1.242685681679    -2.697990387757    -0.977922183691     1.007825032230
         H           -2.902938318321    -1.668488387757    -0.021382183691     1.007825032230

  Basis Set: AUG-CC-PVTZ
    Blend: AUG-CC-PVTZ
  Basis Set: (AUG-CC-PVTZ AUX)
    Blend: AUG-CC-PVTZ-JKFIT
	 Reference Energy          =    -683.6001075473589026 [Eh]
	 Singles Energy            =      -0.0000000000000000 [Eh]
	 Same-Spin Energy          =      -0.6658561980479135 [Eh]
	 Opposite-Spin Energy      =      -2.0452546912728073 [Eh]
	 Correlation Energy        =      -2.7111108893207208 [Eh]
	 Total Energy              =    -686.3112184366796100 [Eh]

	 ================> DF-SCS-MP2 Energies <==================
	-----------------------------------------------------------
	 SCS Same-Spin Scale       =       0.3333333333333333 [-]
	 SCS Opposite-Spin Scale   =       1.2000000000000000 [-]
	 SCS Same-Spin Energy      =      -0.2219520660159712 [Eh]
	 SCS Opposite-Spin Energy  =      -2.4543056295273686 [Eh]
	 SCS Correlation Energy    =      -2.6762576955433399 [Eh]
	 SCS Total Energy          =    -686.2763652429022159 [Eh]
	-----------------------------------------------------------

  Dipole Moment: [D]
     X:     0.2900      Y:     1.5960      Z:     1.4318     Total:     2.1636

*** Psi4 exiting successfully. Buy a developer a beer!
