                               Psi4 1.3.2 release

  ==> Input File <==

--------------------------------------------------------------------------
#psi4
#
memory 32 gb

molecule  {
0 1
  O       -0.7087550    -1.1193400    -0.2546710
  O       -0.7529000     2.5454980     0.2011280
  O        1.9863450     1.9788980    -0.3426730
  O        2.9116540    -0.6744470     0.1695670
  O        0.9157630    -2.7262860    -0.0672430
  O       -3.4138550    -0.8877920     0.1899090
  C       -0.3205170     1.2520290    -0.2382820
  C        1.1174580     1.0033160     0.2012620
  C       -1.2466188     0.1252065     0.2805378
  C        1.5822600    -0.3816350    -0.2226430
  C        0.5842790    -1.4279170     0.2862350
  C       -2.6461720     0.2016390    -0.2964840
  H       -0.3421210     1.3021240    -1.3326030
  H        1.1389810     1.0438400     1.3116400
  H       -1.2614020     0.1027960     1.3365120
  H        1.5823060    -0.4261990    -1.3195550
  H        0.5265370    -1.4152780     1.3862880
  H       -2.6088310     0.2173240    -1.3960300
  H       -3.1281770     1.1200080     0.0454480
  H       -0.8264260     2.5110960     1.1737150
  H        1.5069660     2.8252470    -0.2509780
  H        3.0031740    -0.4532420     1.1134330
  H        1.2543330    -2.7122130    -0.9803670
  H       -2.8912910    -1.6827110    -0.0238270
units angstrom
no_reorient  #important for SAPT in psi4, default
symmetry c1  #important for SAPT in psi4, default
}

set PROPERTIES_ORIGIN ["COM"]
properties('MP2/aug-cc-pvtz', properties = ['dipole'])
--------------------------------------------------------------------------

    Molecular point group: c1
  Charge       = 0
  Multiplicity = 1
  Basis Set: AUG-CC-PVTZ
    Blend: AUG-CC-PVTZ
  Basis Set: (AUG-CC-PVTZ AUX)
    Blend: AUG-CC-PVTZ-JKFIT

    Orbital Energies [Eh]
    ---------------------

    Doubly Occupied:

       1A    -20.597182     2A    -20.586008     3A    -20.582470
       4A    -20.578459     5A    -20.577273     6A    -20.561994
       7A    -11.355250     8A    -11.311533     9A    -11.309218
      10A    -11.306709    11A    -11.304082    12A    -11.287787
      13A     -1.435648    14A     -1.404374    15A     -1.386342
      16A     -1.371160    17A     -1.365402    18A     -1.349910
      19A     -1.077972    20A     -1.049536    21A     -0.945455
      22A     -0.888218    23A     -0.854663    24A     -0.846138
      25A     -0.752033    26A     -0.729772    27A     -0.718968
      28A     -0.708918    29A     -0.690511    30A     -0.675045
      31A     -0.658047    32A     -0.654380    33A     -0.618850
      34A     -0.615342    35A     -0.597438    36A     -0.590784
      37A     -0.569142    38A     -0.561077    39A     -0.556765
      40A     -0.544466    41A     -0.523939    42A     -0.517315
      43A     -0.502122    44A     -0.486236    45A     -0.473638
      46A     -0.463391    47A     -0.447042    48A     -0.428550

  @DF-RHF Final Energy:  -683.60066584618278

   => Energetics <=

    Nuclear Repulsion Energy =            824.0205532774256199
    One-Electron Energy =               -2576.4093230412695448
    Two-Electron Energy =                1068.7881039176611466
    Total Energy =                       -683.6006658461826646
  Basis Set: (AUG-CC-PVTZ AUX)
    Blend: AUG-CC-PVTZ-RI
    Molecular point group: c1

    Geometry (in Angstrom), charge = 0, multiplicity = 1:

       Center              X                  Y                   Z               Mass
    ------------   -----------------  -----------------  -----------------  -----------------
         O           -0.718715772248    -1.105969594314    -0.252095849589    15.994914619570
         O           -0.762860772248     2.558868405686     0.203703150411    15.994914619570
         O            1.976384227752     1.992268405686    -0.340097849589    15.994914619570
         O            2.901693227752    -0.661076594314     0.172142150411    15.994914619570
         O            0.905802227752    -2.712915594314    -0.064667849589    15.994914619570
         O           -3.423815772248    -0.874421594314     0.192484150411    15.994914619570
         C           -0.330477772248     1.265399405686    -0.235706849589    12.000000000000
         C            1.107497227752     1.016686405686     0.203837150411    12.000000000000
         C           -1.256579572248     0.138576905686     0.283112950411    12.000000000000
         C            1.572299227752    -0.368264594314    -0.220067849589    12.000000000000
         C            0.574318227752    -1.414546594314     0.288810150411    12.000000000000
         C           -2.656132772248     0.215009405686    -0.293908849589    12.000000000000
         H           -0.352081772248     1.315494405686    -1.330027849589     1.007825032230
         H            1.129020227752     1.057210405686     1.314215150411     1.007825032230
         H           -1.271362772248     0.116166405686     1.339087150411     1.007825032230
         H            1.572345227752    -0.412828594314    -1.316979849589     1.007825032230
         H            0.516576227752    -1.401907594314     1.388863150411     1.007825032230
         H           -2.618791772248     0.230694405686    -1.393454849589     1.007825032230
         H           -3.138137772248     1.133378405686     0.048023150411     1.007825032230
         H           -0.836386772248     2.524466405686     1.176290150411     1.007825032230
         H            1.497005227752     2.838617405686    -0.248402849589     1.007825032230
         H            2.993213227752    -0.439871594314     1.116008150411     1.007825032230
         H            1.244372227752    -2.698842594314    -0.977791849589     1.007825032230
         H           -2.901251772248    -1.669340594314    -0.021251849589     1.007825032230

  Basis Set: AUG-CC-PVTZ
    Blend: AUG-CC-PVTZ
  Basis Set: (AUG-CC-PVTZ AUX)
    Blend: AUG-CC-PVTZ-JKFIT
	 Reference Energy          =    -683.6006658461827783 [Eh]
	 Singles Energy            =      -0.0000000000000000 [Eh]
	 Same-Spin Energy          =      -0.6652884734917222 [Eh]
	 Opposite-Spin Energy      =      -2.0451642072079128 [Eh]
	 Correlation Energy        =      -2.7104526806996350 [Eh]
	 Total Energy              =    -686.3111185268824102 [Eh]

	 ================> DF-SCS-MP2 Energies <==================
	-----------------------------------------------------------
	 SCS Same-Spin Scale       =       0.3333333333333333 [-]
	 SCS Opposite-Spin Scale   =       1.2000000000000000 [-]
	 SCS Same-Spin Energy      =      -0.2217628244972407 [Eh]
	 SCS Opposite-Spin Energy  =      -2.4541970486494953 [Eh]
	 SCS Correlation Energy    =      -2.6759598731467360 [Eh]
	 SCS Total Energy          =    -686.2766257193295587 [Eh]
	-----------------------------------------------------------

  Dipole Moment: [D]
     X:     0.1523      Y:     1.6448      Z:     1.4359     Total:     2.1886

*** Psi4 exiting successfully. Buy a developer a beer!
