                               Psi4 1.3.2 release

  ==> Input File <==

--------------------------------------------------------------------------
#psi4
#
memory 32 gb

molecule  {
0 1
  O       -0.7087550    -1.1193400    -0.2546710
  O       -0.7657115     2.5817665     0.0561637
  O        1.9863450     1.9788980    -0.3426730
  O        2.9116540    -0.6744470     0.1695670
  O        0.9157630    -2.7262860    -0.0672430
  O       -3.4138550    -0.8877920     0.1899090
  C       -0.3205170     1.2520290    -0.2382820
  C        1.1174580     1.0033160     0.2012620
  C       -1.2273170     0.1250620     0.2312770
  C        1.5822600    -0.3816350    -0.2226430
  C        0.5842790    -1.4279170     0.2862350
  C       -2.6461720     0.2016390    -0.2964840
  H       -0.3421210     1.3021240    -1.3326030
  H        1.1389810     1.0438400     1.3116400
  H       -1.2614020     0.1027960     1.3365120
  H        1.5823060    -0.4261990    -1.3195550
  H        0.5265370    -1.4152780     1.3862880
  H       -2.6088310     0.2173240    -1.3960300
  H       -3.1281770     1.1200080     0.0454480
  H       -0.8264260     2.5110960     1.1737150
  H        1.5069660     2.8252470    -0.2509780
  H        3.0031740    -0.4532420     1.1134330
  H        1.2543330    -2.7122130    -0.9803670
  H       -2.8912910    -1.6827110    -0.0238270
units angstrom
no_reorient  #important for SAPT in psi4, default
symmetry c1  #important for SAPT in psi4, default
}

set PROPERTIES_ORIGIN ["COM"]
properties('MP2/aug-cc-pvtz', properties = ['dipole'])
--------------------------------------------------------------------------

    Molecular point group: c1
  Charge       = 0
  Multiplicity = 1
  Basis Set: AUG-CC-PVTZ
    Blend: AUG-CC-PVTZ
  Basis Set: (AUG-CC-PVTZ AUX)
    Blend: AUG-CC-PVTZ-JKFIT

    Orbital Energies [Eh]
    ---------------------

    Doubly Occupied:

       1A    -20.615189     2A    -20.589769     3A    -20.584340
       4A    -20.580016     5A    -20.577593     6A    -20.562802
       7A    -11.357616     8A    -11.311315     9A    -11.309449
      10A    -11.308283    11A    -11.306168    12A    -11.287397
      13A     -1.440660    14A     -1.397648    15A     -1.384666
      16A     -1.370113    17A     -1.361351    18A     -1.353382
      19A     -1.078570    20A     -1.051042    21A     -0.944130
      22A     -0.887899    23A     -0.854800    24A     -0.837396
      25A     -0.753215    26A     -0.730151    27A     -0.721266
      28A     -0.700436    29A     -0.683933    30A     -0.675468
      31A     -0.660568    32A     -0.654724    33A     -0.622385
      34A     -0.606785    35A     -0.593982    36A     -0.588123
      37A     -0.571086    38A     -0.560291    39A     -0.556192
      40A     -0.537495    41A     -0.527896    42A     -0.518157
      43A     -0.502181    44A     -0.488052    45A     -0.474090
      46A     -0.462909    47A     -0.447518    48A     -0.431541

  @DF-RHF Final Energy:  -683.57578007287782

   => Energetics <=

    Nuclear Repulsion Energy =            823.5059417597618676
    One-Electron Energy =               -2575.3233781874869237
    Two-Electron Energy =                1068.2416563548474642
    Total Energy =                       -683.5757800728777056
  Basis Set: (AUG-CC-PVTZ AUX)
    Blend: AUG-CC-PVTZ-RI
    Molecular point group: c1

    Geometry (in Angstrom), charge = 0, multiplicity = 1:

       Center              X                  Y                   Z               Mass
    ------------   -----------------  -----------------  -----------------  -----------------
         O           -0.718864068643    -1.109181671832    -0.235935867085    15.994914619570
         O           -0.775820568643     2.591924828168     0.074898832915    15.994914619570
         O            1.976235931357     1.989056328168    -0.323937867085    15.994914619570
         O            2.901544931357    -0.664288671832     0.188302132915    15.994914619570
         O            0.905653931357    -2.716127671832    -0.048507867085    15.994914619570
         O           -3.423964068643    -0.877633671832     0.208644132915    15.994914619570
         C           -0.330626068643     1.262187328168    -0.219546867085    12.000000000000
         C            1.107348931357     1.013474328168     0.219997132915    12.000000000000
         C           -1.237426068643     0.135220328168     0.250012132915    12.000000000000
         C            1.572150931357    -0.371476671832    -0.203907867085    12.000000000000
         C            0.574169931357    -1.417758671832     0.304970132915    12.000000000000
         C           -2.656281068643     0.211797328168    -0.277748867085    12.000000000000
         H           -0.352230068643     1.312282328168    -1.313867867085     1.007825032230
         H            1.128871931357     1.053998328168     1.330375132915     1.007825032230
         H           -1.271511068643     0.112954328168     1.355247132915     1.007825032230
         H            1.572196931357    -0.416040671832    -1.300819867085     1.007825032230
         H            0.516427931357    -1.405119671832     1.405023132915     1.007825032230
         H           -2.618940068643     0.227482328168    -1.377294867085     1.007825032230
         H           -3.138286068643     1.130166328168     0.064183132915     1.007825032230
         H           -0.836535068643     2.521254328168     1.192450132915     1.007825032230
         H            1.496856931357     2.835405328168    -0.232242867085     1.007825032230
         H            2.993064931357    -0.443083671832     1.132168132915     1.007825032230
         H            1.244223931357    -2.702054671832    -0.961631867085     1.007825032230
         H           -2.901400068643    -1.672552671832    -0.005091867085     1.007825032230

  Basis Set: AUG-CC-PVTZ
    Blend: AUG-CC-PVTZ
  Basis Set: (AUG-CC-PVTZ AUX)
    Blend: AUG-CC-PVTZ-JKFIT
	 Reference Energy          =    -683.5757800728778193 [Eh]
	 Singles Energy            =      -0.0000000000000000 [Eh]
	 Same-Spin Energy          =      -0.6678130684170314 [Eh]
	 Opposite-Spin Energy      =      -2.0511931349040666 [Eh]
	 Correlation Energy        =      -2.7190062033210980 [Eh]
	 Total Energy              =    -686.2947862761989199 [Eh]

	 ================> DF-SCS-MP2 Energies <==================
	-----------------------------------------------------------
	 SCS Same-Spin Scale       =       0.3333333333333333 [-]
	 SCS Opposite-Spin Scale   =       1.2000000000000000 [-]
	 SCS Same-Spin Energy      =      -0.2226043561390104 [Eh]
	 SCS Opposite-Spin Energy  =      -2.4614317618848798 [Eh]
	 SCS Correlation Energy    =      -2.6840361180238901 [Eh]
	 SCS Total Energy          =    -686.2598161909016881 [Eh]
	-----------------------------------------------------------

  Dipole Moment: [D]
     X:     0.2425      Y:     1.5611      Z:     1.4967     Total:     2.1762

*** Psi4 exiting successfully. Buy a developer a beer!
