                               Psi4 1.3.2 release

  ==> Input File <==

--------------------------------------------------------------------------
#psi4
#
memory 32 gb

molecule  {
0 1
  O       -0.7087550    -1.1193400    -0.2546710
  O       -0.7529000     2.5454980     0.2011280
  O        1.9863450     1.9788980    -0.3426730
  O        2.9116540    -0.6744470     0.1695670
  O        0.9157630    -2.7262860    -0.0672430
  O       -3.4138550    -0.8877920     0.1899090
  C       -0.3205170     1.2520290    -0.2382820
  C        1.1174580     1.0033160     0.2012620
  C       -1.2273170     0.1250620     0.2312770
  C        1.5822600    -0.3816350    -0.2226430
  C        0.5443993    -1.4812830     0.4150918
  C       -2.6461720     0.2016390    -0.2964840
  H       -0.3421210     1.3021240    -1.3326030
  H        1.1389810     1.0438400     1.3116400
  H       -1.2614020     0.1027960     1.3365120
  H        1.5823060    -0.4261990    -1.3195550
  H        0.5265370    -1.4152780     1.3862880
  H       -2.6088310     0.2173240    -1.3960300
  H       -3.1281770     1.1200080     0.0454480
  H       -0.8264260     2.5110960     1.1737150
  H        1.5069660     2.8252470    -0.2509780
  H        3.0031740    -0.4532420     1.1134330
  H        1.2543330    -2.7122130    -0.9803670
  H       -2.8912910    -1.6827110    -0.0238270
units angstrom
no_reorient  #important for SAPT in psi4, default
symmetry c1  #important for SAPT in psi4, default
}

set PROPERTIES_ORIGIN ["COM"]
properties('MP2/aug-cc-pvtz', properties = ['dipole'])
--------------------------------------------------------------------------

    Molecular point group: c1
  Charge       = 0
  Multiplicity = 1
  Basis Set: AUG-CC-PVTZ
    Blend: AUG-CC-PVTZ
  Basis Set: (AUG-CC-PVTZ AUX)
    Blend: AUG-CC-PVTZ-JKFIT

    Orbital Energies [Eh]
    ---------------------

    Doubly Occupied:

       1A    -20.596614     2A    -20.586297     3A    -20.580681
       4A    -20.575596     5A    -20.575217     6A    -20.561760
       7A    -11.356540     8A    -11.308150     9A    -11.306424
      10A    -11.306005    11A    -11.305690    12A    -11.286002
      13A     -1.431759    14A     -1.402865    15A     -1.384046
      16A     -1.369961    17A     -1.363160    18A     -1.348649
      19A     -1.075476    20A     -1.041250    21A     -0.943633
      22A     -0.905643    23A     -0.848262    24A     -0.842708
      25A     -0.751872    26A     -0.725571    27A     -0.716940
      28A     -0.714588    29A     -0.693458    30A     -0.672974
      31A     -0.666860    32A     -0.650993    33A     -0.618100
      34A     -0.615511    35A     -0.596177    36A     -0.592081
      37A     -0.565288    38A     -0.557230    39A     -0.553304
      40A     -0.542574    41A     -0.530943    42A     -0.517095
      43A     -0.504863    44A     -0.483099    45A     -0.472585
      46A     -0.459412    47A     -0.441664    48A     -0.413864

  @DF-RHF Final Energy:  -683.57808917616842

   => Energetics <=

    Nuclear Repulsion Energy =            822.8284378044330651
    One-Electron Energy =               -2574.0941893651265673
    Two-Electron Energy =                1067.6876623845250833
    Total Energy =                       -683.5780891761683051
  Basis Set: (AUG-CC-PVTZ AUX)
    Blend: AUG-CC-PVTZ-RI
    Molecular point group: c1

    Geometry (in Angstrom), charge = 0, multiplicity = 1:

       Center              X                  Y                   Z               Mass
    ------------   -----------------  -----------------  -----------------  -----------------
         O           -0.717344395187    -1.102403483475    -0.257400381565    15.994914619570
         O           -0.761489395187     2.562434516525     0.198398618435    15.994914619570
         O            1.977755604813     1.995834516525    -0.345402381565    15.994914619570
         O            2.903064604813    -0.657510483475     0.166837618435    15.994914619570
         O            0.907173604813    -2.709349483475    -0.069972381565    15.994914619570
         O           -3.422444395187    -0.870855483475     0.187179618435    15.994914619570
         C           -0.329106395187     1.268965516525    -0.241011381565    12.000000000000
         C            1.108868604813     1.020252516525     0.198532618435    12.000000000000
         C           -1.235906395187     0.141998516525     0.228547618435    12.000000000000
         C            1.573670604813    -0.364698483475    -0.225372381565    12.000000000000
         C            0.535809904813    -1.464346483475     0.412362418435    12.000000000000
         C           -2.654761395187     0.218575516525    -0.299213381565    12.000000000000
         H           -0.350710395187     1.319060516525    -1.335332381565     1.007825032230
         H            1.130391604813     1.060776516525     1.308910618435     1.007825032230
         H           -1.269991395187     0.119732516525     1.333782618435     1.007825032230
         H            1.573716604813    -0.409262483475    -1.322284381565     1.007825032230
         H            0.517947604813    -1.398341483475     1.383558618435     1.007825032230
         H           -2.617420395187     0.234260516525    -1.398759381565     1.007825032230
         H           -3.136766395187     1.136944516525     0.042718618435     1.007825032230
         H           -0.835015395187     2.528032516525     1.170985618435     1.007825032230
         H            1.498376604813     2.842183516525    -0.253707381565     1.007825032230
         H            2.994584604813    -0.436305483475     1.110703618435     1.007825032230
         H            1.245743604813    -2.695276483475    -0.983096381565     1.007825032230
         H           -2.899880395187    -1.665774483475    -0.026556381565     1.007825032230

  Basis Set: AUG-CC-PVTZ
    Blend: AUG-CC-PVTZ
  Basis Set: (AUG-CC-PVTZ AUX)
    Blend: AUG-CC-PVTZ-JKFIT
	 Reference Energy          =    -683.5780891761684188 [Eh]
	 Singles Energy            =      -0.0000000000000000 [Eh]
	 Same-Spin Energy          =      -0.6652427463417183 [Eh]
	 Opposite-Spin Energy      =      -2.0458354095262035 [Eh]
	 Correlation Energy        =      -2.7110781558679218 [Eh]
	 Total Energy              =    -686.2891673320362997 [Eh]

	 ================> DF-SCS-MP2 Energies <==================
	-----------------------------------------------------------
	 SCS Same-Spin Scale       =       0.3333333333333333 [-]
	 SCS Opposite-Spin Scale   =       1.2000000000000000 [-]
	 SCS Same-Spin Energy      =      -0.2217475821139061 [Eh]
	 SCS Opposite-Spin Energy  =      -2.4550024914314439 [Eh]
	 SCS Correlation Energy    =      -2.6767500735453500 [Eh]
	 SCS Total Energy          =    -686.2548392497137684 [Eh]
	-----------------------------------------------------------

  Dipole Moment: [D]
     X:     0.2115      Y:     1.4186      Z:     1.6103     Total:     2.1564

*** Psi4 exiting successfully. Buy a developer a beer!
