                               Psi4 1.3.2 release

  ==> Input File <==

--------------------------------------------------------------------------
#psi4
#
memory 32 gb

molecule  {
0 1
  O       -0.7087550    -1.1193400    -0.2546710
  O       -0.7475683     2.5302351     0.2484567
  O        1.9863450     1.9788980    -0.3426730
  O        2.9116540    -0.6744470     0.1695670
  O        0.9157630    -2.7262860    -0.0672430
  O       -3.4138550    -0.8877920     0.1899090
  C       -0.3205170     1.2520290    -0.2382820
  C        1.1174580     1.0033160     0.2012620
  C       -1.2273170     0.1250620     0.2312770
  C        1.5822600    -0.3816350    -0.2226430
  C        0.5842790    -1.4279170     0.2862350
  C       -2.6461720     0.2016390    -0.2964840
  H       -0.3421210     1.3021240    -1.3326030
  H        1.1389810     1.0438400     1.3116400
  H       -1.2614020     0.1027960     1.3365120
  H        1.5823060    -0.4261990    -1.3195550
  H        0.5265370    -1.4152780     1.3862880
  H       -2.6088310     0.2173240    -1.3960300
  H       -3.1281770     1.1200080     0.0454480
  H       -0.8264260     2.5110960     1.1737150
  H        1.5069660     2.8252470    -0.2509780
  H        3.0031740    -0.4532420     1.1134330
  H        1.2543330    -2.7122130    -0.9803670
  H       -2.8912910    -1.6827110    -0.0238270
units angstrom
no_reorient  #important for SAPT in psi4, default
symmetry c1  #important for SAPT in psi4, default
}

set PROPERTIES_ORIGIN ["COM"]
properties('MP2/aug-cc-pvtz', properties = ['dipole'])
--------------------------------------------------------------------------

    Molecular point group: c1
  Charge       = 0
  Multiplicity = 1
  Basis Set: AUG-CC-PVTZ
    Blend: AUG-CC-PVTZ
  Basis Set: (AUG-CC-PVTZ AUX)
    Blend: AUG-CC-PVTZ-JKFIT

    Orbital Energies [Eh]
    ---------------------

    Doubly Occupied:

       1A    -20.591879     2A    -20.588184     3A    -20.583649
       4A    -20.579045     5A    -20.577530     6A    -20.562731
       7A    -11.356718     8A    -11.311638     9A    -11.309377
      10A    -11.307686    11A    -11.304777    12A    -11.287325
      13A     -1.440215    14A     -1.410805    15A     -1.388744
      16A     -1.373809    17A     -1.366402    18A     -1.353013
      19A     -1.082374    20A     -1.051168    21A     -0.947181
      22A     -0.893114    23A     -0.854406    24A     -0.844179
      25A     -0.754663    26A     -0.729563    27A     -0.722587
      28A     -0.715173    29A     -0.694386    30A     -0.674685
      31A     -0.660095    32A     -0.654985    33A     -0.620530
      34A     -0.617737    35A     -0.598578    36A     -0.587048
      37A     -0.570036    38A     -0.562360    39A     -0.556086
      40A     -0.544803    41A     -0.527180    42A     -0.516472
      43A     -0.502329    44A     -0.486960    45A     -0.474323
      46A     -0.462068    47A     -0.446162    48A     -0.431007

  @DF-RHF Final Energy:  -683.60494208153852

   => Energetics <=

    Nuclear Repulsion Energy =            825.1280905970205595
    One-Electron Energy =               -2578.5145355950480734
    Two-Electron Energy =                1069.7815029164889893
    Total Energy =                       -683.6049420815384110
  Basis Set: (AUG-CC-PVTZ AUX)
    Blend: AUG-CC-PVTZ-RI
    Molecular point group: c1

    Geometry (in Angstrom), charge = 0, multiplicity = 1:

       Center              X                  Y                   Z               Mass
    ------------   -----------------  -----------------  -----------------  -----------------
         O           -0.720475717396    -1.104604170809    -0.253017130241    15.994914619570
         O           -0.759289017396     2.544970929191     0.250110569759    15.994914619570
         O            1.974624282604     1.993633829191    -0.341019130241    15.994914619570
         O            2.899933282604    -0.659711170809     0.171220869759    15.994914619570
         O            0.904042282604    -2.711550170809    -0.065589130241    15.994914619570
         O           -3.425575717396    -0.873056170809     0.191562869759    15.994914619570
         C           -0.332237717396     1.266764829191    -0.236628130241    12.000000000000
         C            1.105737282604     1.018051829191     0.202915869759    12.000000000000
         C           -1.239037717396     0.139797829191     0.232930869759    12.000000000000
         C            1.570539282604    -0.366899170809    -0.220989130241    12.000000000000
         C            0.572558282604    -1.413181170809     0.287888869759    12.000000000000
         C           -2.657892717396     0.216374829191    -0.294830130241    12.000000000000
         H           -0.353841717396     1.316859829191    -1.330949130241     1.007825032230
         H            1.127260282604     1.058575829191     1.313293869759     1.007825032230
         H           -1.273122717396     0.117531829191     1.338165869759     1.007825032230
         H            1.570585282604    -0.411463170809    -1.317901130241     1.007825032230
         H            0.514816282604    -1.400542170809     1.387941869759     1.007825032230
         H           -2.620551717396     0.232059829191    -1.394376130241     1.007825032230
         H           -3.139897717396     1.134743829191     0.047101869759     1.007825032230
         H           -0.838146717396     2.525831829191     1.175368869759     1.007825032230
         H            1.495245282604     2.839982829191    -0.249324130241     1.007825032230
         H            2.991453282604    -0.438506170809     1.115086869759     1.007825032230
         H            1.242612282604    -2.697477170809    -0.978713130241     1.007825032230
         H           -2.903011717396    -1.667975170809    -0.022173130241     1.007825032230

  Basis Set: AUG-CC-PVTZ
    Blend: AUG-CC-PVTZ
  Basis Set: (AUG-CC-PVTZ AUX)
    Blend: AUG-CC-PVTZ-JKFIT
	 Reference Energy          =    -683.6049420815385247 [Eh]
	 Singles Energy            =      -0.0000000000000000 [Eh]
	 Same-Spin Energy          =      -0.6647458264589458 [Eh]
	 Opposite-Spin Energy      =      -2.0430949675267498 [Eh]
	 Correlation Energy        =      -2.7078407939856954 [Eh]
	 Total Energy              =    -686.3127828755242490 [Eh]

	 ================> DF-SCS-MP2 Energies <==================
	-----------------------------------------------------------
	 SCS Same-Spin Scale       =       0.3333333333333333 [-]
	 SCS Opposite-Spin Scale   =       1.2000000000000000 [-]
	 SCS Same-Spin Energy      =      -0.2215819421529819 [Eh]
	 SCS Opposite-Spin Energy  =      -2.4517139610320995 [Eh]
	 SCS Correlation Energy    =      -2.6732959031850814 [Eh]
	 SCS Total Energy          =    -686.2782379847236598 [Eh]
	-----------------------------------------------------------

  Dipole Moment: [D]
     X:     0.2101      Y:     1.6095      Z:     1.3145     Total:     2.0887

*** Psi4 exiting successfully. Buy a developer a beer!
