                               Psi4 1.4a3.dev225

  ==> Input File <==

--------------------------------------------------------------------------
#psi4
#
memory 32 gb

molecule  {
0 1
  O       -0.7087730    -1.1193010    -0.2547420
  O       -0.7528450     2.5455330     0.2012150
  O        1.9863940     1.9788490    -0.3427120
  O        2.9116460    -0.6744970     0.1694850
  O        0.9156910    -2.7263170    -0.0671110
  O       -3.4138470    -0.8877920     0.1898460
  C       -0.3054164     1.2069284    -0.2535903
  C        1.1174820     1.0032940     0.2012350
  C       -1.2273260     0.1250970     0.2312670
  C        1.5822430    -0.3816820    -0.2226620
  C        0.5842200    -1.4279110     0.2862640
  C       -2.6461850     0.2016990    -0.2964600
  H       -0.3421180     1.3022200    -1.3325700
  H        1.1390340     1.0438120     1.3116130
  H       -1.2614040     0.1027740     1.3364960
  H        1.5822050    -0.4262820    -1.3195710
  H        0.5263940    -1.4152120     1.3863080
  H       -2.6088500     0.2174640    -1.3960030
  H       -3.1281860     1.1200450     0.0455410
  H       -0.8261980     2.5111300     1.1738140
  H        1.5071200     2.8252430    -0.2509020
  H        3.0032160    -0.4533580     1.1133610
  H        1.2544120    -2.7122960    -0.9801810
  H       -2.8913510    -1.6827050    -0.0240770
units angstrom
no_reorient  #important for SAPT in psi4, default
symmetry c1  #important for SAPT in psi4, default
}

set PROPERTIES_ORIGIN ["COM"]
properties('MP2/aug-cc-pvtz', properties = ['dipole'])
--------------------------------------------------------------------------

    Molecular point group: c1
  Charge       = 0
  Multiplicity = 1
  Basis Set: AUG-CC-PVTZ
    Blend: AUG-CC-PVTZ
  Basis Set: (AUG-CC-PVTZ AUX)
    Blend: AUG-CC-PVTZ-JKFIT

    Orbital Energies [Eh]
    ---------------------

    Doubly Occupied:

       1A    -20.592107     2A    -20.588698     3A    -20.584546
       4A    -20.579557     5A    -20.578531     6A    -20.563847
       7A    -11.357810     8A    -11.311309     9A    -11.310598
      10A    -11.309098    11A    -11.305642    12A    -11.288385
      13A     -1.441261    14A     -1.397693    15A     -1.384883
      16A     -1.370466    17A     -1.362257    18A     -1.354112
      19A     -1.087003    20A     -1.053287    21A     -0.947679
      22A     -0.891564    23A     -0.856506    24A     -0.842353
      25A     -0.754243    26A     -0.729919    27A     -0.720967
      28A     -0.704086    29A     -0.692987    30A     -0.676852
      31A     -0.661507    32A     -0.655503    33A     -0.616416
      34A     -0.610847    35A     -0.597631    36A     -0.587201
      37A     -0.571448    38A     -0.563788    39A     -0.551911
      40A     -0.543338    41A     -0.527026    42A     -0.516318
      43A     -0.505347    44A     -0.488062    45A     -0.476322
      46A     -0.464833    47A     -0.448396    48A     -0.434266

  @DF-RHF Final Energy:  -683.60049070272237

   => Energetics <=

    Nuclear Repulsion Energy =            824.9869166539468779
    One-Electron Energy =               -2578.2580052427802002
    Two-Electron Energy =                1069.6705978861109543
    Total Energy =                       -683.6004907027222544
  Basis Set: (AUG-CC-PVTZ AUX)
    Blend: AUG-CC-PVTZ-RI
    Molecular point group: c1

    Geometry (in Angstrom), charge = 0, multiplicity = 1:

       Center              X                  Y                   Z               Mass
    ------------   -----------------  -----------------  -----------------  -----------------
         O           -0.721024029550    -1.102912714974    -0.247861216846    15.994914619570
         O           -0.765096029550     2.561921285026     0.208095783154    15.994914619570
         O            1.974142970450     1.995237285026    -0.335831216846    15.994914619570
         O            2.899394970450    -0.658108714974     0.176365783154    15.994914619570
         O            0.903439970450    -2.709928714974    -0.060230216846    15.994914619570
         O           -3.426098029550    -0.871403714974     0.196726783154    15.994914619570
         C           -0.317667429550     1.223316685026    -0.246709516846    12.000000000000
         C            1.105230970450     1.019682285026     0.208115783154    12.000000000000
         C           -1.239577029550     0.141485285026     0.238147783154    12.000000000000
         C            1.569991970450    -0.365293714974    -0.215781216846    12.000000000000
         C            0.571968970450    -1.411522714974     0.293144783154    12.000000000000
         C           -2.658436029550     0.218087285026    -0.289579216846    12.000000000000
         H           -0.354369029550     1.318608285026    -1.325689216846     1.007825032230
         H            1.126782970450     1.060200285026     1.318493783154     1.007825032230
         H           -1.273655029550     0.119162285026     1.343376783154     1.007825032230
         H            1.569953970450    -0.409893714974    -1.312690216846     1.007825032230
         H            0.514142970450    -1.398823714974     1.393188783154     1.007825032230
         H           -2.621101029550     0.233852285026    -1.389122216846     1.007825032230
         H           -3.140437029550     1.136433285026     0.052421783154     1.007825032230
         H           -0.838449029550     2.527518285026     1.180694783154     1.007825032230
         H            1.494868970450     2.841631285026    -0.244021216846     1.007825032230
         H            2.990964970450    -0.436969714974     1.120241783154     1.007825032230
         H            1.242160970450    -2.695907714974    -0.973300216846     1.007825032230
         H           -2.903602029550    -1.666316714974    -0.017196216846     1.007825032230

  Basis Set: AUG-CC-PVTZ
    Blend: AUG-CC-PVTZ
  Basis Set: (AUG-CC-PVTZ AUX)
    Blend: AUG-CC-PVTZ-JKFIT
	 Reference Energy          =    -683.6004907027223680 [Eh]
	 Singles Energy            =      -0.0000000000000000 [Eh]
	 Same-Spin Energy          =      -0.6657753268718818 [Eh]
	 Opposite-Spin Energy      =      -2.0458360558565252 [Eh]
	 Correlation Energy        =      -2.7116113827284067 [Eh]
	 Total Energy              =    -686.3121020854507606 [Eh]

	 ================> DF-SCS-MP2 Energies <==================
	-----------------------------------------------------------
	 SCS Same-Spin Scale       =       0.3333333333333333 [-]
	 SCS Opposite-Spin Scale   =       1.2000000000000000 [-]
	 SCS Same-Spin Energy      =      -0.2219251089572939 [Eh]
	 SCS Opposite-Spin Energy  =      -2.4550032670278301 [Eh]
	 SCS Correlation Energy    =      -2.6769283759851241 [Eh]
	 SCS Total Energy          =    -686.2774190787074531 [Eh]
	-----------------------------------------------------------

  Dipole Moment: [D]
     X:     0.2564      Y:     1.4419      Z:     1.3278     Total:     1.9768

*** Psi4 exiting successfully. Buy a developer a beer!
