                               Psi4 1.3.2 release

  ==> Input File <==

--------------------------------------------------------------------------
#psi4
#
memory 32 gb

molecule  {
0 1
  O       -0.7087550    -1.1193400    -0.2546710
  O       -0.8671055     2.4756531     0.2687517
  O        1.9863450     1.9788980    -0.3426730
  O        2.9116540    -0.6744470     0.1695670
  O        0.9157630    -2.7262860    -0.0672430
  O       -3.4138550    -0.8877920     0.1899090
  C       -0.3205170     1.2520290    -0.2382820
  C        1.1174580     1.0033160     0.2012620
  C       -1.2273170     0.1250620     0.2312770
  C        1.5822600    -0.3816350    -0.2226430
  C        0.5842790    -1.4279170     0.2862350
  C       -2.6461720     0.2016390    -0.2964840
  H       -0.3421210     1.3021240    -1.3326030
  H        1.1389810     1.0438400     1.3116400
  H       -1.2614020     0.1027960     1.3365120
  H        1.5823060    -0.4261990    -1.3195550
  H        0.5265370    -1.4152780     1.3862880
  H       -2.6088310     0.2173240    -1.3960300
  H       -3.1281770     1.1200080     0.0454480
  H       -0.8264260     2.5110960     1.1737150
  H        1.5069660     2.8252470    -0.2509780
  H        3.0031740    -0.4532420     1.1134330
  H        1.2543330    -2.7122130    -0.9803670
  H       -2.8912910    -1.6827110    -0.0238270
units angstrom
no_reorient  #important for SAPT in psi4, default
symmetry c1  #important for SAPT in psi4, default
}

set PROPERTIES_ORIGIN ["COM"]
properties('MP2/aug-cc-pvtz', properties = ['dipole'])
--------------------------------------------------------------------------

    Molecular point group: c1
  Charge       = 0
  Multiplicity = 1
  Basis Set: AUG-CC-PVTZ
    Blend: AUG-CC-PVTZ
  Basis Set: (AUG-CC-PVTZ AUX)
    Blend: AUG-CC-PVTZ-JKFIT

    Orbital Energies [Eh]
    ---------------------

    Doubly Occupied:

       1A    -20.587959     2A    -20.585107     3A    -20.583325
       4A    -20.581509     5A    -20.580761     6A    -20.560536
       7A    -11.356390     8A    -11.313175     9A    -11.311863
      10A    -11.306771    11A    -11.303837    12A    -11.284109
      13A     -1.439212    14A     -1.413167    15A     -1.391622
      16A     -1.374373    17A     -1.368107    18A     -1.351187
      19A     -1.083560    20A     -1.050311    21A     -0.946711
      22A     -0.895086    23A     -0.854598    24A     -0.843466
      25A     -0.755778    26A     -0.728825    27A     -0.721853
      28A     -0.719524    29A     -0.695057    30A     -0.674093
      31A     -0.659924    32A     -0.655726    33A     -0.620956
      34A     -0.617085    35A     -0.597240    36A     -0.585936
      37A     -0.571204    38A     -0.561472    39A     -0.557776
      40A     -0.548685    41A     -0.524504    42A     -0.514293
      43A     -0.500994    44A     -0.486281    45A     -0.475298
      46A     -0.461939    47A     -0.446691    48A     -0.429372

  @DF-RHF Final Energy:  -683.60168729528505

   => Energetics <=

    Nuclear Repulsion Energy =            825.4262900771282148
    One-Electron Energy =               -2579.1014659038773971
    Two-Electron Energy =                1070.0734885314641360
    Total Energy =                       -683.6016872952850463
  Basis Set: (AUG-CC-PVTZ AUX)
    Blend: AUG-CC-PVTZ-RI
    Molecular point group: c1

    Geometry (in Angstrom), charge = 0, multiplicity = 1:

       Center              X                  Y                   Z               Mass
    ------------   -----------------  -----------------  -----------------  -----------------
         O           -0.709857305025    -1.099755686956    -0.254819922000    15.994914619570
         O           -0.868207805025     2.495237413044     0.268602778000    15.994914619570
         O            1.985242694975     1.998482313044    -0.342821922000    15.994914619570
         O            2.910551694975    -0.654862686956     0.169418078000    15.994914619570
         O            0.914660694975    -2.706701686956    -0.067391922000    15.994914619570
         O           -3.414957305025    -0.868207686956     0.189760078000    15.994914619570
         C           -0.321619305025     1.271613313044    -0.238430922000    12.000000000000
         C            1.116355694975     1.022900313044     0.201113078000    12.000000000000
         C           -1.228419305025     0.144646313044     0.231128078000    12.000000000000
         C            1.581157694975    -0.362050686956    -0.222791922000    12.000000000000
         C            0.583176694975    -1.408332686956     0.286086078000    12.000000000000
         C           -2.647274305025     0.221223313044    -0.296632922000    12.000000000000
         H           -0.343223305025     1.321708313044    -1.332751922000     1.007825032230
         H            1.137878694975     1.063424313044     1.311491078000     1.007825032230
         H           -1.262504305025     0.122380313044     1.336363078000     1.007825032230
         H            1.581203694975    -0.406614686956    -1.319703922000     1.007825032230
         H            0.525434694975    -1.395693686956     1.386139078000     1.007825032230
         H           -2.609933305025     0.236908313044    -1.396178922000     1.007825032230
         H           -3.129279305025     1.139592313044     0.045299078000     1.007825032230
         H           -0.827528305025     2.530680313044     1.173566078000     1.007825032230
         H            1.505863694975     2.844831313044    -0.251126922000     1.007825032230
         H            3.002071694975    -0.433657686956     1.113284078000     1.007825032230
         H            1.253230694975    -2.692628686956    -0.980515922000     1.007825032230
         H           -2.892393305025    -1.663126686956    -0.023975922000     1.007825032230

  Basis Set: AUG-CC-PVTZ
    Blend: AUG-CC-PVTZ
  Basis Set: (AUG-CC-PVTZ AUX)
    Blend: AUG-CC-PVTZ-JKFIT
	 Reference Energy          =    -683.6016872952850463 [Eh]
	 Singles Energy            =      -0.0000000000000000 [Eh]
	 Same-Spin Energy          =      -0.6644324358543962 [Eh]
	 Opposite-Spin Energy      =      -2.0424448045271886 [Eh]
	 Correlation Energy        =      -2.7068772403815848 [Eh]
	 Total Energy              =    -686.3085645356666191 [Eh]

	 ================> DF-SCS-MP2 Energies <==================
	-----------------------------------------------------------
	 SCS Same-Spin Scale       =       0.3333333333333333 [-]
	 SCS Opposite-Spin Scale   =       1.2000000000000000 [-]
	 SCS Same-Spin Energy      =      -0.2214774786181321 [Eh]
	 SCS Opposite-Spin Energy  =      -2.4509337654326262 [Eh]
	 SCS Correlation Energy    =      -2.6724112440507581 [Eh]
	 SCS Total Energy          =    -686.2740985393357960 [Eh]
	-----------------------------------------------------------

  Dipole Moment: [D]
     X:     0.5572      Y:     1.7502      Z:     1.2941     Total:     2.2469

*** Psi4 exiting successfully. Buy a developer a beer!
