                               Psi4 1.3.2 release

  ==> Input File <==

--------------------------------------------------------------------------
#psi4
#
memory 32 gb

molecule  {
0 1
  O       -0.6870408    -1.1145035    -0.2432410
  O       -0.7529000     2.5454980     0.2011280
  O        1.9863450     1.9788980    -0.3426730
  O        2.9116540    -0.6744470     0.1695670
  O        0.9157630    -2.7262860    -0.0672430
  O       -3.4138550    -0.8877920     0.1899090
  C       -0.3205170     1.2520290    -0.2382820
  C        1.1174580     1.0033160     0.2012620
  C       -1.2273170     0.1250620     0.2312770
  C        1.5822600    -0.3816350    -0.2226430
  C        0.5842790    -1.4279170     0.2862350
  C       -2.6461720     0.2016390    -0.2964840
  H       -0.3421210     1.3021240    -1.3326030
  H        1.1389810     1.0438400     1.3116400
  H       -1.2614020     0.1027960     1.3365120
  H        1.5823060    -0.4261990    -1.3195550
  H        0.5265370    -1.4152780     1.3862880
  H       -2.6088310     0.2173240    -1.3960300
  H       -3.1281770     1.1200080     0.0454480
  H       -0.8264260     2.5110960     1.1737150
  H        1.5069660     2.8252470    -0.2509780
  H        3.0031740    -0.4532420     1.1134330
  H        1.2543330    -2.7122130    -0.9803670
  H       -2.8912910    -1.6827110    -0.0238270
units angstrom
no_reorient  #important for SAPT in psi4, default
symmetry c1  #important for SAPT in psi4, default
}

set PROPERTIES_ORIGIN ["COM"]
properties('MP2/aug-cc-pvtz', properties = ['dipole'])
--------------------------------------------------------------------------

    Molecular point group: c1
  Charge       = 0
  Multiplicity = 1
  Basis Set: AUG-CC-PVTZ
    Blend: AUG-CC-PVTZ
  Basis Set: (AUG-CC-PVTZ AUX)
    Blend: AUG-CC-PVTZ-JKFIT

    Orbital Energies [Eh]
    ---------------------

    Doubly Occupied:

       1A    -20.598295     2A    -20.587941     3A    -20.582525
       4A    -20.577915     5A    -20.577218     6A    -20.563970
       7A    -11.354626     8A    -11.310623     9A    -11.309512
      10A    -11.309279    11A    -11.303516    12A    -11.288815
      13A     -1.444437    14A     -1.405089    15A     -1.387330
      16A     -1.372849    17A     -1.365404    18A     -1.354893
      19A     -1.081084    20A     -1.052574    21A     -0.946077
      22A     -0.890664    23A     -0.855658    24A     -0.842892
      25A     -0.754840    26A     -0.730838    27A     -0.720985
      28A     -0.710469    29A     -0.694656    30A     -0.674857
      31A     -0.661813    32A     -0.655119    33A     -0.619926
      34A     -0.615684    35A     -0.598912    36A     -0.587197
      37A     -0.570851    38A     -0.562746    39A     -0.555170
      40A     -0.543060    41A     -0.527990    42A     -0.515452
      43A     -0.503018    44A     -0.488713    45A     -0.473934
      46A     -0.462612    47A     -0.446432    48A     -0.429609

  @DF-RHF Final Energy:  -683.60486479800261

   => Energetics <=

    Nuclear Repulsion Energy =            825.2190252048799266
    One-Electron Energy =               -2578.7116446008080857
    Two-Electron Energy =                1069.8877545979255501
    Total Energy =                       -683.6048647980026089
  Basis Set: (AUG-CC-PVTZ AUX)
    Blend: AUG-CC-PVTZ-RI
    Molecular point group: c1

    Geometry (in Angstrom), charge = 0, multiplicity = 1:

       Center              X                  Y                   Z               Mass
    ------------   -----------------  -----------------  -----------------  -----------------
         O           -0.700216764304    -1.101553087547    -0.238398271875    15.994914619570
         O           -0.766075964304     2.558448412453     0.205970728125    15.994914619570
         O            1.973169035696     1.991848412453    -0.337830271875    15.994914619570
         O            2.898478035696    -0.661496587547     0.174409728125    15.994914619570
         O            0.902587035696    -2.713335587547    -0.062400271875    15.994914619570
         O           -3.427030964304    -0.874841587547     0.194751728125    15.994914619570
         C           -0.333692964304     1.264979412453    -0.233439271875    12.000000000000
         C            1.104282035696     1.016266412453     0.206104728125    12.000000000000
         C           -1.240492964304     0.138012412453     0.236119728125    12.000000000000
         C            1.569084035696    -0.368684587547    -0.217800271875    12.000000000000
         C            0.571103035696    -1.414966587547     0.291077728125    12.000000000000
         C           -2.659347964304     0.214589412453    -0.291641271875    12.000000000000
         H           -0.355296964304     1.315074412453    -1.327760271875     1.007825032230
         H            1.125805035696     1.056790412453     1.316482728125     1.007825032230
         H           -1.274577964304     0.115746412453     1.341354728125     1.007825032230
         H            1.569130035696    -0.413248587547    -1.314712271875     1.007825032230
         H            0.513361035696    -1.402327587547     1.391130728125     1.007825032230
         H           -2.622006964304     0.230274412453    -1.391187271875     1.007825032230
         H           -3.141352964304     1.132958412453     0.050290728125     1.007825032230
         H           -0.839601964304     2.524046412453     1.178557728125     1.007825032230
         H            1.493790035696     2.838197412453    -0.246135271875     1.007825032230
         H            2.989998035696    -0.440291587547     1.118275728125     1.007825032230
         H            1.241157035696    -2.699262587547    -0.975524271875     1.007825032230
         H           -2.904466964304    -1.669760587547    -0.018984271875     1.007825032230

  Basis Set: AUG-CC-PVTZ
    Blend: AUG-CC-PVTZ
  Basis Set: (AUG-CC-PVTZ AUX)
    Blend: AUG-CC-PVTZ-JKFIT
	 Reference Energy          =    -683.6048647980026089 [Eh]
	 Singles Energy            =      -0.0000000000000000 [Eh]
	 Same-Spin Energy          =      -0.6652221248985112 [Eh]
	 Opposite-Spin Energy      =      -2.0440342416706812 [Eh]
	 Correlation Energy        =      -2.7092563665691922 [Eh]
	 Total Energy              =    -686.3141211645718158 [Eh]

	 ================> DF-SCS-MP2 Energies <==================
	-----------------------------------------------------------
	 SCS Same-Spin Scale       =       0.3333333333333333 [-]
	 SCS Opposite-Spin Scale   =       1.2000000000000000 [-]
	 SCS Same-Spin Energy      =      -0.2217407082995037 [Eh]
	 SCS Opposite-Spin Energy  =      -2.4528410900048172 [Eh]
	 SCS Correlation Energy    =      -2.6745817983043207 [Eh]
	 SCS Total Energy          =    -686.2794465963069115 [Eh]
	-----------------------------------------------------------

  Dipole Moment: [D]
     X:     0.0971      Y:     1.6235      Z:     1.3416     Total:     2.1083

*** Psi4 exiting successfully. Buy a developer a beer!
