                               Psi4 1.3.2 release

  ==> Input File <==

--------------------------------------------------------------------------
#psi4
#
memory 32 gb

molecule  {
0 1
  O       -0.7087550    -1.1193400    -0.2546710
  O       -0.7529000     2.5454980     0.2011280
  O        1.9863450     1.9788980    -0.3426730
  O        2.9116540    -0.6744470     0.1695670
  O        0.9157630    -2.7262860    -0.0672430
  O       -3.4138550    -0.8877920     0.1899090
  C       -0.3205170     1.2520290    -0.2382820
  C        1.1174580     1.0033160     0.2012620
  C       -1.2273170     0.1250620     0.2312770
  C        1.5822600    -0.3816350    -0.2226430
  C        0.6129118    -1.4002128     0.1980899
  C       -2.6461720     0.2016390    -0.2964840
  H       -0.3421210     1.3021240    -1.3326030
  H        1.1389810     1.0438400     1.3116400
  H       -1.2614020     0.1027960     1.3365120
  H        1.5823060    -0.4261990    -1.3195550
  H        0.5265370    -1.4152780     1.3862880
  H       -2.6088310     0.2173240    -1.3960300
  H       -3.1281770     1.1200080     0.0454480
  H       -0.8264260     2.5110960     1.1737150
  H        1.5069660     2.8252470    -0.2509780
  H        3.0031740    -0.4532420     1.1134330
  H        1.2543330    -2.7122130    -0.9803670
  H       -2.8912910    -1.6827110    -0.0238270
units angstrom
no_reorient  #important for SAPT in psi4, default
symmetry c1  #important for SAPT in psi4, default
}

set PROPERTIES_ORIGIN ["COM"]
properties('MP2/aug-cc-pvtz', properties = ['dipole'])
--------------------------------------------------------------------------

    Molecular point group: c1
  Charge       = 0
  Multiplicity = 1
  Basis Set: AUG-CC-PVTZ
    Blend: AUG-CC-PVTZ
  Basis Set: (AUG-CC-PVTZ AUX)
    Blend: AUG-CC-PVTZ-JKFIT

    Orbital Energies [Eh]
    ---------------------

    Doubly Occupied:

       1A    -20.599315     2A    -20.590519     3A    -20.588170
       4A    -20.581966     5A    -20.578933     6A    -20.563170
       7A    -11.360636     8A    -11.312499     9A    -11.311636
      10A    -11.308950    11A    -11.305485    12A    -11.287905
      13A     -1.444993    14A     -1.406495    15A     -1.390346
      16A     -1.375069    17A     -1.367805    18A     -1.355374
      19A     -1.085794    20A     -1.058539    21A     -0.951907
      22A     -0.886722    23A     -0.857547    24A     -0.839846
      25A     -0.754812    26A     -0.733841    27A     -0.723680
      28A     -0.709186    29A     -0.694020    30A     -0.679179
      31A     -0.663083    32A     -0.648657    33A     -0.621715
      34A     -0.616281    35A     -0.600349    36A     -0.588350
      37A     -0.574052    38A     -0.561650    39A     -0.557316
      40A     -0.544749    41A     -0.525357    42A     -0.517033
      43A     -0.496298    44A     -0.488141    45A     -0.473459
      46A     -0.465025    47A     -0.447436    48A     -0.435187

  @DF-RHF Final Energy:  -683.59201255007827

   => Energetics <=

    Nuclear Repulsion Energy =            825.6577843171293125
    One-Electron Energy =               -2579.4426348485708331
    Two-Electron Energy =                1070.1928379813630272
    Total Energy =                       -683.5920125500783797
  Basis Set: (AUG-CC-PVTZ AUX)
    Blend: AUG-CC-PVTZ-RI
    Molecular point group: c1

    Geometry (in Angstrom), charge = 0, multiplicity = 1:

       Center              X                  Y                   Z               Mass
    ------------   -----------------  -----------------  -----------------  -----------------
         O           -0.721910287280    -1.107806260854    -0.242938681009    15.994914619570
         O           -0.766055287280     2.557031739146     0.212860318991    15.994914619570
         O            1.973189712720     1.990431739146    -0.330940681009    15.994914619570
         O            2.898498712720    -0.662913260854     0.181299318991    15.994914619570
         O            0.902607712720    -2.714752260854    -0.055510681009    15.994914619570
         O           -3.427010287280    -0.876258260854     0.201641318991    15.994914619570
         C           -0.333672287280     1.263562739146    -0.226549681009    12.000000000000
         C            1.104302712720     1.014849739146     0.212994318991    12.000000000000
         C           -1.240472287280     0.136595739146     0.243009318991    12.000000000000
         C            1.569104712720    -0.370101260854    -0.210910681009    12.000000000000
         C            0.599756512720    -1.388679060854     0.209822218991    12.000000000000
         C           -2.659327287280     0.213172739146    -0.284751681009    12.000000000000
         H           -0.355276287280     1.313657739146    -1.320870681009     1.007825032230
         H            1.125825712720     1.055373739146     1.323372318991     1.007825032230
         H           -1.274557287280     0.114329739146     1.348244318991     1.007825032230
         H            1.569150712720    -0.414665260854    -1.307822681009     1.007825032230
         H            0.513381712720    -1.403744260854     1.398020318991     1.007825032230
         H           -2.621986287280     0.228857739146    -1.384297681009     1.007825032230
         H           -3.141332287280     1.131541739146     0.057180318991     1.007825032230
         H           -0.839581287280     2.522629739146     1.185447318991     1.007825032230
         H            1.493810712720     2.836780739146    -0.239245681009     1.007825032230
         H            2.990018712720    -0.441708260854     1.125165318991     1.007825032230
         H            1.241177712720    -2.700679260854    -0.968634681009     1.007825032230
         H           -2.904446287280    -1.671177260854    -0.012094681009     1.007825032230

  Basis Set: AUG-CC-PVTZ
    Blend: AUG-CC-PVTZ
  Basis Set: (AUG-CC-PVTZ AUX)
    Blend: AUG-CC-PVTZ-JKFIT
	 Reference Energy          =    -683.5920125500782660 [Eh]
	 Singles Energy            =      -0.0000000000000000 [Eh]
	 Same-Spin Energy          =      -0.6664106670133980 [Eh]
	 Opposite-Spin Energy      =      -2.0462099068744650 [Eh]
	 Correlation Energy        =      -2.7126205738878628 [Eh]
	 Total Energy              =    -686.3046331239661413 [Eh]

	 ================> DF-SCS-MP2 Energies <==================
	-----------------------------------------------------------
	 SCS Same-Spin Scale       =       0.3333333333333333 [-]
	 SCS Opposite-Spin Scale   =       1.2000000000000000 [-]
	 SCS Same-Spin Energy      =      -0.2221368890044660 [Eh]
	 SCS Opposite-Spin Energy  =      -2.4554518882493581 [Eh]
	 SCS Correlation Energy    =      -2.6775887772538240 [Eh]
	 SCS Total Energy          =    -686.2696013273321114 [Eh]
	-----------------------------------------------------------

  Dipole Moment: [D]
     X:     0.2432      Y:     1.6848      Z:     1.1633     Total:     2.0618

*** Psi4 exiting successfully. Buy a developer a beer!
