                               Psi4 1.4a3.dev225

  ==> Input File <==

--------------------------------------------------------------------------
#psi4
#
memory 32 gb

molecule  {
0 1
  O       -0.7087730    -1.1193010    -0.2547420
  O       -0.7528450     2.5455330     0.2012150
  O        1.9863940     1.9788490    -0.3427120
  O        2.9116460    -0.6744970     0.1694850
  O        0.9156910    -2.7263170    -0.0671110
  O       -3.4138470    -0.8877920     0.1898460
  C       -0.3205030     1.2520640    -0.2382550
  C        1.1174820     1.0032940     0.2012350
  C       -1.2273260     0.1250970     0.2312670
  C        1.5822430    -0.3816820    -0.2226620
  C        0.5842200    -1.4279110     0.2862640
  C       -2.6274636     0.2006883    -0.2894968
  H       -0.3421180     1.3022200    -1.3325700
  H        1.1390340     1.0438120     1.3116130
  H       -1.2614040     0.1027740     1.3364960
  H        1.5822050    -0.4262820    -1.3195710
  H        0.5263940    -1.4152120     1.3863080
  H       -2.6088500     0.2174640    -1.3960030
  H       -3.1281860     1.1200450     0.0455410
  H       -0.8261980     2.5111300     1.1738140
  H        1.5071200     2.8252430    -0.2509020
  H        3.0032160    -0.4533580     1.1133610
  H        1.2544120    -2.7122960    -0.9801810
  H       -2.8913510    -1.6827050    -0.0240770
units angstrom
no_reorient  #important for SAPT in psi4, default
symmetry c1  #important for SAPT in psi4, default
}

set PROPERTIES_ORIGIN ["COM"]
properties('MP2/aug-cc-pvtz', properties = ['dipole'])
--------------------------------------------------------------------------

    Molecular point group: c1
  Charge       = 0
  Multiplicity = 1
  Basis Set: AUG-CC-PVTZ
    Blend: AUG-CC-PVTZ
  Basis Set: (AUG-CC-PVTZ AUX)
    Blend: AUG-CC-PVTZ-JKFIT

    Orbital Energies [Eh]
    ---------------------

    Doubly Occupied:

       1A    -20.598626     2A    -20.588862     3A    -20.583984
       4A    -20.579470     5A    -20.577773     6A    -20.562307
       7A    -11.357162     8A    -11.311068     9A    -11.310059
      10A    -11.307987    11A    -11.305356    12A    -11.287342
      13A     -1.440645    14A     -1.405402    15A     -1.388007
      16A     -1.372305    17A     -1.365974    18A     -1.351749
      19A     -1.081930    20A     -1.053685    21A     -0.946930
      22A     -0.891668    23A     -0.853692    24A     -0.842426
      25A     -0.754433    26A     -0.730216    27A     -0.721468
      28A     -0.710243    29A     -0.693309    30A     -0.676030
      31A     -0.659390    32A     -0.654712    33A     -0.620341
      34A     -0.615373    35A     -0.595463    36A     -0.587313
      37A     -0.570222    38A     -0.562255    39A     -0.556510
      40A     -0.543815    41A     -0.527627    42A     -0.517228
      43A     -0.502847    44A     -0.487343    45A     -0.474677
      46A     -0.461640    47A     -0.448195    48A     -0.432022

  @DF-RHF Final Energy:  -683.60309449069553

   => Energetics <=

    Nuclear Repulsion Energy =            825.0256986519916609
    One-Electron Energy =               -2578.3234281526820268
    Two-Electron Energy =                1069.6946350099949541
    Total Energy =                       -683.6030944906954119
  Basis Set: (AUG-CC-PVTZ AUX)
    Blend: AUG-CC-PVTZ-RI
    Molecular point group: c1

    Geometry (in Angstrom), charge = 0, multiplicity = 1:

       Center              X                  Y                   Z               Mass
    ------------   -----------------  -----------------  -----------------  -----------------
         O           -0.721266264246    -1.105853339415    -0.249347260193    15.994914619570
         O           -0.765338264246     2.558980660585     0.206609739807    15.994914619570
         O            1.973900735754     1.992296660585    -0.337317260193    15.994914619570
         O            2.899152735754    -0.661049339415     0.174879739807    15.994914619570
         O            0.903197735754    -2.712869339415    -0.061716260193    15.994914619570
         O           -3.426340264246    -0.874344339415     0.195240739807    15.994914619570
         C           -0.332996264246     1.265511660585    -0.232860260193    12.000000000000
         C            1.104988735754     1.016741660585     0.206629739807    12.000000000000
         C           -1.239819264246     0.138544660585     0.236661739807    12.000000000000
         C            1.569749735754    -0.368234339415    -0.217267260193    12.000000000000
         C            0.571726735754    -1.414463339415     0.291658739807    12.000000000000
         C           -2.639956864246     0.214135960585    -0.284102060193    12.000000000000
         H           -0.354611264246     1.315667660585    -1.327175260193     1.007825032230
         H            1.126540735754     1.057259660585     1.317007739807     1.007825032230
         H           -1.273897264246     0.116221660585     1.341890739807     1.007825032230
         H            1.569711735754    -0.412834339415    -1.314176260193     1.007825032230
         H            0.513900735754    -1.401764339415     1.391702739807     1.007825032230
         H           -2.621343264246     0.230911660585    -1.390608260193     1.007825032230
         H           -3.140679264246     1.133492660585     0.050935739807     1.007825032230
         H           -0.838691264246     2.524577660585     1.179208739807     1.007825032230
         H            1.494626735754     2.838690660585    -0.245507260193     1.007825032230
         H            2.990722735754    -0.439910339415     1.118755739807     1.007825032230
         H            1.241918735754    -2.698848339415    -0.974786260193     1.007825032230
         H           -2.903844264246    -1.669257339415    -0.018682260193     1.007825032230

  Basis Set: AUG-CC-PVTZ
    Blend: AUG-CC-PVTZ
  Basis Set: (AUG-CC-PVTZ AUX)
    Blend: AUG-CC-PVTZ-JKFIT
	 Reference Energy          =    -683.6030944906955256 [Eh]
	 Singles Energy            =      -0.0000000000000000 [Eh]
	 Same-Spin Energy          =      -0.6656334564042498 [Eh]
	 Opposite-Spin Energy      =      -2.0451755068532105 [Eh]
	 Correlation Energy        =      -2.7108089632574601 [Eh]
	 Total Energy              =    -686.3139034539530030 [Eh]

	 ================> DF-SCS-MP2 Energies <==================
	-----------------------------------------------------------
	 SCS Same-Spin Scale       =       0.3333333333333333 [-]
	 SCS Opposite-Spin Scale   =       1.2000000000000000 [-]
	 SCS Same-Spin Energy      =      -0.2218778188014166 [Eh]
	 SCS Opposite-Spin Energy  =      -2.4542106082238524 [Eh]
	 SCS Correlation Energy    =      -2.6760884270252689 [Eh]
	 SCS Total Energy          =    -686.2791829177208456 [Eh]
	-----------------------------------------------------------

  Dipole Moment: [D]
     X:     0.2571      Y:     1.6155      Z:     1.3761     Total:     2.1377

*** Psi4 exiting successfully. Buy a developer a beer!
