                               Psi4 1.3.2 release

  ==> Input File <==

--------------------------------------------------------------------------
#psi4
#
memory 32 gb

molecule  {
0 1
  O       -0.7087550    -1.1193400    -0.2546710
  O       -0.7529000     2.5454980     0.2011280
  O        1.9863450     1.9788980    -0.3426730
  O        2.9116540    -0.6744470     0.1695670
  O        0.9157630    -2.7262860    -0.0672430
  O       -3.4138550    -0.8877920     0.1899090
  C       -0.3205170     1.2520290    -0.2382820
  C        1.0340722     0.9569914     0.2478836
  C       -1.2273170     0.1250620     0.2312770
  C        1.5822600    -0.3816350    -0.2226430
  C        0.5842790    -1.4279170     0.2862350
  C       -2.6461720     0.2016390    -0.2964840
  H       -0.3421210     1.3021240    -1.3326030
  H        1.1389810     1.0438400     1.3116400
  H       -1.2614020     0.1027960     1.3365120
  H        1.5823060    -0.4261990    -1.3195550
  H        0.5265370    -1.4152780     1.3862880
  H       -2.6088310     0.2173240    -1.3960300
  H       -3.1281770     1.1200080     0.0454480
  H       -0.8264260     2.5110960     1.1737150
  H        1.5069660     2.8252470    -0.2509780
  H        3.0031740    -0.4532420     1.1134330
  H        1.2543330    -2.7122130    -0.9803670
  H       -2.8912910    -1.6827110    -0.0238270
units angstrom
no_reorient  #important for SAPT in psi4, default
symmetry c1  #important for SAPT in psi4, default
}

set PROPERTIES_ORIGIN ["COM"]
properties('MP2/aug-cc-pvtz', properties = ['dipole'])
--------------------------------------------------------------------------

    Molecular point group: c1
  Charge       = 0
  Multiplicity = 1
  Basis Set: AUG-CC-PVTZ
    Blend: AUG-CC-PVTZ
  Basis Set: (AUG-CC-PVTZ AUX)
    Blend: AUG-CC-PVTZ-JKFIT

    Orbital Energies [Eh]
    ---------------------

    Doubly Occupied:

       1A    -20.599809     2A    -20.590686     3A    -20.583662
       4A    -20.582599     5A    -20.566993     6A    -20.563513
       7A    -11.356896     8A    -11.311963     9A    -11.309475
      10A    -11.309187    11A    -11.308535    12A    -11.288117
      13A     -1.441775    14A     -1.402515    15A     -1.386090
      16A     -1.372503    17A     -1.354570    18A     -1.338480
      19A     -1.094249    20A     -1.053786    21A     -0.952058
      22A     -0.889441    23A     -0.857732    24A     -0.846637
      25A     -0.752266    26A     -0.730981    27A     -0.716659
      28A     -0.714066    29A     -0.697368    30A     -0.674761
      31A     -0.659988    32A     -0.636671    33A     -0.621147
      34A     -0.616773    35A     -0.598005    36A     -0.588384
      37A     -0.564840    38A     -0.560653    39A     -0.552286
      40A     -0.536664    41A     -0.528416    42A     -0.517586
      43A     -0.510334    44A     -0.488103    45A     -0.479968
      46A     -0.467779    47A     -0.450214    48A     -0.429217

  @DF-RHF Final Energy:  -683.59127278497817

   => Energetics <=

    Nuclear Repulsion Energy =            825.1725549245352340
    One-Electron Energy =               -2578.6188548415607329
    Two-Electron Energy =                1069.8550271320473257
    Total Energy =                       -683.5912727849781731
  Basis Set: (AUG-CC-PVTZ AUX)
    Blend: AUG-CC-PVTZ-RI
    Molecular point group: c1

    Geometry (in Angstrom), charge = 0, multiplicity = 1:

       Center              X                  Y                   Z               Mass
    ------------   -----------------  -----------------  -----------------  -----------------
         O           -0.714445009557    -1.102872744888    -0.251919964861    15.994914619570
         O           -0.758590009557     2.561965255112     0.203879035139    15.994914619570
         O            1.980654990443     1.995365255112    -0.339921964861    15.994914619570
         O            2.905963990443    -0.657979744888     0.172318035139    15.994914619570
         O            0.910072990443    -2.709818744888    -0.064491964861    15.994914619570
         O           -3.419545009557    -0.871324744888     0.192660035139    15.994914619570
         C           -0.326207009557     1.268496255112    -0.235530964861    12.000000000000
         C            1.028382190443     0.973458655112     0.250634635139    12.000000000000
         C           -1.233007009557     0.141529255112     0.234028035139    12.000000000000
         C            1.576569990443    -0.365167744888    -0.219891964861    12.000000000000
         C            0.578588990443    -1.411449744888     0.288986035139    12.000000000000
         C           -2.651862009557     0.218106255112    -0.293732964861    12.000000000000
         H           -0.347811009557     1.318591255112    -1.329851964861     1.007825032230
         H            1.133290990443     1.060307255112     1.314391035139     1.007825032230
         H           -1.267092009557     0.119263255112     1.339263035139     1.007825032230
         H            1.576615990443    -0.409731744888    -1.316803964861     1.007825032230
         H            0.520846990443    -1.398810744888     1.389039035139     1.007825032230
         H           -2.614521009557     0.233791255112    -1.393278964861     1.007825032230
         H           -3.133867009557     1.136475255112     0.048199035139     1.007825032230
         H           -0.832116009557     2.527563255112     1.176466035139     1.007825032230
         H            1.501275990443     2.841714255112    -0.248226964861     1.007825032230
         H            2.997483990443    -0.436774744888     1.116184035139     1.007825032230
         H            1.248642990443    -2.695745744888    -0.977615964861     1.007825032230
         H           -2.896981009557    -1.666243744888    -0.021075964861     1.007825032230

  Basis Set: AUG-CC-PVTZ
    Blend: AUG-CC-PVTZ
  Basis Set: (AUG-CC-PVTZ AUX)
    Blend: AUG-CC-PVTZ-JKFIT
	 Reference Energy          =    -683.5912727849781731 [Eh]
	 Singles Energy            =      -0.0000000000000000 [Eh]
	 Same-Spin Energy          =      -0.6664529475896979 [Eh]
	 Opposite-Spin Energy      =      -2.0477130234085892 [Eh]
	 Correlation Energy        =      -2.7141659709982870 [Eh]
	 Total Energy              =    -686.3054387559764109 [Eh]

	 ================> DF-SCS-MP2 Energies <==================
	-----------------------------------------------------------
	 SCS Same-Spin Scale       =       0.3333333333333333 [-]
	 SCS Opposite-Spin Scale   =       1.2000000000000000 [-]
	 SCS Same-Spin Energy      =      -0.2221509825298993 [Eh]
	 SCS Opposite-Spin Energy  =      -2.4572556280903068 [Eh]
	 SCS Correlation Energy    =      -2.6794066106202061 [Eh]
	 SCS Total Energy          =    -686.2706793955983358 [Eh]
	-----------------------------------------------------------

  Dipole Moment: [D]
     X:     0.0483      Y:     1.3706      Z:     1.5031     Total:     2.0347

*** Psi4 exiting successfully. Buy a developer a beer!
