                               Psi4 1.3.2 release

  ==> Input File <==

--------------------------------------------------------------------------
#psi4
#
memory 32 gb

molecule  {
0 1
  O       -0.7087550    -1.1193400    -0.2546710
  O       -0.7529000     2.5454980     0.2011280
  O        1.9863450     1.9788980    -0.3426730
  O        2.9116540    -0.6744470     0.1695670
  O        0.9157630    -2.7262860    -0.0672430
  O       -3.4138550    -0.8877920     0.1899090
  C       -0.3205170     1.2520290    -0.2382820
  C        1.1174580     1.0033160     0.2012620
  C       -1.2273170     0.1250620     0.2312770
  C        1.5822600    -0.3816350    -0.2226430
  C        0.6321172    -1.6152916     0.2352227
  C       -2.6461720     0.2016390    -0.2964840
  H       -0.3421210     1.3021240    -1.3326030
  H        1.1389810     1.0438400     1.3116400
  H       -1.2614020     0.1027960     1.3365120
  H        1.5823060    -0.4261990    -1.3195550
  H        0.5265370    -1.4152780     1.3862880
  H       -2.6088310     0.2173240    -1.3960300
  H       -3.1281770     1.1200080     0.0454480
  H       -0.8264260     2.5110960     1.1737150
  H        1.5069660     2.8252470    -0.2509780
  H        3.0031740    -0.4532420     1.1134330
  H        1.2543330    -2.7122130    -0.9803670
  H       -2.8912910    -1.6827110    -0.0238270
units angstrom
no_reorient  #important for SAPT in psi4, default
symmetry c1  #important for SAPT in psi4, default
}

set PROPERTIES_ORIGIN ["COM"]
properties('MP2/aug-cc-pvtz', properties = ['dipole'])
--------------------------------------------------------------------------

    Molecular point group: c1
  Charge       = 0
  Multiplicity = 1
  Basis Set: AUG-CC-PVTZ
    Blend: AUG-CC-PVTZ
  Basis Set: (AUG-CC-PVTZ AUX)
    Blend: AUG-CC-PVTZ-JKFIT

    Orbital Energies [Eh]
    ---------------------

    Doubly Occupied:

       1A    -20.621845     2A    -20.591706     3A    -20.575045
       4A    -20.574433     5A    -20.561459     6A    -20.555722
       7A    -11.365709     8A    -11.306713     9A    -11.302518
      10A    -11.301891    11A    -11.298550    12A    -11.279961
      13A     -1.529941    14A     -1.403278    15A     -1.381400
      16A     -1.371834    17A     -1.362708    18A     -1.342680
      19A     -1.068396    20A     -1.032123    21A     -0.936702
      22A     -0.905948    23A     -0.854195    24A     -0.834715
      25A     -0.776637    26A     -0.729500    27A     -0.723897
      28A     -0.713283    29A     -0.704771    30A     -0.683499
      31A     -0.666227    32A     -0.660218    33A     -0.615429
      34A     -0.609823    35A     -0.604509    36A     -0.589381
      37A     -0.573950    38A     -0.552251    39A     -0.549235
      40A     -0.537714    41A     -0.530330    42A     -0.514968
      43A     -0.484440    44A     -0.471228    45A     -0.464878
      46A     -0.450040    47A     -0.435841    48A     -0.403311

  @DF-RHF Final Energy:  -683.55122605096949

   => Energetics <=

    Nuclear Repulsion Energy =            823.5573107775493327
    One-Electron Energy =               -2575.4074081352378016
    Two-Electron Energy =                1068.2988713067188655
    Total Energy =                       -683.5512260509694897
  Basis Set: (AUG-CC-PVTZ AUX)
    Blend: AUG-CC-PVTZ-RI
    Molecular point group: c1

    Geometry (in Angstrom), charge = 0, multiplicity = 1:

       Center              X                  Y                   Z               Mass
    ------------   -----------------  -----------------  -----------------  -----------------
         O           -0.723190196552    -1.093472721831    -0.245413329546    15.994914619570
         O           -0.767335196552     2.571365278169     0.210385670454    15.994914619570
         O            1.971909803448     2.004765278169    -0.333415329546    15.994914619570
         O            2.897218803448    -0.648579721831     0.178824670454    15.994914619570
         O            0.901327803448    -2.700418721831    -0.057985329546    15.994914619570
         O           -3.428290196552    -0.861924721831     0.199166670454    15.994914619570
         C           -0.334952196552     1.277896278169    -0.229024329546    12.000000000000
         C            1.103022803448     1.029183278169     0.210519670454    12.000000000000
         C           -1.241752196552     0.150929278169     0.240534670454    12.000000000000
         C            1.567824803448    -0.355767721831    -0.213385329546    12.000000000000
         C            0.617682003448    -1.589424321831     0.244480370454    12.000000000000
         C           -2.660607196552     0.227506278169    -0.287226329546    12.000000000000
         H           -0.356556196552     1.327991278169    -1.323345329546     1.007825032230
         H            1.124545803448     1.069707278169     1.320897670454     1.007825032230
         H           -1.275837196552     0.128663278169     1.345769670454     1.007825032230
         H            1.567870803448    -0.400331721831    -1.310297329546     1.007825032230
         H            0.512101803448    -1.389410721831     1.395545670454     1.007825032230
         H           -2.623266196552     0.243191278169    -1.386772329546     1.007825032230
         H           -3.142612196552     1.145875278169     0.054705670454     1.007825032230
         H           -0.840861196552     2.536963278169     1.182972670454     1.007825032230
         H            1.492530803448     2.851114278169    -0.241720329546     1.007825032230
         H            2.988738803448    -0.427374721831     1.122690670454     1.007825032230
         H            1.239897803448    -2.686345721831    -0.971109329546     1.007825032230
         H           -2.905726196552    -1.656843721831    -0.014569329546     1.007825032230

  Basis Set: AUG-CC-PVTZ
    Blend: AUG-CC-PVTZ
  Basis Set: (AUG-CC-PVTZ AUX)
    Blend: AUG-CC-PVTZ-JKFIT
	 Reference Energy          =    -683.5512260509694897 [Eh]
	 Singles Energy            =      -0.0000000000000000 [Eh]
	 Same-Spin Energy          =      -0.6669090481046196 [Eh]
	 Opposite-Spin Energy      =      -2.0452045679557962 [Eh]
	 Correlation Energy        =      -2.7121136160604156 [Eh]
	 Total Energy              =    -686.2633396670298680 [Eh]

	 ================> DF-SCS-MP2 Energies <==================
	-----------------------------------------------------------
	 SCS Same-Spin Scale       =       0.3333333333333333 [-]
	 SCS Opposite-Spin Scale   =       1.2000000000000000 [-]
	 SCS Same-Spin Energy      =      -0.2223030160348732 [Eh]
	 SCS Opposite-Spin Energy  =      -2.4542454815469554 [Eh]
	 SCS Correlation Energy    =      -2.6765484975818286 [Eh]
	 SCS Total Energy          =    -686.2277745485513378 [Eh]
	-----------------------------------------------------------

  Dipole Moment: [D]
     X:     0.8316      Y:     0.3616      Z:     1.1205     Total:     1.4415

*** Psi4 exiting successfully. Buy a developer a beer!
