                               Psi4 1.4a3.dev225

  ==> Input File <==

--------------------------------------------------------------------------
#psi4
#
memory 32 gb

molecule  {
0 1
  O       -0.7087730    -1.1193010    -0.2547420
  O       -0.7528450     2.5455330     0.2012150
  O        1.9863940     1.9788490    -0.3427120
  O        2.9116460    -0.6744970     0.1694850
  O        0.9156910    -2.7263170    -0.0671110
  O       -3.4138470    -0.8877920     0.1898460
  C       -0.3205030     1.2520640    -0.2382550
  C        1.1174820     1.0032940     0.2012350
  C       -1.2273260     0.1250970     0.2312670
  C        1.5822430    -0.3816820    -0.2226620
  C        0.5842200    -1.4279110     0.2862640
  C       -2.5993814     0.1991721    -0.2790520
  H       -0.3421180     1.3022200    -1.3325700
  H        1.1390340     1.0438120     1.3116130
  H       -1.2614040     0.1027740     1.3364960
  H        1.5822050    -0.4262820    -1.3195710
  H        0.5263940    -1.4152120     1.3863080
  H       -2.6088500     0.2174640    -1.3960030
  H       -3.1281860     1.1200450     0.0455410
  H       -0.8261980     2.5111300     1.1738140
  H        1.5071200     2.8252430    -0.2509020
  H        3.0032160    -0.4533580     1.1133610
  H        1.2544120    -2.7122960    -0.9801810
  H       -2.8913510    -1.6827050    -0.0240770
units angstrom
no_reorient  #important for SAPT in psi4, default
symmetry c1  #important for SAPT in psi4, default
}

set PROPERTIES_ORIGIN ["COM"]
properties('MP2/aug-cc-pvtz', properties = ['dipole'])
--------------------------------------------------------------------------

    Molecular point group: c1
  Charge       = 0
  Multiplicity = 1
  Basis Set: AUG-CC-PVTZ
    Blend: AUG-CC-PVTZ
  Basis Set: (AUG-CC-PVTZ AUX)
    Blend: AUG-CC-PVTZ-JKFIT

    Orbital Energies [Eh]
    ---------------------

    Doubly Occupied:

       1A    -20.599066     2A    -20.589301     3A    -20.584241
       4A    -20.579769     5A    -20.578207     6A    -20.561744
       7A    -11.357501     8A    -11.311895     9A    -11.310605
      10A    -11.307764    11A    -11.305713    12A    -11.287602
      13A     -1.441322    14A     -1.405882    15A     -1.388396
      16A     -1.372006    17A     -1.366101    18A     -1.349359
      19A     -1.083786    20A     -1.057714    21A     -0.948428
      22A     -0.892319    23A     -0.852672    24A     -0.842243
      25A     -0.755027    26A     -0.731127    27A     -0.722091
      28A     -0.710699    29A     -0.693460    30A     -0.677884
      31A     -0.658789    32A     -0.653687    33A     -0.620751
      34A     -0.615221    35A     -0.592056    36A     -0.586995
      37A     -0.570032    38A     -0.562601    39A     -0.557047
      40A     -0.544214    41A     -0.527818    42A     -0.517659
      43A     -0.502901    44A     -0.487716    45A     -0.475184
      46A     -0.460427    47A     -0.450494    48A     -0.433118

  @DF-RHF Final Energy:  -683.60030030140581

   => Energetics <=

    Nuclear Repulsion Energy =            825.5688687453529155
    One-Electron Energy =               -2579.3770702942392745
    Two-Electron Energy =                1070.2079012474805495
    Total Energy =                       -683.6003003014056958
  Basis Set: (AUG-CC-PVTZ AUX)
    Blend: AUG-CC-PVTZ-RI
    Molecular point group: c1

    Geometry (in Angstrom), charge = 0, multiplicity = 1:

       Center              X                  Y                   Z               Mass
    ------------   -----------------  -----------------  -----------------  -----------------
         O           -0.723137751857    -1.105752294999    -0.250043335066    15.994914619570
         O           -0.767209751857     2.559081705001     0.205913664934    15.994914619570
         O            1.972029248143     1.992397705001    -0.338013335066    15.994914619570
         O            2.897281248143    -0.660948294999     0.174183664934    15.994914619570
         O            0.901326248143    -2.712768294999    -0.062412335066    15.994914619570
         O           -3.428211751857    -0.874243294999     0.194544664934    15.994914619570
         C           -0.334867751857     1.265612705001    -0.233556335066    12.000000000000
         C            1.103117248143     1.016842705001     0.205933664934    12.000000000000
         C           -1.241690751857     0.138645705001     0.235965664934    12.000000000000
         C            1.567878248143    -0.368133294999    -0.217963335066    12.000000000000
         C            0.569855248143    -1.414362294999     0.290962664934    12.000000000000
         C           -2.613746151857     0.212720805001    -0.274353335066    12.000000000000
         H           -0.356482751857     1.315768705001    -1.327871335066     1.007825032230
         H            1.124669248143     1.057360705001     1.316311664934     1.007825032230
         H           -1.275768751857     0.116322705001     1.341194664934     1.007825032230
         H            1.567840248143    -0.412733294999    -1.314872335066     1.007825032230
         H            0.512029248143    -1.401663294999     1.391006664934     1.007825032230
         H           -2.623214751857     0.231012705001    -1.391304335066     1.007825032230
         H           -3.142550751857     1.133593705001     0.050239664934     1.007825032230
         H           -0.840562751857     2.524678705001     1.178512664934     1.007825032230
         H            1.492755248143     2.838791705001    -0.246203335066     1.007825032230
         H            2.988851248143    -0.439809294999     1.118059664934     1.007825032230
         H            1.240047248143    -2.698747294999    -0.975482335066     1.007825032230
         H           -2.905715751857    -1.669156294999    -0.019378335066     1.007825032230

  Basis Set: AUG-CC-PVTZ
    Blend: AUG-CC-PVTZ
  Basis Set: (AUG-CC-PVTZ AUX)
    Blend: AUG-CC-PVTZ-JKFIT
	 Reference Energy          =    -683.6003003014058095 [Eh]
	 Singles Energy            =      -0.0000000000000000 [Eh]
	 Same-Spin Energy          =      -0.6659723397748858 [Eh]
	 Opposite-Spin Energy      =      -2.0457667504366559 [Eh]
	 Correlation Energy        =      -2.7117390902115419 [Eh]
	 Total Energy              =    -686.3120393916173043 [Eh]

	 ================> DF-SCS-MP2 Energies <==================
	-----------------------------------------------------------
	 SCS Same-Spin Scale       =       0.3333333333333333 [-]
	 SCS Opposite-Spin Scale   =       1.2000000000000000 [-]
	 SCS Same-Spin Energy      =      -0.2219907799249619 [Eh]
	 SCS Opposite-Spin Energy  =      -2.4549201005239869 [Eh]
	 SCS Correlation Energy    =      -2.6769108804489488 [Eh]
	 SCS Total Energy          =    -686.2772111818547955 [Eh]
	-----------------------------------------------------------

  Dipole Moment: [D]
     X:     0.3136      Y:     1.6391      Z:     1.3862     Total:     2.1694

*** Psi4 exiting successfully. Buy a developer a beer!
