                               Psi4 1.4a3.dev225

  ==> Input File <==

--------------------------------------------------------------------------
#psi4
#
memory 32 gb

molecule  {
0 1
  O       -0.7087730    -1.1193010    -0.2547420
  O       -0.7528450     2.5455330     0.2012150
  O        1.9863940     1.9788490    -0.3427120
  O        2.9116460    -0.6744970     0.1694850
  O        0.9156910    -2.7263170    -0.0671110
  O       -3.4138470    -0.8877920     0.1898460
  C       -0.3205030     1.2520640    -0.2382550
  C        1.1174820     1.0032940     0.2012350
  C       -1.2273260     0.1250970     0.2312670
  C        1.5634744    -0.3775480    -0.2281983
  C        0.5842200    -1.4279110     0.2862640
  C       -2.6461850     0.2016990    -0.2964600
  H       -0.3421180     1.3022200    -1.3325700
  H        1.1390340     1.0438120     1.3116130
  H       -1.2614040     0.1027740     1.3364960
  H        1.5822050    -0.4262820    -1.3195710
  H        0.5263940    -1.4152120     1.3863080
  H       -2.6088500     0.2174640    -1.3960030
  H       -3.1281860     1.1200450     0.0455410
  H       -0.8261980     2.5111300     1.1738140
  H        1.5071200     2.8252430    -0.2509020
  H        3.0032160    -0.4533580     1.1133610
  H        1.2544120    -2.7122960    -0.9801810
  H       -2.8913510    -1.6827050    -0.0240770
units angstrom
no_reorient  #important for SAPT in psi4, default
symmetry c1  #important for SAPT in psi4, default
}

set PROPERTIES_ORIGIN ["COM"]
properties('MP2/aug-cc-pvtz', properties = ['dipole'])
--------------------------------------------------------------------------

    Molecular point group: c1
  Charge       = 0
  Multiplicity = 1
  Basis Set: AUG-CC-PVTZ
    Blend: AUG-CC-PVTZ
  Basis Set: (AUG-CC-PVTZ AUX)
    Blend: AUG-CC-PVTZ-JKFIT

    Orbital Energies [Eh]
    ---------------------

    Doubly Occupied:

       1A    -20.598464     2A    -20.588575     3A    -20.584496
       4A    -20.577961     5A    -20.576975     6A    -20.562930
       7A    -11.357669     8A    -11.310811     9A    -11.310109
      10A    -11.308347    11A    -11.304998    12A    -11.287566
      13A     -1.440652    14A     -1.405283    15A     -1.384253
      16A     -1.373023    17A     -1.362218    18A     -1.353333
      19A     -1.082772    20A     -1.052734    21A     -0.946655
      22A     -0.892074    23A     -0.854392    24A     -0.842839
      25A     -0.754618    26A     -0.729595    27A     -0.719098
      28A     -0.710235    29A     -0.694051    30A     -0.673490
      31A     -0.660779    32A     -0.654886    33A     -0.619976
      34A     -0.614540    35A     -0.597976    36A     -0.585133
      37A     -0.570348    38A     -0.562556    39A     -0.555076
      40A     -0.543963    41A     -0.527341    42A     -0.516227
      43A     -0.503934    44A     -0.487763    45A     -0.475790
      46A     -0.462537    47A     -0.447502    48A     -0.432294

  @DF-RHF Final Energy:  -683.60309075404462

   => Energetics <=

    Nuclear Repulsion Energy =            824.8086382884146133
    One-Electron Energy =               -2577.9057856693775648
    Two-Electron Energy =                1069.4940566269183364
    Total Energy =                       -683.6030907540446151
  Basis Set: (AUG-CC-PVTZ AUX)
    Blend: AUG-CC-PVTZ-RI
    Molecular point group: c1

    Geometry (in Angstrom), charge = 0, multiplicity = 1:

       Center              X                  Y                   Z               Mass
    ------------   -----------------  -----------------  -----------------  -----------------
         O           -0.718767810758    -1.106196198675    -0.248514253541    15.994914619570
         O           -0.762839810758     2.558637801325     0.207442746459    15.994914619570
         O            1.976399189242     1.991953801325    -0.336484253541    15.994914619570
         O            2.901651189242    -0.661392198675     0.175712746459    15.994914619570
         O            0.905696189242    -2.713212198675    -0.060883253541    15.994914619570
         O           -3.423841810758    -0.874687198675     0.196073746459    15.994914619570
         C           -0.330497810758     1.265168801325    -0.232027253541    12.000000000000
         C            1.107487189242     1.016398801325     0.207462746459    12.000000000000
         C           -1.237320810758     0.138201801325     0.237494746459    12.000000000000
         C            1.553479589242    -0.364443198675    -0.221970553541    12.000000000000
         C            0.574225189242    -1.414806198675     0.292491746459    12.000000000000
         C           -2.656179810758     0.214803801325    -0.290232253541    12.000000000000
         H           -0.352112810758     1.315324801325    -1.326342253541     1.007825032230
         H            1.129039189242     1.056916801325     1.317840746459     1.007825032230
         H           -1.271398810758     0.115878801325     1.342723746459     1.007825032230
         H            1.572210189242    -0.413177198675    -1.313343253541     1.007825032230
         H            0.516399189242    -1.402107198675     1.392535746459     1.007825032230
         H           -2.618844810758     0.230568801325    -1.389775253541     1.007825032230
         H           -3.138180810758     1.133149801325     0.051768746459     1.007825032230
         H           -0.836192810758     2.524234801325     1.180041746459     1.007825032230
         H            1.497125189242     2.838347801325    -0.244674253541     1.007825032230
         H            2.993221189242    -0.440253198675     1.119588746459     1.007825032230
         H            1.244417189242    -2.699191198675    -0.973953253541     1.007825032230
         H           -2.901345810758    -1.669600198675    -0.017849253541     1.007825032230

  Basis Set: AUG-CC-PVTZ
    Blend: AUG-CC-PVTZ
  Basis Set: (AUG-CC-PVTZ AUX)
    Blend: AUG-CC-PVTZ-JKFIT
	 Reference Energy          =    -683.6030907540446151 [Eh]
	 Singles Energy            =      -0.0000000000000000 [Eh]
	 Same-Spin Energy          =      -0.6655493388279368 [Eh]
	 Opposite-Spin Energy      =      -2.0452023300086091 [Eh]
	 Correlation Energy        =      -2.7107516688365458 [Eh]
	 Total Energy              =    -686.3138424228811800 [Eh]

	 ================> DF-SCS-MP2 Energies <==================
	-----------------------------------------------------------
	 SCS Same-Spin Scale       =       0.3333333333333333 [-]
	 SCS Opposite-Spin Scale   =       1.2000000000000000 [-]
	 SCS Same-Spin Energy      =      -0.2218497796093122 [Eh]
	 SCS Opposite-Spin Energy  =      -2.4542427960103308 [Eh]
	 SCS Correlation Energy    =      -2.6760925756196432 [Eh]
	 SCS Total Energy          =    -686.2791833296643063 [Eh]
	-----------------------------------------------------------

  Dipole Moment: [D]
     X:     0.1486      Y:     1.6090      Z:     1.3508     Total:     2.1060

*** Psi4 exiting successfully. Buy a developer a beer!
