                               Psi4 1.3.2 release

  ==> Input File <==

--------------------------------------------------------------------------
#psi4
#
memory 32 gb

molecule  {
0 1
  O       -0.7087550    -1.1193400    -0.2546710
  O       -0.7529000     2.5454980     0.2011280
  O        1.9863450     1.9788980    -0.3426730
  O        2.9116540    -0.6744470     0.1695670
  O        0.9157630    -2.7262860    -0.0672430
  O       -3.4138550    -0.8877920     0.1899090
  C       -0.3205170     1.2520290    -0.2382820
  C        1.2218215     0.9034032     0.1686047
  C       -1.2273170     0.1250620     0.2312770
  C        1.5822600    -0.3816350    -0.2226430
  C        0.5842790    -1.4279170     0.2862350
  C       -2.6461720     0.2016390    -0.2964840
  H       -0.3421210     1.3021240    -1.3326030
  H        1.1389810     1.0438400     1.3116400
  H       -1.2614020     0.1027960     1.3365120
  H        1.5823060    -0.4261990    -1.3195550
  H        0.5265370    -1.4152780     1.3862880
  H       -2.6088310     0.2173240    -1.3960300
  H       -3.1281770     1.1200080     0.0454480
  H       -0.8264260     2.5110960     1.1737150
  H        1.5069660     2.8252470    -0.2509780
  H        3.0031740    -0.4532420     1.1134330
  H        1.2543330    -2.7122130    -0.9803670
  H       -2.8912910    -1.6827110    -0.0238270
units angstrom
no_reorient  #important for SAPT in psi4, default
symmetry c1  #important for SAPT in psi4, default
}

set PROPERTIES_ORIGIN ["COM"]
properties('MP2/aug-cc-pvtz', properties = ['dipole'])
--------------------------------------------------------------------------

    Molecular point group: c1
  Charge       = 0
  Multiplicity = 1
  Basis Set: AUG-CC-PVTZ
    Blend: AUG-CC-PVTZ
  Basis Set: (AUG-CC-PVTZ AUX)
    Blend: AUG-CC-PVTZ-JKFIT

    Orbital Energies [Eh]
    ---------------------

    Doubly Occupied:

       1A    -20.601856     2A    -20.589060     3A    -20.586763
       4A    -20.578088     5A    -20.574325     6A    -20.561748
       7A    -11.361254     8A    -11.314702     9A    -11.313749
      10A    -11.306131    11A    -11.301187    12A    -11.285993
      13A     -1.442039    14A     -1.402917    15A     -1.391159
      16A     -1.373527    17A     -1.364193    18A     -1.353279
      19A     -1.089219    20A     -1.056320    21A     -0.937497
      22A     -0.904041    23A     -0.850062    24A     -0.840680
      25A     -0.758076    26A     -0.734125    27A     -0.714699
      28A     -0.710914    29A     -0.691068    30A     -0.679532
      31A     -0.672870    32A     -0.657986    33A     -0.619015
      34A     -0.613672    35A     -0.598145    36A     -0.585595
      37A     -0.568147    38A     -0.558156    39A     -0.556874
      40A     -0.544224    41A     -0.527578    42A     -0.518577
      43A     -0.504844    44A     -0.485945    45A     -0.480416
      46A     -0.455557    47A     -0.445947    48A     -0.417809

  @DF-RHF Final Energy:  -683.57942952518897

   => Energetics <=

    Nuclear Repulsion Energy =            824.9903472992808702
    One-Electron Energy =               -2578.1804303346393681
    Two-Electron Energy =                1069.6106535101694135
    Total Energy =                       -683.5794295251889707
  Basis Set: (AUG-CC-PVTZ AUX)
    Blend: AUG-CC-PVTZ-RI
    Molecular point group: c1

    Geometry (in Angstrom), charge = 0, multiplicity = 1:

       Center              X                  Y                   Z               Mass
    ------------   -----------------  -----------------  -----------------  -----------------
         O           -0.726957223304    -1.099301455873    -0.246636565443    15.994914619570
         O           -0.771102223304     2.565536544127     0.209162434557    15.994914619570
         O            1.968142776696     1.998936544127    -0.334638565443    15.994914619570
         O            2.893451776696    -0.654408455873     0.177601434557    15.994914619570
         O            0.897560776696    -2.706247455873    -0.059208565443    15.994914619570
         O           -3.432057223304    -0.867753455873     0.197943434557    15.994914619570
         C           -0.338719223304     1.272067544127    -0.230247565443    12.000000000000
         C            1.203619276696     0.923441744127     0.176639134557    12.000000000000
         C           -1.245519223304     0.145100544127     0.239311434557    12.000000000000
         C            1.564057776696    -0.361596455873    -0.214608565443    12.000000000000
         C            0.566076776696    -1.407878455873     0.294269434557    12.000000000000
         C           -2.664374223304     0.221677544127    -0.288449565443    12.000000000000
         H           -0.360323223304     1.322162544127    -1.324568565443     1.007825032230
         H            1.120778776696     1.063878544127     1.319674434557     1.007825032230
         H           -1.279604223304     0.122834544127     1.344546434557     1.007825032230
         H            1.564103776696    -0.406160455873    -1.311520565443     1.007825032230
         H            0.508334776696    -1.395239455873     1.394322434557     1.007825032230
         H           -2.627033223304     0.237362544127    -1.387995565443     1.007825032230
         H           -3.146379223304     1.140046544127     0.053482434557     1.007825032230
         H           -0.844628223304     2.531134544127     1.181749434557     1.007825032230
         H            1.488763776696     2.845285544127    -0.242943565443     1.007825032230
         H            2.984971776696    -0.433203455873     1.121467434557     1.007825032230
         H            1.236130776696    -2.692174455873    -0.972332565443     1.007825032230
         H           -2.909493223304    -1.662672455873    -0.015792565443     1.007825032230

  Basis Set: AUG-CC-PVTZ
    Blend: AUG-CC-PVTZ
  Basis Set: (AUG-CC-PVTZ AUX)
    Blend: AUG-CC-PVTZ-JKFIT
	 Reference Energy          =    -683.5794295251889707 [Eh]
	 Singles Energy            =      -0.0000000000000000 [Eh]
	 Same-Spin Energy          =      -0.6667705326173797 [Eh]
	 Opposite-Spin Energy      =      -2.0467136277595719 [Eh]
	 Correlation Energy        =      -2.7134841603769515 [Eh]
	 Total Energy              =    -686.2929136855659635 [Eh]

	 ================> DF-SCS-MP2 Energies <==================
	-----------------------------------------------------------
	 SCS Same-Spin Scale       =       0.3333333333333333 [-]
	 SCS Opposite-Spin Scale   =       1.2000000000000000 [-]
	 SCS Same-Spin Energy      =      -0.2222568442057932 [Eh]
	 SCS Opposite-Spin Energy  =      -2.4560563533114861 [Eh]
	 SCS Correlation Energy    =      -2.6783131975172791 [Eh]
	 SCS Total Energy          =    -686.2577427227062117 [Eh]
	-----------------------------------------------------------

  Dipole Moment: [D]
     X:     0.2011      Y:     1.5396      Z:     1.3174     Total:     2.0363

*** Psi4 exiting successfully. Buy a developer a beer!
