                               Psi4 1.4a3.dev225

  ==> Input File <==

--------------------------------------------------------------------------
#psi4
#
memory 32 gb

molecule  {
0 1
  O       -0.7087730    -1.1193010    -0.2547420
  O       -0.7528450     2.5455330     0.2012150
  O        1.9863940     1.9788490    -0.3427120
  O        2.9116460    -0.6744970     0.1694850
  O        0.9156910    -2.7263170    -0.0671110
  O       -3.4138470    -0.8877920     0.1898460
  C       -0.3205030     1.2520640    -0.2382550
  C        1.1174820     1.0032940     0.2012350
  C       -1.2273260     0.1250970     0.2312670
  C        1.6291644    -0.3920169    -0.2088211
  C        0.5842200    -1.4279110     0.2862640
  C       -2.6461850     0.2016990    -0.2964600
  H       -0.3421180     1.3022200    -1.3325700
  H        1.1390340     1.0438120     1.3116130
  H       -1.2614040     0.1027740     1.3364960
  H        1.5822050    -0.4262820    -1.3195710
  H        0.5263940    -1.4152120     1.3863080
  H       -2.6088500     0.2174640    -1.3960030
  H       -3.1281860     1.1200450     0.0455410
  H       -0.8261980     2.5111300     1.1738140
  H        1.5071200     2.8252430    -0.2509020
  H        3.0032160    -0.4533580     1.1133610
  H        1.2544120    -2.7122960    -0.9801810
  H       -2.8913510    -1.6827050    -0.0240770
units angstrom
no_reorient  #important for SAPT in psi4, default
symmetry c1  #important for SAPT in psi4, default
}

set PROPERTIES_ORIGIN ["COM"]
properties('MP2/aug-cc-pvtz', properties = ['dipole'])
--------------------------------------------------------------------------

    Molecular point group: c1
  Charge       = 0
  Multiplicity = 1
  Basis Set: AUG-CC-PVTZ
    Blend: AUG-CC-PVTZ
  Basis Set: (AUG-CC-PVTZ AUX)
    Blend: AUG-CC-PVTZ-JKFIT

    Orbital Energies [Eh]
    ---------------------

    Doubly Occupied:

       1A    -20.597957     2A    -20.588532     3A    -20.584966
       4A    -20.582050     5A    -20.576249     6A    -20.562179
       7A    -11.354962     8A    -11.309933     9A    -11.308475
      10A    -11.307179    11A    -11.305972    12A    -11.286629
      13A     -1.439795    14A     -1.406530    15A     -1.401003
      16A     -1.372077    17A     -1.369794    18A     -1.352274
      19A     -1.076714    20A     -1.046364    21A     -0.944371
      22A     -0.889170    23A     -0.855051    24A     -0.841411
      25A     -0.752960    26A     -0.731463    27A     -0.725662
      28A     -0.709388    29A     -0.691719    30A     -0.677975
      31A     -0.658945    32A     -0.655148    33A     -0.621821
      34A     -0.618465    35A     -0.598455    36A     -0.592016
      37A     -0.569203    38A     -0.561981    39A     -0.558505
      40A     -0.541947    41A     -0.527341    42A     -0.518108
      43A     -0.499449    44A     -0.485635    45A     -0.470054
      46A     -0.461225    47A     -0.444273    48A     -0.426307

  @DF-RHF Final Energy:  -683.60216844714409

   => Energetics <=

    Nuclear Repulsion Energy =            824.3389268200521656
    One-Electron Energy =               -2576.9668315923181581
    Two-Electron Energy =                1069.0257363251218976
    Total Energy =                       -683.6021684471440949
  Basis Set: (AUG-CC-PVTZ AUX)
    Blend: AUG-CC-PVTZ-RI
    Molecular point group: c1

    Geometry (in Angstrom), charge = 0, multiplicity = 1:

       Center              X                  Y                   Z               Mass
    ------------   -----------------  -----------------  -----------------  -----------------
         O           -0.723145602425    -1.105231944910    -0.249805612115    15.994914619570
         O           -0.767217602425     2.559602055090     0.206151387885    15.994914619570
         O            1.972021397575     1.992918055090    -0.337775612115    15.994914619570
         O            2.897273397575    -0.660427944910     0.174421387885    15.994914619570
         O            0.901318397575    -2.712247944910    -0.062174612115    15.994914619570
         O           -3.428219602425    -0.873722944910     0.194782387885    15.994914619570
         C           -0.334875602425     1.266133055090    -0.233318612115    12.000000000000
         C            1.103109397575     1.017363055090     0.206171387885    12.000000000000
         C           -1.241698602425     0.139166055090     0.236203387885    12.000000000000
         C            1.614791797575    -0.377947844910    -0.203884712115    12.000000000000
         C            0.569847397575    -1.413841944910     0.291200387885    12.000000000000
         C           -2.660557602425     0.215768055090    -0.291523612115    12.000000000000
         H           -0.356490602425     1.316289055090    -1.327633612115     1.007825032230
         H            1.124661397575     1.057881055090     1.316549387885     1.007825032230
         H           -1.275776602425     0.116843055090     1.341432387885     1.007825032230
         H            1.567832397575    -0.412212944910    -1.314634612115     1.007825032230
         H            0.512021397575    -1.401142944910     1.391244387885     1.007825032230
         H           -2.623222602425     0.231533055090    -1.391066612115     1.007825032230
         H           -3.142558602425     1.134114055090     0.050477387885     1.007825032230
         H           -0.840570602425     2.525199055090     1.178750387885     1.007825032230
         H            1.492747397575     2.839312055090    -0.245965612115     1.007825032230
         H            2.988843397575    -0.439288944910     1.118297387885     1.007825032230
         H            1.240039397575    -2.698226944910    -0.975244612115     1.007825032230
         H           -2.905723602425    -1.668635944910    -0.019140612115     1.007825032230

  Basis Set: AUG-CC-PVTZ
    Blend: AUG-CC-PVTZ
  Basis Set: (AUG-CC-PVTZ AUX)
    Blend: AUG-CC-PVTZ-JKFIT
	 Reference Energy          =    -683.6021684471440949 [Eh]
	 Singles Energy            =      -0.0000000000000000 [Eh]
	 Same-Spin Energy          =      -0.6653919583640993 [Eh]
	 Opposite-Spin Energy      =      -2.0443010391628715 [Eh]
	 Correlation Energy        =      -2.7096929975269708 [Eh]
	 Total Energy              =    -686.3118614446710808 [Eh]

	 ================> DF-SCS-MP2 Energies <==================
	-----------------------------------------------------------
	 SCS Same-Spin Scale       =       0.3333333333333333 [-]
	 SCS Opposite-Spin Scale   =       1.2000000000000000 [-]
	 SCS Same-Spin Energy      =      -0.2217973194546997 [Eh]
	 SCS Opposite-Spin Energy  =      -2.4531612469954456 [Eh]
	 SCS Correlation Energy    =      -2.6749585664501452 [Eh]
	 SCS Total Energy          =    -686.2771270135942814 [Eh]
	-----------------------------------------------------------

  Dipole Moment: [D]
     X:     0.4001      Y:     1.5745      Z:     1.4191     Total:     2.1571

*** Psi4 exiting successfully. Buy a developer a beer!
