                               Psi4 1.3.2 release

  ==> Input File <==

--------------------------------------------------------------------------
#psi4
#
memory 32 gb

molecule  {
0 1
  O       -0.7087550    -1.1193400    -0.2546710
  O       -0.7529000     2.5454980     0.2011280
  O        1.9863450     1.9788980    -0.3426730
  O        2.9116540    -0.6744470     0.1695670
  O        0.9157630    -2.7262860    -0.0672430
  O       -3.4138550    -0.8877920     0.1899090
  C       -0.3205170     1.2520290    -0.2382820
  C        1.0226142     1.1139175     0.2279598
  C       -1.2273170     0.1250620     0.2312770
  C        1.5822600    -0.3816350    -0.2226430
  C        0.5842790    -1.4279170     0.2862350
  C       -2.6461720     0.2016390    -0.2964840
  H       -0.3421210     1.3021240    -1.3326030
  H        1.1389810     1.0438400     1.3116400
  H       -1.2614020     0.1027960     1.3365120
  H        1.5823060    -0.4261990    -1.3195550
  H        0.5265370    -1.4152780     1.3862880
  H       -2.6088310     0.2173240    -1.3960300
  H       -3.1281770     1.1200080     0.0454480
  H       -0.8264260     2.5110960     1.1737150
  H        1.5069660     2.8252470    -0.2509780
  H        3.0031740    -0.4532420     1.1134330
  H        1.2543330    -2.7122130    -0.9803670
  H       -2.8912910    -1.6827110    -0.0238270
units angstrom
no_reorient  #important for SAPT in psi4, default
symmetry c1  #important for SAPT in psi4, default
}

set PROPERTIES_ORIGIN ["COM"]
properties('MP2/aug-cc-pvtz', properties = ['dipole'])
--------------------------------------------------------------------------

    Molecular point group: c1
  Charge       = 0
  Multiplicity = 1
  Basis Set: AUG-CC-PVTZ
    Blend: AUG-CC-PVTZ
  Basis Set: (AUG-CC-PVTZ AUX)
    Blend: AUG-CC-PVTZ-JKFIT

    Orbital Energies [Eh]
    ---------------------

    Doubly Occupied:

       1A    -20.594716     2A    -20.587821     3A    -20.582229
       4A    -20.581014     5A    -20.579942     6A    -20.563789
       7A    -11.353264     8A    -11.310424     9A    -11.309214
      10A    -11.306646    11A    -11.306289    12A    -11.288728
      13A     -1.438605    14A     -1.409580    15A     -1.385993
      16A     -1.372785    17A     -1.367327    18A     -1.352702
      19A     -1.085987    20A     -1.041877    21A     -0.953243
      22A     -0.880010    23A     -0.858077    24A     -0.843971
      25A     -0.750984    26A     -0.727652    27A     -0.725699
      28A     -0.709383    29A     -0.696708    30A     -0.676399
      31A     -0.658970    32A     -0.639373    33A     -0.623498
      34A     -0.616610    35A     -0.598626    36A     -0.587919
      37A     -0.578532    38A     -0.563916    39A     -0.555908
      40A     -0.541703    41A     -0.527262    42A     -0.515495
      43A     -0.499746    44A     -0.486785    45A     -0.476288
      46A     -0.458847    47A     -0.447342    48A     -0.421114

  @DF-RHF Final Energy:  -683.58147608678780

   => Energetics <=

    Nuclear Repulsion Energy =            824.3580476403790271
    One-Electron Energy =               -2577.0010597563227748
    Two-Electron Energy =                1069.0615360291560592
    Total Energy =                       -683.5814760867876885
  Basis Set: (AUG-CC-PVTZ AUX)
    Blend: AUG-CC-PVTZ-RI
    Molecular point group: c1

    Geometry (in Angstrom), charge = 0, multiplicity = 1:

       Center              X                  Y                   Z               Mass
    ------------   -----------------  -----------------  -----------------  -----------------
         O           -0.713681411796    -1.113330802019    -0.250592179116    15.994914619570
         O           -0.757826411796     2.551507197981     0.205206820884    15.994914619570
         O            1.981418588204     1.984907197981    -0.338594179116    15.994914619570
         O            2.906727588204    -0.668437802019     0.173645820884    15.994914619570
         O            0.910836588204    -2.720276802019    -0.063164179116    15.994914619570
         O           -3.418781411796    -0.881782802019     0.193987820884    15.994914619570
         C           -0.325443411796     1.258038197981    -0.234203179116    12.000000000000
         C            1.017687788204     1.119926697981     0.232038620884    12.000000000000
         C           -1.232243411796     0.131071197981     0.235355820884    12.000000000000
         C            1.577333588204    -0.375625802019    -0.218564179116    12.000000000000
         C            0.579352588204    -1.421907802019     0.290313820884    12.000000000000
         C           -2.651098411796     0.207648197981    -0.292405179116    12.000000000000
         H           -0.347047411796     1.308133197981    -1.328524179116     1.007825032230
         H            1.134054588204     1.049849197981     1.315718820884     1.007825032230
         H           -1.266328411796     0.108805197981     1.340590820884     1.007825032230
         H            1.577379588204    -0.420189802019    -1.315476179116     1.007825032230
         H            0.521610588204    -1.409268802019     1.390366820884     1.007825032230
         H           -2.613757411796     0.223333197981    -1.391951179116     1.007825032230
         H           -3.133103411796     1.126017197981     0.049526820884     1.007825032230
         H           -0.831352411796     2.517105197981     1.177793820884     1.007825032230
         H            1.502039588204     2.831256197981    -0.246899179116     1.007825032230
         H            2.998247588204    -0.447232802019     1.117511820884     1.007825032230
         H            1.249406588204    -2.706203802019    -0.976288179116     1.007825032230
         H           -2.896217411796    -1.676701802019    -0.019748179116     1.007825032230

  Basis Set: AUG-CC-PVTZ
    Blend: AUG-CC-PVTZ
  Basis Set: (AUG-CC-PVTZ AUX)
    Blend: AUG-CC-PVTZ-JKFIT
	 Reference Energy          =    -683.5814760867878022 [Eh]
	 Singles Energy            =      -0.0000000000000000 [Eh]
	 Same-Spin Energy          =      -0.6666896941664333 [Eh]
	 Opposite-Spin Energy      =      -2.0474189314945024 [Eh]
	 Correlation Energy        =      -2.7141086256609359 [Eh]
	 Total Energy              =    -686.2955847124487718 [Eh]

	 ================> DF-SCS-MP2 Energies <==================
	-----------------------------------------------------------
	 SCS Same-Spin Scale       =       0.3333333333333333 [-]
	 SCS Opposite-Spin Scale   =       1.2000000000000000 [-]
	 SCS Same-Spin Energy      =      -0.2222298980554778 [Eh]
	 SCS Opposite-Spin Energy  =      -2.4569027177934029 [Eh]
	 SCS Correlation Energy    =      -2.6791326158488804 [Eh]
	 SCS Total Energy          =    -686.2606087026366595 [Eh]
	-----------------------------------------------------------

  Dipole Moment: [D]
     X:     0.2308      Y:     1.6607      Z:     1.3765     Total:     2.1693

*** Psi4 exiting successfully. Buy a developer a beer!
