                               Psi4 1.4a3.dev225

  ==> Input File <==

--------------------------------------------------------------------------
#psi4
#
memory 32 gb

molecule  {
0 1
  O       -0.7087730    -1.1193010    -0.2547420
  O       -0.7528450     2.5455330     0.2012150
  O        1.9863940     1.9788490    -0.3427120
  O        2.9116460    -0.6744970     0.1694850
  O        0.9156910    -2.7263170    -0.0671110
  O       -3.4138470    -0.8877920     0.1898460
  C       -0.3205030     1.2520640    -0.2382550
  C        1.1174820     1.0032940     0.2012350
  C       -1.2454187     0.1685149     0.2482242
  C        1.5822430    -0.3816820    -0.2226620
  C        0.5842200    -1.4279110     0.2862640
  C       -2.6461850     0.2016990    -0.2964600
  H       -0.3421180     1.3022200    -1.3325700
  H        1.1390340     1.0438120     1.3116130
  H       -1.2614040     0.1027740     1.3364960
  H        1.5822050    -0.4262820    -1.3195710
  H        0.5263940    -1.4152120     1.3863080
  H       -2.6088500     0.2174640    -1.3960030
  H       -3.1281860     1.1200450     0.0455410
  H       -0.8261980     2.5111300     1.1738140
  H        1.5071200     2.8252430    -0.2509020
  H        3.0032160    -0.4533580     1.1133610
  H        1.2544120    -2.7122960    -0.9801810
  H       -2.8913510    -1.6827050    -0.0240770
units angstrom
no_reorient  #important for SAPT in psi4, default
symmetry c1  #important for SAPT in psi4, default
}

set PROPERTIES_ORIGIN ["COM"]
properties('MP2/aug-cc-pvtz', properties = ['dipole'])
--------------------------------------------------------------------------

    Molecular point group: c1
  Charge       = 0
  Multiplicity = 1
  Basis Set: AUG-CC-PVTZ
    Blend: AUG-CC-PVTZ
  Basis Set: (AUG-CC-PVTZ AUX)
    Blend: AUG-CC-PVTZ-JKFIT

    Orbital Energies [Eh]
    ---------------------

    Doubly Occupied:

       1A    -20.598515     2A    -20.583419     3A    -20.581591
       4A    -20.578473     5A    -20.578278     6A    -20.563891
       7A    -11.353874     8A    -11.312165     9A    -11.310645
      10A    -11.309103    11A    -11.303864    12A    -11.288466
      13A     -1.432168    14A     -1.405979    15A     -1.386323
      16A     -1.370671    17A     -1.365983    18A     -1.346802
      19A     -1.083213    20A     -1.052038    21A     -0.948012
      22A     -0.889424    23A     -0.854010    24A     -0.843500
      25A     -0.751910    26A     -0.726992    27A     -0.721046
      28A     -0.709578    29A     -0.691722    30A     -0.676224
      31A     -0.657243    32A     -0.653731    33A     -0.620865
      34A     -0.615031    35A     -0.597805    36A     -0.588378
      37A     -0.569187    38A     -0.560180    39A     -0.555749
      40A     -0.544233    41A     -0.523198    42A     -0.511431
      43A     -0.504967    44A     -0.486157    45A     -0.474869
      46A     -0.464600    47A     -0.448723    48A     -0.432408

  @DF-RHF Final Energy:  -683.60049463426117

   => Energetics <=

    Nuclear Repulsion Energy =            824.1692582831981326
    One-Electron Energy =               -2576.6862376191279509
    Two-Electron Energy =                1068.9164847016686508
    Total Energy =                       -683.6004946342611674
  Basis Set: (AUG-CC-PVTZ AUX)
    Blend: AUG-CC-PVTZ-RI
    Molecular point group: c1

    Geometry (in Angstrom), charge = 0, multiplicity = 1:

       Center              X                  Y                   Z               Mass
    ------------   -----------------  -----------------  -----------------  -----------------
         O           -0.718812854896    -1.108814203395    -0.250013292312    15.994914619570
         O           -0.762884854896     2.556019796605     0.205943707688    15.994914619570
         O            1.976354145104     1.989335796605    -0.337983292312    15.994914619570
         O            2.901606145104    -0.664010203395     0.174213707688    15.994914619570
         O            0.905651145104    -2.715830203395    -0.062382292312    15.994914619570
         O           -3.423886854896    -0.877305203395     0.194574707688    15.994914619570
         C           -0.330542854896     1.262550796605    -0.233526292312    12.000000000000
         C            1.107442145104     1.013780796605     0.205963707688    12.000000000000
         C           -1.255458554896     0.179001696605     0.252952907688    12.000000000000
         C            1.572203145104    -0.371195203395    -0.217933292312    12.000000000000
         C            0.574180145104    -1.417424203395     0.290992707688    12.000000000000
         C           -2.656224854896     0.212185796605    -0.291731292312    12.000000000000
         H           -0.352157854896     1.312706796605    -1.327841292312     1.007825032230
         H            1.128994145104     1.054298796605     1.316341707688     1.007825032230
         H           -1.271443854896     0.113260796605     1.341224707688     1.007825032230
         H            1.572165145104    -0.415795203395    -1.314842292312     1.007825032230
         H            0.516354145104    -1.404725203395     1.391036707688     1.007825032230
         H           -2.618889854896     0.227950796605    -1.391274292312     1.007825032230
         H           -3.138225854896     1.130531796605     0.050269707688     1.007825032230
         H           -0.836237854896     2.521616796605     1.178542707688     1.007825032230
         H            1.497080145104     2.835729796605    -0.246173292312     1.007825032230
         H            2.993176145104    -0.442871203395     1.118089707688     1.007825032230
         H            1.244372145104    -2.701809203395    -0.975452292312     1.007825032230
         H           -2.901390854896    -1.672218203395    -0.019348292312     1.007825032230

  Basis Set: AUG-CC-PVTZ
    Blend: AUG-CC-PVTZ
  Basis Set: (AUG-CC-PVTZ AUX)
    Blend: AUG-CC-PVTZ-JKFIT
	 Reference Energy          =    -683.6004946342611674 [Eh]
	 Singles Energy            =      -0.0000000000000000 [Eh]
	 Same-Spin Energy          =      -0.6657300446490979 [Eh]
	 Opposite-Spin Energy      =      -2.0458601033190389 [Eh]
	 Correlation Energy        =      -2.7115901479681366 [Eh]
	 Total Energy              =    -686.3120847822292490 [Eh]

	 ================> DF-SCS-MP2 Energies <==================
	-----------------------------------------------------------
	 SCS Same-Spin Scale       =       0.3333333333333333 [-]
	 SCS Opposite-Spin Scale   =       1.2000000000000000 [-]
	 SCS Same-Spin Energy      =      -0.2219100148830326 [Eh]
	 SCS Opposite-Spin Energy  =      -2.4550321239828468 [Eh]
	 SCS Correlation Energy    =      -2.6769421388658792 [Eh]
	 SCS Total Energy          =    -686.2774367731270786 [Eh]
	-----------------------------------------------------------

  Dipole Moment: [D]
     X:     0.1431      Y:     1.7239      Z:     1.4060     Total:     2.2292

*** Psi4 exiting successfully. Buy a developer a beer!
