                               Psi4 1.3.2 release

  ==> Input File <==

--------------------------------------------------------------------------
#psi4
#
memory 32 gb

molecule  {
0 1
  O       -0.7087550    -1.1193400    -0.2546710
  O       -0.7915579     2.5237563     0.2242419
  O        1.9863450     1.9788980    -0.3426730
  O        2.9116540    -0.6744470     0.1695670
  O        0.9157630    -2.7262860    -0.0672430
  O       -3.4138550    -0.8877920     0.1899090
  C       -0.3205170     1.2520290    -0.2382820
  C        1.1174580     1.0033160     0.2012620
  C       -1.2273170     0.1250620     0.2312770
  C        1.5822600    -0.3816350    -0.2226430
  C        0.5842790    -1.4279170     0.2862350
  C       -2.6461720     0.2016390    -0.2964840
  H       -0.3421210     1.3021240    -1.3326030
  H        1.1389810     1.0438400     1.3116400
  H       -1.2614020     0.1027960     1.3365120
  H        1.5823060    -0.4261990    -1.3195550
  H        0.5265370    -1.4152780     1.3862880
  H       -2.6088310     0.2173240    -1.3960300
  H       -3.1281770     1.1200080     0.0454480
  H       -0.8264260     2.5110960     1.1737150
  H        1.5069660     2.8252470    -0.2509780
  H        3.0031740    -0.4532420     1.1134330
  H        1.2543330    -2.7122130    -0.9803670
  H       -2.8912910    -1.6827110    -0.0238270
units angstrom
no_reorient  #important for SAPT in psi4, default
symmetry c1  #important for SAPT in psi4, default
}

set PROPERTIES_ORIGIN ["COM"]
properties('MP2/aug-cc-pvtz', properties = ['dipole'])
--------------------------------------------------------------------------

    Molecular point group: c1
  Charge       = 0
  Multiplicity = 1
  Basis Set: AUG-CC-PVTZ
    Blend: AUG-CC-PVTZ
  Basis Set: (AUG-CC-PVTZ AUX)
    Blend: AUG-CC-PVTZ-JKFIT

    Orbital Energies [Eh]
    ---------------------

    Doubly Occupied:

       1A    -20.594689     2A    -20.587467     3A    -20.583671
       4A    -20.579781     5A    -20.578862     6A    -20.562020
       7A    -11.356777     8A    -11.311218     9A    -11.310578
      10A    -11.306621    11A    -11.305686    12A    -11.286279
      13A     -1.439863    14A     -1.407580    15A     -1.389041
      16A     -1.373241    17A     -1.367038    18A     -1.352500
      19A     -1.081787    20A     -1.050797    21A     -0.946309
      22A     -0.892489    23A     -0.854436    24A     -0.843014
      25A     -0.754566    26A     -0.729313    27A     -0.721119
      28A     -0.713222    29A     -0.694431    30A     -0.674692
      31A     -0.660078    32A     -0.655322    33A     -0.619669
      34A     -0.616956    35A     -0.597725    36A     -0.586960
      37A     -0.570561    38A     -0.561895    39A     -0.556512
      40A     -0.545667    41A     -0.526360    42A     -0.516082
      43A     -0.502404    44A     -0.486931    45A     -0.474700
      46A     -0.462073    47A     -0.446665    48A     -0.430573

  @DF-RHF Final Energy:  -683.60500070061073

   => Energetics <=

    Nuclear Repulsion Energy =            824.8919543079867935
    One-Electron Energy =               -2578.0614733637130485
    Two-Electron Energy =                1069.5645183551155242
    Total Energy =                       -683.6050007006106171
  Basis Set: (AUG-CC-PVTZ AUX)
    Blend: AUG-CC-PVTZ-RI
    Molecular point group: c1

    Geometry (in Angstrom), charge = 0, multiplicity = 1:

       Center              X                  Y                   Z               Mass
    ------------   -----------------  -----------------  -----------------  -----------------
         O           -0.716568149603    -1.104028663184    -0.250866145176    15.994914619570
         O           -0.799371049603     2.539067636816     0.228046754824    15.994914619570
         O            1.978531850397     1.994209336816    -0.338868145176    15.994914619570
         O            2.903840850397    -0.659135663184     0.173371854824    15.994914619570
         O            0.907949850397    -2.710974663184    -0.063438145176    15.994914619570
         O           -3.421668149603    -0.872480663184     0.193713854824    15.994914619570
         C           -0.328330149603     1.267340336816    -0.234477145176    12.000000000000
         C            1.109644850397     1.018627336816     0.205066854824    12.000000000000
         C           -1.235130149603     0.140373336816     0.235081854824    12.000000000000
         C            1.574446850397    -0.366323663184    -0.218838145176    12.000000000000
         C            0.576465850397    -1.412605663184     0.290039854824    12.000000000000
         C           -2.653985149603     0.216950336816    -0.292679145176    12.000000000000
         H           -0.349934149603     1.317435336816    -1.328798145176     1.007825032230
         H            1.131167850397     1.059151336816     1.315444854824     1.007825032230
         H           -1.269215149603     0.118107336816     1.340316854824     1.007825032230
         H            1.574492850397    -0.410887663184    -1.315750145176     1.007825032230
         H            0.518723850397    -1.399966663184     1.390092854824     1.007825032230
         H           -2.616644149603     0.232635336816    -1.392225145176     1.007825032230
         H           -3.135990149603     1.135319336816     0.049252854824     1.007825032230
         H           -0.834239149603     2.526407336816     1.177519854824     1.007825032230
         H            1.499152850397     2.840558336816    -0.247173145176     1.007825032230
         H            2.995360850397    -0.437930663184     1.117237854824     1.007825032230
         H            1.246519850397    -2.696901663184    -0.976562145176     1.007825032230
         H           -2.899104149603    -1.667399663184    -0.020022145176     1.007825032230

  Basis Set: AUG-CC-PVTZ
    Blend: AUG-CC-PVTZ
  Basis Set: (AUG-CC-PVTZ AUX)
    Blend: AUG-CC-PVTZ-JKFIT
	 Reference Energy          =    -683.6050007006107307 [Eh]
	 Singles Energy            =      -0.0000000000000000 [Eh]
	 Same-Spin Energy          =      -0.6650414957344961 [Eh]
	 Opposite-Spin Energy      =      -2.0438909514402566 [Eh]
	 Correlation Energy        =      -2.7089324471747527 [Eh]
	 Total Energy              =    -686.3139331477855194 [Eh]

	 ================> DF-SCS-MP2 Energies <==================
	-----------------------------------------------------------
	 SCS Same-Spin Scale       =       0.3333333333333333 [-]
	 SCS Opposite-Spin Scale   =       1.2000000000000000 [-]
	 SCS Same-Spin Energy      =      -0.2216804985781654 [Eh]
	 SCS Opposite-Spin Energy  =      -2.4526691417283080 [Eh]
	 SCS Correlation Energy    =      -2.6743496403064735 [Eh]
	 SCS Total Energy          =    -686.2793503409171763 [Eh]
	-----------------------------------------------------------

  Dipole Moment: [D]
     X:     0.3302      Y:     1.6426      Z:     1.3451     Total:     2.1486

*** Psi4 exiting successfully. Buy a developer a beer!
