                               Psi4 1.3.2 release

  ==> Input File <==

--------------------------------------------------------------------------
#psi4
#
memory 32 gb

molecule  {
0 1
  O       -0.7087550    -1.1193400    -0.2546710
  O       -0.7529000     2.5454980     0.2011280
  O        1.9863450     1.9788980    -0.3426730
  O        2.9116540    -0.6744470     0.1695670
  O        0.9157630    -2.7262860    -0.0672430
  O       -3.4138550    -0.8877920     0.1899090
  C       -0.3205170     1.2520290    -0.2382820
  C        1.2031082     1.0428933     0.1525752
  C       -1.2273170     0.1250620     0.2312770
  C        1.5822600    -0.3816350    -0.2226430
  C        0.5842790    -1.4279170     0.2862350
  C       -2.6461720     0.2016390    -0.2964840
  H       -0.3421210     1.3021240    -1.3326030
  H        1.1389810     1.0438400     1.3116400
  H       -1.2614020     0.1027960     1.3365120
  H        1.5823060    -0.4261990    -1.3195550
  H        0.5265370    -1.4152780     1.3862880
  H       -2.6088310     0.2173240    -1.3960300
  H       -3.1281770     1.1200080     0.0454480
  H       -0.8264260     2.5110960     1.1737150
  H        1.5069660     2.8252470    -0.2509780
  H        3.0031740    -0.4532420     1.1134330
  H        1.2543330    -2.7122130    -0.9803670
  H       -2.8912910    -1.6827110    -0.0238270
units angstrom
no_reorient  #important for SAPT in psi4, default
symmetry c1  #important for SAPT in psi4, default
}

set PROPERTIES_ORIGIN ["COM"]
properties('MP2/aug-cc-pvtz', properties = ['dipole'])
--------------------------------------------------------------------------

    Molecular point group: c1
  Charge       = 0
  Multiplicity = 1
  Basis Set: AUG-CC-PVTZ
    Blend: AUG-CC-PVTZ
  Basis Set: (AUG-CC-PVTZ AUX)
    Blend: AUG-CC-PVTZ-JKFIT

    Orbital Energies [Eh]
    ---------------------

    Doubly Occupied:

       1A    -20.596978     2A    -20.587882     3A    -20.586660
       4A    -20.584207     5A    -20.576073     6A    -20.561818
       7A    -11.357423     8A    -11.313959     9A    -11.308242
      10A    -11.306789    11A    -11.302855    12A    -11.286350
      13A     -1.441693    14A     -1.430164    15A     -1.391651
      16A     -1.377544    17A     -1.369782    18A     -1.352132
      19A     -1.069087    20A     -1.048548    21A     -0.939883
      22A     -0.894900    23A     -0.852652    24A     -0.838556
      25A     -0.761907    26A     -0.734803    27A     -0.720106
      28A     -0.706794    29A     -0.691682    30A     -0.684016
      31A     -0.671616    32A     -0.657211    33A     -0.621315
      34A     -0.614679    35A     -0.598759    36A     -0.587828
      37A     -0.579252    38A     -0.562822    39A     -0.554930
      40A     -0.548856    41A     -0.526248    42A     -0.515988
      43A     -0.497791    44A     -0.484916    45A     -0.464233
      46A     -0.455254    47A     -0.440054    48A     -0.424462

  @DF-RHF Final Energy:  -683.59380526144696

   => Energetics <=

    Nuclear Repulsion Energy =            824.3057732673720466
    One-Electron Energy =               -2576.8364479735173518
    Two-Electron Energy =                1068.9368694446984591
    Total Energy =                       -683.5938052614469598
  Basis Set: (AUG-CC-PVTZ AUX)
    Blend: AUG-CC-PVTZ-RI
    Molecular point group: c1

    Geometry (in Angstrom), charge = 0, multiplicity = 1:

       Center              X                  Y                   Z               Mass
    ------------   -----------------  -----------------  -----------------  -----------------
         O           -0.725710109149    -1.108597522206    -0.245568308303    15.994914619570
         O           -0.769855109149     2.556240477794     0.210230691697    15.994914619570
         O            1.969389890851     1.989640477794    -0.333570308303    15.994914619570
         O            2.894698890851    -0.663704522206     0.178669691697    15.994914619570
         O            0.898807890851    -2.715543522206    -0.058140308303    15.994914619570
         O           -3.430810109149    -0.877049522206     0.199011691697    15.994914619570
         C           -0.337472109149     1.262771477794    -0.229179308303    12.000000000000
         C            1.186153090851     1.053635777794     0.161677891697    12.000000000000
         C           -1.244272109149     0.135804477794     0.240379691697    12.000000000000
         C            1.565304890851    -0.370892522206    -0.213540308303    12.000000000000
         C            0.567323890851    -1.417174522206     0.295337691697    12.000000000000
         C           -2.663127109149     0.212381477794    -0.287381308303    12.000000000000
         H           -0.359076109149     1.312866477794    -1.323500308303     1.007825032230
         H            1.122025890851     1.054582477794     1.320742691697     1.007825032230
         H           -1.278357109149     0.113538477794     1.345614691697     1.007825032230
         H            1.565350890851    -0.415456522206    -1.310452308303     1.007825032230
         H            0.509581890851    -1.404535522206     1.395390691697     1.007825032230
         H           -2.625786109149     0.228066477794    -1.386927308303     1.007825032230
         H           -3.145132109149     1.130750477794     0.054550691697     1.007825032230
         H           -0.843381109149     2.521838477794     1.182817691697     1.007825032230
         H            1.490010890851     2.835989477794    -0.241875308303     1.007825032230
         H            2.986218890851    -0.442499522206     1.122535691697     1.007825032230
         H            1.237377890851    -2.701470522206    -0.971264308303     1.007825032230
         H           -2.908246109149    -1.671968522206    -0.014724308303     1.007825032230

  Basis Set: AUG-CC-PVTZ
    Blend: AUG-CC-PVTZ
  Basis Set: (AUG-CC-PVTZ AUX)
    Blend: AUG-CC-PVTZ-JKFIT
	 Reference Energy          =    -683.5938052614469598 [Eh]
	 Singles Energy            =      -0.0000000000000000 [Eh]
	 Same-Spin Energy          =      -0.6655051139556836 [Eh]
	 Opposite-Spin Energy      =      -2.0438271737119957 [Eh]
	 Correlation Energy        =      -2.7093322876676793 [Eh]
	 Total Energy              =    -686.3031375491146946 [Eh]

	 ================> DF-SCS-MP2 Energies <==================
	-----------------------------------------------------------
	 SCS Same-Spin Scale       =       0.3333333333333333 [-]
	 SCS Opposite-Spin Scale   =       1.2000000000000000 [-]
	 SCS Same-Spin Energy      =      -0.2218350379852279 [Eh]
	 SCS Opposite-Spin Energy  =      -2.4525926084543950 [Eh]
	 SCS Correlation Energy    =      -2.6744276464396228 [Eh]
	 SCS Total Energy          =    -686.2682329078866132 [Eh]
	-----------------------------------------------------------

  Dipole Moment: [D]
     X:     0.4215      Y:     1.8526      Z:     1.1776     Total:     2.2353

*** Psi4 exiting successfully. Buy a developer a beer!
