                               Psi4 1.3.2 release

  ==> Input File <==

--------------------------------------------------------------------------
#psi4
#
memory 32 gb

molecule  {
0 1
  O       -0.7087550    -1.1193400    -0.2546710
  O       -0.7529000     2.5454980     0.2011280
  O        1.9863450     1.9788980    -0.3426730
  O        2.9116540    -0.6744470     0.1695670
  O        0.9157630    -2.7262860    -0.0672430
  O       -3.4138550    -0.8877920     0.1899090
  C       -0.3205170     1.2520290    -0.2382820
  C        1.1174580     1.0033160     0.2012620
  C       -1.2065985     0.1281038     0.2449530
  C        1.5822600    -0.3816350    -0.2226430
  C        0.5842790    -1.4279170     0.2862350
  C       -2.6461720     0.2016390    -0.2964840
  H       -0.3421210     1.3021240    -1.3326030
  H        1.1389810     1.0438400     1.3116400
  H       -1.2614020     0.1027960     1.3365120
  H        1.5823060    -0.4261990    -1.3195550
  H        0.5265370    -1.4152780     1.3862880
  H       -2.6088310     0.2173240    -1.3960300
  H       -3.1281770     1.1200080     0.0454480
  H       -0.8264260     2.5110960     1.1737150
  H        1.5069660     2.8252470    -0.2509780
  H        3.0031740    -0.4532420     1.1134330
  H        1.2543330    -2.7122130    -0.9803670
  H       -2.8912910    -1.6827110    -0.0238270
units angstrom
no_reorient  #important for SAPT in psi4, default
symmetry c1  #important for SAPT in psi4, default
}

set PROPERTIES_ORIGIN ["COM"]
properties('MP2/aug-cc-pvtz', properties = ['dipole'])
--------------------------------------------------------------------------

    Molecular point group: c1
  Charge       = 0
  Multiplicity = 1
  Basis Set: AUG-CC-PVTZ
    Blend: AUG-CC-PVTZ
  Basis Set: (AUG-CC-PVTZ AUX)
    Blend: AUG-CC-PVTZ-JKFIT

    Orbital Energies [Eh]
    ---------------------

    Doubly Occupied:

       1A    -20.598622     2A    -20.589388     3A    -20.583645
       4A    -20.579346     5A    -20.577183     6A    -20.562458
       7A    -11.356658     8A    -11.310182     9A    -11.309319
      10A    -11.307025    11A    -11.305176    12A    -11.287851
      13A     -1.440595    14A     -1.405269    15A     -1.387772
      16A     -1.372317    17A     -1.365776    18A     -1.353059
      19A     -1.082044    20A     -1.048846    21A     -0.943708
      22A     -0.891398    23A     -0.854600    24A     -0.844084
      25A     -0.753971    26A     -0.729600    27A     -0.721118
      28A     -0.710752    29A     -0.692917    30A     -0.674216
      31A     -0.659963    32A     -0.654897    33A     -0.620243
      34A     -0.615156    35A     -0.597391    36A     -0.587193
      37A     -0.570034    38A     -0.562019    39A     -0.556418
      40A     -0.543931    41A     -0.527031    42A     -0.517466
      43A     -0.504703    44A     -0.486474    45A     -0.475097
      46A     -0.462226    47A     -0.444658    48A     -0.430615

  @DF-RHF Final Energy:  -683.60309123140439

   => Energetics <=

    Nuclear Repulsion Energy =            824.7547447609640585
    One-Electron Energy =               -2577.8068453900436907
    Two-Electron Energy =                1069.4490093976753542
    Total Energy =                       -683.6030912314042780
  Basis Set: (AUG-CC-PVTZ AUX)
    Blend: AUG-CC-PVTZ-RI
    Molecular point group: c1

    Geometry (in Angstrom), charge = 0, multiplicity = 1:

       Center              X                  Y                   Z               Mass
    ------------   -----------------  -----------------  -----------------  -----------------
         O           -0.721382853019    -1.106162679651    -0.249724364722    15.994914619570
         O           -0.765527853019     2.558675320349     0.206074635278    15.994914619570
         O            1.973717146981     1.992075320349    -0.337726364722    15.994914619570
         O            2.899026146981    -0.661269679651     0.174513635278    15.994914619570
         O            0.903135146981    -2.713108679651    -0.062296364722    15.994914619570
         O           -3.426482853019    -0.874614679651     0.194855635278    15.994914619570
         C           -0.333144853019     1.265206320349    -0.233335364722    12.000000000000
         C            1.104830146981     1.016493320349     0.206208635278    12.000000000000
         C           -1.219226353019     0.141281120349     0.249899635278    12.000000000000
         C            1.569632146981    -0.368457679651    -0.217696364722    12.000000000000
         C            0.571651146981    -1.414739679651     0.291181635278    12.000000000000
         C           -2.658799853019     0.214816320349    -0.291537364722    12.000000000000
         H           -0.354748853019     1.315301320349    -1.327656364722     1.007825032230
         H            1.126353146981     1.057017320349     1.316586635278     1.007825032230
         H           -1.274029853019     0.115973320349     1.341458635278     1.007825032230
         H            1.569678146981    -0.413021679651    -1.314608364722     1.007825032230
         H            0.513909146981    -1.402100679651     1.391234635278     1.007825032230
         H           -2.621458853019     0.230501320349    -1.391083364722     1.007825032230
         H           -3.140804853019     1.133185320349     0.050394635278     1.007825032230
         H           -0.839053853019     2.524273320349     1.178661635278     1.007825032230
         H            1.494338146981     2.838424320349    -0.246031364722     1.007825032230
         H            2.990546146981    -0.440064679651     1.118379635278     1.007825032230
         H            1.241705146981    -2.699035679651    -0.975420364722     1.007825032230
         H           -2.903918853019    -1.669533679651    -0.018880364722     1.007825032230

  Basis Set: AUG-CC-PVTZ
    Blend: AUG-CC-PVTZ
  Basis Set: (AUG-CC-PVTZ AUX)
    Blend: AUG-CC-PVTZ-JKFIT
	 Reference Energy          =    -683.6030912314043917 [Eh]
	 Singles Energy            =      -0.0000000000000000 [Eh]
	 Same-Spin Energy          =      -0.6654962222047696 [Eh]
	 Opposite-Spin Energy      =      -2.0450473614760316 [Eh]
	 Correlation Energy        =      -2.7105435836808009 [Eh]
	 Total Energy              =    -686.3136348150851518 [Eh]

	 ================> DF-SCS-MP2 Energies <==================
	-----------------------------------------------------------
	 SCS Same-Spin Scale       =       0.3333333333333333 [-]
	 SCS Opposite-Spin Scale   =       1.2000000000000000 [-]
	 SCS Same-Spin Energy      =      -0.2218320740682565 [Eh]
	 SCS Opposite-Spin Energy  =      -2.4540568337712378 [Eh]
	 SCS Correlation Energy    =      -2.6758889078394943 [Eh]
	 SCS Total Energy          =    -686.2789801392439131 [Eh]
	-----------------------------------------------------------

  Dipole Moment: [D]
     X:     0.2285      Y:     1.5946      Z:     1.3855     Total:     2.1248

*** Psi4 exiting successfully. Buy a developer a beer!
