                               Psi4 1.3.2 release

  ==> Input File <==

--------------------------------------------------------------------------
#psi4
#
memory 32 gb

molecule  {
0 1
  O       -0.6885734    -1.0799395    -0.2781182
  O       -0.7529000     2.5454980     0.2011280
  O        1.9863450     1.9788980    -0.3426730
  O        2.9116540    -0.6744470     0.1695670
  O        0.9157630    -2.7262860    -0.0672430
  O       -3.4138550    -0.8877920     0.1899090
  C       -0.3205170     1.2520290    -0.2382820
  C        1.1174580     1.0033160     0.2012620
  C       -1.2273170     0.1250620     0.2312770
  C        1.5822600    -0.3816350    -0.2226430
  C        0.5842790    -1.4279170     0.2862350
  C       -2.6461720     0.2016390    -0.2964840
  H       -0.3421210     1.3021240    -1.3326030
  H        1.1389810     1.0438400     1.3116400
  H       -1.2614020     0.1027960     1.3365120
  H        1.5823060    -0.4261990    -1.3195550
  H        0.5265370    -1.4152780     1.3862880
  H       -2.6088310     0.2173240    -1.3960300
  H       -3.1281770     1.1200080     0.0454480
  H       -0.8264260     2.5110960     1.1737150
  H        1.5069660     2.8252470    -0.2509780
  H        3.0031740    -0.4532420     1.1134330
  H        1.2543330    -2.7122130    -0.9803670
  H       -2.8912910    -1.6827110    -0.0238270
units angstrom
no_reorient  #important for SAPT in psi4, default
symmetry c1  #important for SAPT in psi4, default
}

set PROPERTIES_ORIGIN ["COM"]
properties('MP2/aug-cc-pvtz', properties = ['dipole'])
--------------------------------------------------------------------------

    Molecular point group: c1
  Charge       = 0
  Multiplicity = 1
  Basis Set: AUG-CC-PVTZ
    Blend: AUG-CC-PVTZ
  Basis Set: (AUG-CC-PVTZ AUX)
    Blend: AUG-CC-PVTZ-JKFIT

    Orbital Energies [Eh]
    ---------------------

    Doubly Occupied:

       1A    -20.596399     2A    -20.587963     3A    -20.585564
       4A    -20.578055     5A    -20.576876     6A    -20.563432
       7A    -11.357956     8A    -11.309151     9A    -11.308187
      10A    -11.306696    11A    -11.303845    12A    -11.287036
      13A     -1.443166    14A     -1.403856    15A     -1.387761
      16A     -1.373953    17A     -1.365152    18A     -1.355745
      19A     -1.078605    20A     -1.052593    21A     -0.945805
      22A     -0.891071    23A     -0.854063    24A     -0.842940
      25A     -0.755742    26A     -0.730344    27A     -0.720385
      28A     -0.709841    29A     -0.694675    30A     -0.675238
      31A     -0.661151    32A     -0.654790    33A     -0.618843
      34A     -0.615244    35A     -0.598093    36A     -0.587604
      37A     -0.570114    38A     -0.562121    39A     -0.554875
      40A     -0.542848    41A     -0.528910    42A     -0.519157
      43A     -0.502822    44A     -0.486675    45A     -0.473223
      46A     -0.461624    47A     -0.446984    48A     -0.428593

  @DF-RHF Final Energy:  -683.60397257445914

   => Energetics <=

    Nuclear Repulsion Energy =            825.4660778637572776
    One-Electron Energy =               -2579.2285727102407691
    Two-Electron Energy =                1070.1585222720243564
    Total Energy =                       -683.6039725744592488
  Basis Set: (AUG-CC-PVTZ AUX)
    Blend: AUG-CC-PVTZ-RI
    Molecular point group: c1

    Geometry (in Angstrom), charge = 0, multiplicity = 1:

       Center              X                  Y                   Z               Mass
    ------------   -----------------  -----------------  -----------------  -----------------
         O           -0.701613224435    -1.070059385372    -0.270177352696    15.994914619570
         O           -0.765939824435     2.555378114628     0.209068847304    15.994914619570
         O            1.973305175565     1.988778114628    -0.334732152696    15.994914619570
         O            2.898614175565    -0.664566885372     0.177507847304    15.994914619570
         O            0.902723175565    -2.716405885372    -0.059302152696    15.994914619570
         O           -3.426894824435    -0.877911885372     0.197849847304    15.994914619570
         C           -0.333556824435     1.261909114628    -0.230341152696    12.000000000000
         C            1.104418175565     1.013196114628     0.209202847304    12.000000000000
         C           -1.240356824435     0.134942114628     0.239217847304    12.000000000000
         C            1.569220175565    -0.371754885372    -0.214702152696    12.000000000000
         C            0.571239175565    -1.418036885372     0.294175847304    12.000000000000
         C           -2.659211824435     0.211519114628    -0.288543152696    12.000000000000
         H           -0.355160824435     1.312004114628    -1.324662152696     1.007825032230
         H            1.125941175565     1.053720114628     1.319580847304     1.007825032230
         H           -1.274441824435     0.112676114628     1.344452847304     1.007825032230
         H            1.569266175565    -0.416318885372    -1.311614152696     1.007825032230
         H            0.513497175565    -1.405397885372     1.394228847304     1.007825032230
         H           -2.621870824435     0.227204114628    -1.388089152696     1.007825032230
         H           -3.141216824435     1.129888114628     0.053388847304     1.007825032230
         H           -0.839465824435     2.520976114628     1.181655847304     1.007825032230
         H            1.493926175565     2.835127114628    -0.243037152696     1.007825032230
         H            2.990134175565    -0.443361885372     1.121373847304     1.007825032230
         H            1.241293175565    -2.702332885372    -0.972426152696     1.007825032230
         H           -2.904330824435    -1.672830885372    -0.015886152696     1.007825032230

  Basis Set: AUG-CC-PVTZ
    Blend: AUG-CC-PVTZ
  Basis Set: (AUG-CC-PVTZ AUX)
    Blend: AUG-CC-PVTZ-JKFIT
	 Reference Energy          =    -683.6039725744591351 [Eh]
	 Singles Energy            =      -0.0000000000000000 [Eh]
	 Same-Spin Energy          =      -0.6653881627605034 [Eh]
	 Opposite-Spin Energy      =      -2.0443786588164023 [Eh]
	 Correlation Energy        =      -2.7097668215769057 [Eh]
	 Total Energy              =    -686.3137393960359987 [Eh]

	 ================> DF-SCS-MP2 Energies <==================
	-----------------------------------------------------------
	 SCS Same-Spin Scale       =       0.3333333333333333 [-]
	 SCS Opposite-Spin Scale   =       1.2000000000000000 [-]
	 SCS Same-Spin Energy      =      -0.2217960542535011 [Eh]
	 SCS Opposite-Spin Energy  =      -2.4532543905796826 [Eh]
	 SCS Correlation Energy    =      -2.6750504448331838 [Eh]
	 SCS Total Energy          =    -686.2790230192923673 [Eh]
	-----------------------------------------------------------

  Dipole Moment: [D]
     X:     0.1731      Y:     1.4779      Z:     1.3996     Total:     2.0428

*** Psi4 exiting successfully. Buy a developer a beer!
