                               Psi4 1.3.2 release

  ==> Input File <==

--------------------------------------------------------------------------
#psi4
#
memory 32 gb

molecule  {
0 1
  O       -0.6229118    -1.0977349    -0.2080981
  O       -0.7529000     2.5454980     0.2011280
  O        1.9863450     1.9788980    -0.3426730
  O        2.9116540    -0.6744470     0.1695670
  O        0.9157630    -2.7262860    -0.0672430
  O       -3.4138550    -0.8877920     0.1899090
  C       -0.3205170     1.2520290    -0.2382820
  C        1.1174580     1.0033160     0.2012620
  C       -1.2273170     0.1250620     0.2312770
  C        1.5822600    -0.3816350    -0.2226430
  C        0.5842790    -1.4279170     0.2862350
  C       -2.6461720     0.2016390    -0.2964840
  H       -0.3421210     1.3021240    -1.3326030
  H        1.1389810     1.0438400     1.3116400
  H       -1.2614020     0.1027960     1.3365120
  H        1.5823060    -0.4261990    -1.3195550
  H        0.5265370    -1.4152780     1.3862880
  H       -2.6088310     0.2173240    -1.3960300
  H       -3.1281770     1.1200080     0.0454480
  H       -0.8264260     2.5110960     1.1737150
  H        1.5069660     2.8252470    -0.2509780
  H        3.0031740    -0.4532420     1.1134330
  H        1.2543330    -2.7122130    -0.9803670
  H       -2.8912910    -1.6827110    -0.0238270
units angstrom
no_reorient  #important for SAPT in psi4, default
symmetry c1  #important for SAPT in psi4, default
}

set PROPERTIES_ORIGIN ["COM"]
properties('MP2/aug-cc-pvtz', properties = ['dipole'])
--------------------------------------------------------------------------

    Molecular point group: c1
  Charge       = 0
  Multiplicity = 1
  Basis Set: AUG-CC-PVTZ
    Blend: AUG-CC-PVTZ
  Basis Set: (AUG-CC-PVTZ AUX)
    Blend: AUG-CC-PVTZ-JKFIT

    Orbital Energies [Eh]
    ---------------------

    Doubly Occupied:

       1A    -20.598270     2A    -20.585420     3A    -20.578688
       4A    -20.576472     5A    -20.573725     6A    -20.567714
       7A    -11.347908     8A    -11.314621     9A    -11.310855
      10A    -11.308181    11A    -11.298513    12A    -11.293486
      13A     -1.460417    14A     -1.405159    15A     -1.385846
      16A     -1.373245    17A     -1.364760    18A     -1.358412
      19A     -1.083567    20A     -1.055910    21A     -0.946567
      22A     -0.889764    23A     -0.859794    24A     -0.843909
      25A     -0.757805    26A     -0.734660    27A     -0.721175
      28A     -0.712456    29A     -0.698524    30A     -0.675072
      31A     -0.667978    32A     -0.654523    33A     -0.620114
      34A     -0.615270    35A     -0.602119    36A     -0.587100
      37A     -0.573041    38A     -0.563871    39A     -0.552321
      40A     -0.541656    41A     -0.529853    42A     -0.510967
      43A     -0.503267    44A     -0.492010    45A     -0.472422
      46A     -0.464028    47A     -0.446610    48A     -0.423389

  @DF-RHF Final Energy:  -683.60194147549669

   => Energetics <=

    Nuclear Repulsion Energy =            826.9413387807408071
    One-Electron Energy =               -2582.0836957294650347
    Two-Electron Energy =                1071.5404154732275401
    Total Energy =                       -683.6019414754966874
  Basis Set: (AUG-CC-PVTZ AUX)
    Blend: AUG-CC-PVTZ-RI
    Molecular point group: c1

    Geometry (in Angstrom), charge = 0, multiplicity = 1:

       Center              X                  Y                   Z               Mass
    ------------   -----------------  -----------------  -----------------  -----------------
         O           -0.641784302009    -1.086274031469    -0.206377093014    15.994914619570
         O           -0.771772502009     2.556958868531     0.202849006986    15.994914619570
         O            1.967472497991     1.990358868531    -0.340951993014    15.994914619570
         O            2.892781497991    -0.662986131469     0.171288006986    15.994914619570
         O            0.896890497991    -2.714825131469    -0.065521993014    15.994914619570
         O           -3.432727502009    -0.876331131469     0.191630006986    15.994914619570
         C           -0.339389502009     1.263489868531    -0.236560993014    12.000000000000
         C            1.098585497991     1.014776868531     0.202983006986    12.000000000000
         C           -1.246189502009     0.136522868531     0.232998006986    12.000000000000
         C            1.563387497991    -0.370174131469    -0.220921993014    12.000000000000
         C            0.565406497991    -1.416456131469     0.287956006986    12.000000000000
         C           -2.665044502009     0.213099868531    -0.294762993014    12.000000000000
         H           -0.360993502009     1.313584868531    -1.330881993014     1.007825032230
         H            1.120108497991     1.055300868531     1.313361006986     1.007825032230
         H           -1.280274502009     0.114256868531     1.338233006986     1.007825032230
         H            1.563433497991    -0.414738131469    -1.317833993014     1.007825032230
         H            0.507664497991    -1.403817131469     1.388009006986     1.007825032230
         H           -2.627703502009     0.228784868531    -1.394308993014     1.007825032230
         H           -3.147049502009     1.131468868531     0.047169006986     1.007825032230
         H           -0.845298502009     2.522556868531     1.175436006986     1.007825032230
         H            1.488093497991     2.836707868531    -0.249256993014     1.007825032230
         H            2.984301497991    -0.441781131469     1.115154006986     1.007825032230
         H            1.235460497991    -2.700752131469    -0.978645993014     1.007825032230
         H           -2.910163502009    -1.671250131469    -0.022105993014     1.007825032230

  Basis Set: AUG-CC-PVTZ
    Blend: AUG-CC-PVTZ
  Basis Set: (AUG-CC-PVTZ AUX)
    Blend: AUG-CC-PVTZ-JKFIT
	 Reference Energy          =    -683.6019414754966874 [Eh]
	 Singles Energy            =      -0.0000000000000000 [Eh]
	 Same-Spin Energy          =      -0.6647451217723552 [Eh]
	 Opposite-Spin Energy      =      -2.0419529136202459 [Eh]
	 Correlation Energy        =      -2.7066980353926011 [Eh]
	 Total Energy              =    -686.3086395108892930 [Eh]

	 ================> DF-SCS-MP2 Energies <==================
	-----------------------------------------------------------
	 SCS Same-Spin Scale       =       0.3333333333333333 [-]
	 SCS Opposite-Spin Scale   =       1.2000000000000000 [-]
	 SCS Same-Spin Energy      =      -0.2215817072574517 [Eh]
	 SCS Opposite-Spin Energy  =      -2.4503434963442952 [Eh]
	 SCS Correlation Energy    =      -2.6719252036017469 [Eh]
	 SCS Total Energy          =    -686.2738666790984325 [Eh]
	-----------------------------------------------------------

  Dipole Moment: [D]
     X:    -0.2765      Y:     1.6969      Z:     1.2504     Total:     2.1259

*** Psi4 exiting successfully. Buy a developer a beer!
