                               Psi4 1.3.2 release

  ==> Input File <==

--------------------------------------------------------------------------
#psi4
#
memory 32 gb

molecule  {
0 1
  O       -0.7087550    -1.1193400    -0.2546710
  O       -0.7529000     2.5454980     0.2011280
  O        1.9863450     1.9788980    -0.3426730
  O        2.9116540    -0.6744470     0.1695670
  O        0.9157630    -2.7262860    -0.0672430
  O       -3.4138550    -0.8877920     0.1899090
  C       -0.3612666     1.2721332    -0.2657249
  C        1.1174580     1.0033160     0.2012620
  C       -1.2273170     0.1250620     0.2312770
  C        1.5822600    -0.3816350    -0.2226430
  C        0.5842790    -1.4279170     0.2862350
  C       -2.6461720     0.2016390    -0.2964840
  H       -0.3421210     1.3021240    -1.3326030
  H        1.1389810     1.0438400     1.3116400
  H       -1.2614020     0.1027960     1.3365120
  H        1.5823060    -0.4261990    -1.3195550
  H        0.5265370    -1.4152780     1.3862880
  H       -2.6088310     0.2173240    -1.3960300
  H       -3.1281770     1.1200080     0.0454480
  H       -0.8264260     2.5110960     1.1737150
  H        1.5069660     2.8252470    -0.2509780
  H        3.0031740    -0.4532420     1.1134330
  H        1.2543330    -2.7122130    -0.9803670
  H       -2.8912910    -1.6827110    -0.0238270
units angstrom
no_reorient  #important for SAPT in psi4, default
symmetry c1  #important for SAPT in psi4, default
}

set PROPERTIES_ORIGIN ["COM"]
properties('MP2/aug-cc-pvtz', properties = ['dipole'])
--------------------------------------------------------------------------

    Molecular point group: c1
  Charge       = 0
  Multiplicity = 1
  Basis Set: AUG-CC-PVTZ
    Blend: AUG-CC-PVTZ
  Basis Set: (AUG-CC-PVTZ AUX)
    Blend: AUG-CC-PVTZ-JKFIT

    Orbital Energies [Eh]
    ---------------------

    Doubly Occupied:

       1A    -20.599802     2A    -20.588770     3A    -20.583250
       4A    -20.578219     5A    -20.576242     6A    -20.561727
       7A    -11.356208     8A    -11.310006     9A    -11.309309
      10A    -11.307207    11A    -11.303640    12A    -11.286336
      13A     -1.439708    14A     -1.409191    15A     -1.387715
      16A     -1.372925    17A     -1.365181    18A     -1.352420
      19A     -1.074802    20A     -1.050673    21A     -0.942894
      22A     -0.892479    23A     -0.851561    24A     -0.844861
      25A     -0.753394    26A     -0.729357    27A     -0.719431
      28A     -0.712437    29A     -0.693144    30A     -0.672664
      31A     -0.659063    32A     -0.653939    33A     -0.625630
      34A     -0.617164    35A     -0.598890    36A     -0.586951
      37A     -0.569025    38A     -0.561600    39A     -0.556264
      40A     -0.547084    41A     -0.527744    42A     -0.516750
      43A     -0.502769    44A     -0.486903    45A     -0.474078
      46A     -0.459184    47A     -0.441847    48A     -0.426270

  @DF-RHF Final Energy:  -683.60228367719014

   => Energetics <=

    Nuclear Repulsion Energy =            824.1354672034484565
    One-Electron Energy =               -2576.6020890450822662
    Two-Electron Energy =                1068.8643381644435522
    Total Energy =                       -683.6022836771901439
  Basis Set: (AUG-CC-PVTZ AUX)
    Blend: AUG-CC-PVTZ-RI
    Molecular point group: c1

    Geometry (in Angstrom), charge = 0, multiplicity = 1:

       Center              X                  Y                   Z               Mass
    ------------   -----------------  -----------------  -----------------  -----------------
         O           -0.717286422269    -1.107299772550    -0.246984069734    15.994914619570
         O           -0.761431422269     2.557538227450     0.208814930266    15.994914619570
         O            1.977813577731     1.990938227450    -0.334986069734    15.994914619570
         O            2.903122577731    -0.662406772550     0.177253930266    15.994914619570
         O            0.907231577731    -2.714245772550    -0.059556069734    15.994914619570
         O           -3.422386422269    -0.875751772550     0.197595930266    15.994914619570
         C           -0.369798022269     1.284173427450    -0.258037969734    12.000000000000
         C            1.108926577731     1.015356227450     0.208948930266    12.000000000000
         C           -1.235848422269     0.137102227450     0.238963930266    12.000000000000
         C            1.573728577731    -0.369594772550    -0.214956069734    12.000000000000
         C            0.575747577731    -1.415876772550     0.293921930266    12.000000000000
         C           -2.654703422269     0.213679227450    -0.288797069734    12.000000000000
         H           -0.350652422269     1.314164227450    -1.324916069734     1.007825032230
         H            1.130449577731     1.055880227450     1.319326930266     1.007825032230
         H           -1.269933422269     0.114836227450     1.344198930266     1.007825032230
         H            1.573774577731    -0.414158772550    -1.311868069734     1.007825032230
         H            0.518005577731    -1.403237772550     1.393974930266     1.007825032230
         H           -2.617362422269     0.229364227450    -1.388343069734     1.007825032230
         H           -3.136708422269     1.132048227450     0.053134930266     1.007825032230
         H           -0.834957422269     2.523136227450     1.181401930266     1.007825032230
         H            1.498434577731     2.837287227450    -0.243291069734     1.007825032230
         H            2.994642577731    -0.441201772550     1.121119930266     1.007825032230
         H            1.245801577731    -2.700172772550    -0.972680069734     1.007825032230
         H           -2.899822422269    -1.670670772550    -0.016140069734     1.007825032230

  Basis Set: AUG-CC-PVTZ
    Blend: AUG-CC-PVTZ
  Basis Set: (AUG-CC-PVTZ AUX)
    Blend: AUG-CC-PVTZ-JKFIT
	 Reference Energy          =    -683.6022836771901439 [Eh]
	 Singles Energy            =      -0.0000000000000000 [Eh]
	 Same-Spin Energy          =      -0.6651876416133584 [Eh]
	 Opposite-Spin Energy      =      -2.0443513065969241 [Eh]
	 Correlation Energy        =      -2.7095389482102825 [Eh]
	 Total Energy              =    -686.3118226254003957 [Eh]

	 ================> DF-SCS-MP2 Energies <==================
	-----------------------------------------------------------
	 SCS Same-Spin Scale       =       0.3333333333333333 [-]
	 SCS Opposite-Spin Scale   =       1.2000000000000000 [-]
	 SCS Same-Spin Energy      =      -0.2217292138711195 [Eh]
	 SCS Opposite-Spin Energy  =      -2.4532215679163087 [Eh]
	 SCS Correlation Energy    =      -2.6749507817874281 [Eh]
	 SCS Total Energy          =    -686.2772344589775457 [Eh]
	-----------------------------------------------------------

  Dipole Moment: [D]
     X:     0.1653      Y:     1.6865      Z:     1.3603     Total:     2.1730

*** Psi4 exiting successfully. Buy a developer a beer!
