                               Psi4 1.3.2 release

  ==> Input File <==

--------------------------------------------------------------------------
#psi4
#
memory 32 gb

molecule  {
0 1
  O       -0.7087550    -1.1193400    -0.2546710
  O       -0.7529000     2.5454980     0.2011280
  O        1.9863450     1.9788980    -0.3426730
  O        2.9116540    -0.6744470     0.1695670
  O        0.9157630    -2.7262860    -0.0672430
  O       -3.4138550    -0.8877920     0.1899090
  C       -0.3205170     1.2520290    -0.2382820
  C        1.1174580     1.0033160     0.2012620
  C       -1.2635033     0.2118988     0.2651874
  C        1.5822600    -0.3816350    -0.2226430
  C        0.5842790    -1.4279170     0.2862350
  C       -2.6461720     0.2016390    -0.2964840
  H       -0.3421210     1.3021240    -1.3326030
  H        1.1389810     1.0438400     1.3116400
  H       -1.2614020     0.1027960     1.3365120
  H        1.5823060    -0.4261990    -1.3195550
  H        0.5265370    -1.4152780     1.3862880
  H       -2.6088310     0.2173240    -1.3960300
  H       -3.1281770     1.1200080     0.0454480
  H       -0.8264260     2.5110960     1.1737150
  H        1.5069660     2.8252470    -0.2509780
  H        3.0031740    -0.4532420     1.1134330
  H        1.2543330    -2.7122130    -0.9803670
  H       -2.8912910    -1.6827110    -0.0238270
units angstrom
no_reorient  #important for SAPT in psi4, default
symmetry c1  #important for SAPT in psi4, default
}

set PROPERTIES_ORIGIN ["COM"]
properties('MP2/aug-cc-pvtz', properties = ['dipole'])
--------------------------------------------------------------------------

    Molecular point group: c1
  Charge       = 0
  Multiplicity = 1
  Basis Set: AUG-CC-PVTZ
    Blend: AUG-CC-PVTZ
  Basis Set: (AUG-CC-PVTZ AUX)
    Blend: AUG-CC-PVTZ-JKFIT

    Orbital Energies [Eh]
    ---------------------

    Doubly Occupied:

       1A    -20.598818     2A    -20.579441     3A    -20.579308
       4A    -20.577862     5A    -20.577296     6A    -20.565125
       7A    -11.350818     8A    -11.313905     9A    -11.311546
      10A    -11.311031    11A    -11.302623    12A    -11.289886
      13A     -1.426266    14A     -1.406820    15A     -1.385591
      16A     -1.369841    17A     -1.365969    18A     -1.338595
      19A     -1.085936    20A     -1.052775    21A     -0.949984
      22A     -0.888068    23A     -0.853729    24A     -0.844715
      25A     -0.750277    26A     -0.725014    27A     -0.720807
      28A     -0.709559    29A     -0.691369    30A     -0.676873
      31A     -0.654440    32A     -0.652308    33A     -0.622678
      34A     -0.614538    35A     -0.597361    36A     -0.589633
      37A     -0.568868    38A     -0.557970    39A     -0.555213
      40A     -0.545310    41A     -0.520716    42A     -0.507873
      43A     -0.502599    44A     -0.484058    45A     -0.474640
      46A     -0.466873    47A     -0.451296    48A     -0.431906

  @DF-RHF Final Energy:  -683.59339265852600

   => Energetics <=

    Nuclear Repulsion Energy =            823.6838914403050467
    One-Electron Energy =               -2575.7583111552039554
    Two-Electron Energy =                1068.4810270563727954
    Total Energy =                       -683.5933926585259997
  Basis Set: (AUG-CC-PVTZ AUX)
    Blend: AUG-CC-PVTZ-RI
    Molecular point group: c1

    Geometry (in Angstrom), charge = 0, multiplicity = 1:

       Center              X                  Y                   Z               Mass
    ------------   -----------------  -----------------  -----------------  -----------------
         O           -0.717590535174    -1.111747046415    -0.251072849845    15.994914619570
         O           -0.761735535174     2.553090953585     0.204726150155    15.994914619570
         O            1.977509464826     1.986490953585    -0.339074849845    15.994914619570
         O            2.902818464826    -0.666854046415     0.173165150155    15.994914619570
         O            0.906927464826    -2.718693046415    -0.063644849845    15.994914619570
         O           -3.422690535174    -0.880199046415     0.193507150155    15.994914619570
         C           -0.329352535174     1.259621953585    -0.234683849845    12.000000000000
         C            1.108622464826     1.010908953585     0.204860150155    12.000000000000
         C           -1.272338835174     0.219491753585     0.268785550155    12.000000000000
         C            1.573424464826    -0.374042046415    -0.219044849845    12.000000000000
         C            0.575443464826    -1.420324046415     0.289833150155    12.000000000000
         C           -2.655007535174     0.209231953585    -0.292885849845    12.000000000000
         H           -0.350956535174     1.309716953585    -1.329004849845     1.007825032230
         H            1.130145464826     1.051432953585     1.315238150155     1.007825032230
         H           -1.270237535174     0.110388953585     1.340110150155     1.007825032230
         H            1.573470464826    -0.418606046415    -1.315956849845     1.007825032230
         H            0.517701464826    -1.407685046415     1.389886150155     1.007825032230
         H           -2.617666535174     0.224916953585    -1.392431849845     1.007825032230
         H           -3.137012535174     1.127600953585     0.049046150155     1.007825032230
         H           -0.835261535174     2.518688953585     1.177313150155     1.007825032230
         H            1.498130464826     2.832839953585    -0.247379849845     1.007825032230
         H            2.994338464826    -0.445649046415     1.117031150155     1.007825032230
         H            1.245497464826    -2.704620046415    -0.976768849845     1.007825032230
         H           -2.900126535174    -1.675118046415    -0.020228849845     1.007825032230

  Basis Set: AUG-CC-PVTZ
    Blend: AUG-CC-PVTZ
  Basis Set: (AUG-CC-PVTZ AUX)
    Blend: AUG-CC-PVTZ-JKFIT
	 Reference Energy          =    -683.5933926585259997 [Eh]
	 Singles Energy            =      -0.0000000000000000 [Eh]
	 Same-Spin Energy          =      -0.6661845855702916 [Eh]
	 Opposite-Spin Energy      =      -2.0471413973028389 [Eh]
	 Correlation Energy        =      -2.7133259828731306 [Eh]
	 Total Energy              =    -686.3067186413991294 [Eh]

	 ================> DF-SCS-MP2 Energies <==================
	-----------------------------------------------------------
	 SCS Same-Spin Scale       =       0.3333333333333333 [-]
	 SCS Opposite-Spin Scale   =       1.2000000000000000 [-]
	 SCS Same-Spin Energy      =      -0.2220615285234305 [Eh]
	 SCS Opposite-Spin Energy  =      -2.4565696767634067 [Eh]
	 SCS Correlation Energy    =      -2.6786312052868371 [Eh]
	 SCS Total Energy          =    -686.2720238638128194 [Eh]
	-----------------------------------------------------------

  Dipole Moment: [D]
     X:     0.0704      Y:     1.8422      Z:     1.4365     Total:     2.3371

*** Psi4 exiting successfully. Buy a developer a beer!
