                               Psi4 1.3.2 release

  ==> Input File <==

--------------------------------------------------------------------------
#psi4
#
memory 32 gb

molecule  {
0 1
  O       -0.7087550    -1.1193400    -0.2546710
  O       -0.7529000     2.5454980     0.2011280
  O        1.9863450     1.9788980    -0.3426730
  O        2.9116540    -0.6744470     0.1695670
  O        0.9157630    -2.7262860    -0.0672430
  O       -3.4528749    -0.8703304     0.1649131
  C       -0.3205170     1.2520290    -0.2382820
  C        1.1174580     1.0033160     0.2012620
  C       -1.2273170     0.1250620     0.2312770
  C        1.5822600    -0.3816350    -0.2226430
  C        0.5842790    -1.4279170     0.2862350
  C       -2.6461720     0.2016390    -0.2964840
  H       -0.3421210     1.3021240    -1.3326030
  H        1.1389810     1.0438400     1.3116400
  H       -1.2614020     0.1027960     1.3365120
  H        1.5823060    -0.4261990    -1.3195550
  H        0.5265370    -1.4152780     1.3862880
  H       -2.6088310     0.2173240    -1.3960300
  H       -3.1281770     1.1200080     0.0454480
  H       -0.8264260     2.5110960     1.1737150
  H        1.5069660     2.8252470    -0.2509780
  H        3.0031740    -0.4532420     1.1134330
  H        1.2543330    -2.7122130    -0.9803670
  H       -2.8912910    -1.6827110    -0.0238270
units angstrom
no_reorient  #important for SAPT in psi4, default
symmetry c1  #important for SAPT in psi4, default
}

set PROPERTIES_ORIGIN ["COM"]
properties('MP2/aug-cc-pvtz', properties = ['dipole'])
--------------------------------------------------------------------------

    Molecular point group: c1
  Charge       = 0
  Multiplicity = 1
  Basis Set: AUG-CC-PVTZ
    Blend: AUG-CC-PVTZ
  Basis Set: (AUG-CC-PVTZ AUX)
    Blend: AUG-CC-PVTZ-JKFIT

    Orbital Energies [Eh]
    ---------------------

    Doubly Occupied:

       1A    -20.598626     2A    -20.589503     3A    -20.584284
       4A    -20.579689     5A    -20.577947     6A    -20.565982
       7A    -11.357523     8A    -11.311357     9A    -11.310307
      10A    -11.309252    11A    -11.305610    12A    -11.286380
      13A     -1.440758    14A     -1.405474    15A     -1.387927
      16A     -1.371337    17A     -1.365869    18A     -1.350518
      19A     -1.081437    20A     -1.051253    21A     -0.944925
      22A     -0.891768    23A     -0.853675    24A     -0.842504
      25A     -0.754223    26A     -0.729865    27A     -0.721193
      28A     -0.709735    29A     -0.691751    30A     -0.675435
      31A     -0.658686    32A     -0.654211    33A     -0.620414
      34A     -0.616069    35A     -0.595910    36A     -0.587288
      37A     -0.570334    38A     -0.562690    39A     -0.556709
      40A     -0.543761    41A     -0.527716    42A     -0.517423
      43A     -0.503628    44A     -0.486715    45A     -0.474852
      46A     -0.460925    47A     -0.447098    48A     -0.431985

  @DF-RHF Final Energy:  -683.60074689753856

   => Energetics <=

    Nuclear Repulsion Energy =            823.9194254479893971
    One-Electron Energy =               -2576.1153023232445776
    Two-Electron Energy =                1068.5951299777166241
    Total Energy =                       -683.6007468975385564
  Basis Set: (AUG-CC-PVTZ AUX)
    Blend: AUG-CC-PVTZ-RI
    Molecular point group: c1

    Geometry (in Angstrom), charge = 0, multiplicity = 1:

       Center              X                  Y                   Z               Mass
    ------------   -----------------  -----------------  -----------------  -----------------
         O           -0.716535993376    -1.107511067036    -0.246592582674    15.994914619570
         O           -0.760680993376     2.557326932964     0.209206417326    15.994914619570
         O            1.978564006624     1.990726932964    -0.334594582674    15.994914619570
         O            2.903873006624    -0.662618067036     0.177645417326    15.994914619570
         O            0.907982006624    -2.714457067036    -0.059164582674    15.994914619570
         O           -3.460655893376    -0.858501467036     0.172991517326    15.994914619570
         C           -0.328297993376     1.263857932964    -0.230203582674    12.000000000000
         C            1.109677006624     1.015144932964     0.209340417326    12.000000000000
         C           -1.235097993376     0.136890932964     0.239355417326    12.000000000000
         C            1.574479006624    -0.369806067036    -0.214564582674    12.000000000000
         C            0.576498006624    -1.416088067036     0.294313417326    12.000000000000
         C           -2.653952993376     0.213467932964    -0.288405582674    12.000000000000
         H           -0.349901993376     1.313952932964    -1.324524582674     1.007825032230
         H            1.131200006624     1.055668932964     1.319718417326     1.007825032230
         H           -1.269182993376     0.114624932964     1.344590417326     1.007825032230
         H            1.574525006624    -0.414370067036    -1.311476582674     1.007825032230
         H            0.518756006624    -1.403449067036     1.394366417326     1.007825032230
         H           -2.616611993376     0.229152932964    -1.387951582674     1.007825032230
         H           -3.135957993376     1.131836932964     0.053526417326     1.007825032230
         H           -0.834206993376     2.522924932964     1.181793417326     1.007825032230
         H            1.499185006624     2.837075932964    -0.242899582674     1.007825032230
         H            2.995393006624    -0.441413067036     1.121511417326     1.007825032230
         H            1.246552006624    -2.700384067036    -0.972288582674     1.007825032230
         H           -2.899071993376    -1.670882067036    -0.015748582674     1.007825032230

  Basis Set: AUG-CC-PVTZ
    Blend: AUG-CC-PVTZ
  Basis Set: (AUG-CC-PVTZ AUX)
    Blend: AUG-CC-PVTZ-JKFIT
	 Reference Energy          =    -683.6007468975385564 [Eh]
	 Singles Energy            =      -0.0000000000000000 [Eh]
	 Same-Spin Energy          =      -0.6658760638893769 [Eh]
	 Opposite-Spin Energy      =      -2.0459653080137081 [Eh]
	 Correlation Energy        =      -2.7118413719030849 [Eh]
	 Total Energy              =    -686.3125882694416759 [Eh]

	 ================> DF-SCS-MP2 Energies <==================
	-----------------------------------------------------------
	 SCS Same-Spin Scale       =       0.3333333333333333 [-]
	 SCS Opposite-Spin Scale   =       1.2000000000000000 [-]
	 SCS Same-Spin Energy      =      -0.2219586879631256 [Eh]
	 SCS Opposite-Spin Energy  =      -2.4551583696164498 [Eh]
	 SCS Correlation Energy    =      -2.6771170575795753 [Eh]
	 SCS Total Energy          =    -686.2778639551181641 [Eh]
	-----------------------------------------------------------

  Dipole Moment: [D]
     X:     0.3180      Y:     1.5776      Z:     1.4363     Total:     2.1570

*** Psi4 exiting successfully. Buy a developer a beer!
