                               Psi4 1.4a3.dev225

  ==> Input File <==

--------------------------------------------------------------------------
#psi4
#
memory 32 gb

molecule  {
0 1
  O       -0.7087730    -1.1193010    -0.2547420
  O       -0.7528450     2.5455330     0.2012150
  O        1.9863940     1.9788490    -0.3427120
  O        2.9116460    -0.6744970     0.1694850
  O        0.9156910    -2.7263170    -0.0671110
  O       -3.4138470    -0.8877920     0.1898460
  C       -0.3205030     1.2520640    -0.2382550
  C        1.1297623     1.0170815     0.1935474
  C       -1.2273260     0.1250970     0.2312670
  C        1.5822430    -0.3816820    -0.2226620
  C        0.5842200    -1.4279110     0.2862640
  C       -2.6461850     0.2016990    -0.2964600
  H       -0.3421180     1.3022200    -1.3325700
  H        1.1390340     1.0438120     1.3116130
  H       -1.2614040     0.1027740     1.3364960
  H        1.5822050    -0.4262820    -1.3195710
  H        0.5263940    -1.4152120     1.3863080
  H       -2.6088500     0.2174640    -1.3960030
  H       -3.1281860     1.1200450     0.0455410
  H       -0.8261980     2.5111300     1.1738140
  H        1.5071200     2.8252430    -0.2509020
  H        3.0032160    -0.4533580     1.1133610
  H        1.2544120    -2.7122960    -0.9801810
  H       -2.8913510    -1.6827050    -0.0240770
units angstrom
no_reorient  #important for SAPT in psi4, default
symmetry c1  #important for SAPT in psi4, default
}

set PROPERTIES_ORIGIN ["COM"]
properties('MP2/aug-cc-pvtz', properties = ['dipole'])
--------------------------------------------------------------------------

    Molecular point group: c1
  Charge       = 0
  Multiplicity = 1
  Basis Set: AUG-CC-PVTZ
    Blend: AUG-CC-PVTZ
  Basis Set: (AUG-CC-PVTZ AUX)
    Blend: AUG-CC-PVTZ-JKFIT

    Orbital Energies [Eh]
    ---------------------

    Doubly Occupied:

       1A    -20.597855     2A    -20.588137     3A    -20.583724
       4A    -20.579689     5A    -20.578642     6A    -20.562602
       7A    -11.356791     8A    -11.310367     9A    -11.309687
      10A    -11.307883    11A    -11.304660    12A    -11.287195
      13A     -1.439922    14A     -1.407768    15A     -1.388769
      16A     -1.373762    17A     -1.368449    18A     -1.352906
      19A     -1.078367    20A     -1.050063    21A     -0.945152
      22A     -0.891179    23A     -0.854156    24A     -0.841592
      25A     -0.754824    26A     -0.730299    27A     -0.721456
      28A     -0.709234    29A     -0.692851    30A     -0.675329
      31A     -0.661649    32A     -0.656367    33A     -0.620309
      34A     -0.615394    35A     -0.598085    36A     -0.587409
      37A     -0.572750    38A     -0.562316    39A     -0.555926
      40A     -0.544520    41A     -0.527132    42A     -0.516661
      43A     -0.501399    44A     -0.486847    45A     -0.472178
      46A     -0.461056    47A     -0.445215    48A     -0.431038

  @DF-RHF Final Energy:  -683.60388026018200

   => Energetics <=

    Nuclear Repulsion Energy =            824.5621529888542227
    One-Electron Energy =               -2577.4129415515803885
    Two-Electron Energy =                1069.2469083025441705
    Total Energy =                       -683.6038802601819953
  Basis Set: (AUG-CC-PVTZ AUX)
    Blend: AUG-CC-PVTZ-RI
    Molecular point group: c1

    Geometry (in Angstrom), charge = 0, multiplicity = 1:

       Center              X                  Y                   Z               Mass
    ------------   -----------------  -----------------  -----------------  -----------------
         O           -0.720837008744    -1.106839538786    -0.248370884030    15.994914619570
         O           -0.764909008744     2.557994461214     0.207586115970    15.994914619570
         O            1.974329991256     1.991310461214    -0.336340884030    15.994914619570
         O            2.899581991256    -0.662035538786     0.175856115970    15.994914619570
         O            0.903626991256    -2.713855538786    -0.060739884030    15.994914619570
         O           -3.425911008744    -0.875330538786     0.196217115970    15.994914619570
         C           -0.332567008744     1.264525461214    -0.231883884030    12.000000000000
         C            1.117698291256     1.029542961214     0.199918515970    12.000000000000
         C           -1.239390008744     0.137558461214     0.237638115970    12.000000000000
         C            1.570178991256    -0.369220538786    -0.216290884030    12.000000000000
         C            0.572155991256    -1.415449538786     0.292635115970    12.000000000000
         C           -2.658249008744     0.214160461214    -0.290088884030    12.000000000000
         H           -0.354182008744     1.314681461214    -1.326198884030     1.007825032230
         H            1.126969991256     1.056273461214     1.317984115970     1.007825032230
         H           -1.273468008744     0.115235461214     1.342867115970     1.007825032230
         H            1.570140991256    -0.413820538786    -1.313199884030     1.007825032230
         H            0.514329991256    -1.402750538786     1.392679115970     1.007825032230
         H           -2.620914008744     0.229925461214    -1.389631884030     1.007825032230
         H           -3.140250008744     1.132506461214     0.051912115970     1.007825032230
         H           -0.838262008744     2.523591461214     1.180185115970     1.007825032230
         H            1.495055991256     2.837704461214    -0.244530884030     1.007825032230
         H            2.991151991256    -0.440896538786     1.119732115970     1.007825032230
         H            1.242347991256    -2.699834538786    -0.973809884030     1.007825032230
         H           -2.903415008744    -1.670243538786    -0.017705884030     1.007825032230

  Basis Set: AUG-CC-PVTZ
    Blend: AUG-CC-PVTZ
  Basis Set: (AUG-CC-PVTZ AUX)
    Blend: AUG-CC-PVTZ-JKFIT
	 Reference Energy          =    -683.6038802601819953 [Eh]
	 Singles Energy            =      -0.0000000000000000 [Eh]
	 Same-Spin Energy          =      -0.6653758715618461 [Eh]
	 Opposite-Spin Energy      =      -2.0445203332060076 [Eh]
	 Correlation Energy        =      -2.7098962047678539 [Eh]
	 Total Energy              =    -686.3137764649497967 [Eh]

	 ================> DF-SCS-MP2 Energies <==================
	-----------------------------------------------------------
	 SCS Same-Spin Scale       =       0.3333333333333333 [-]
	 SCS Opposite-Spin Scale   =       1.2000000000000000 [-]
	 SCS Same-Spin Energy      =      -0.2217919571872820 [Eh]
	 SCS Opposite-Spin Energy  =      -2.4534243998472092 [Eh]
	 SCS Correlation Energy    =      -2.6752163570344911 [Eh]
	 SCS Total Energy          =    -686.2790966172165099 [Eh]
	-----------------------------------------------------------

  Dipole Moment: [D]
     X:     0.2559      Y:     1.6511      Z:     1.3384     Total:     2.1407

*** Psi4 exiting successfully. Buy a developer a beer!
