                               Psi4 1.3.2 release

  ==> Input File <==

--------------------------------------------------------------------------
#psi4
#
memory 32 gb

molecule  {
0 1
  O       -0.7087550    -1.1193400    -0.2546710
  O       -0.7353513     2.4950580     0.3412780
  O        1.9863450     1.9788980    -0.3426730
  O        2.9116540    -0.6744470     0.1695670
  O        0.9157630    -2.7262860    -0.0672430
  O       -3.4138550    -0.8877920     0.1899090
  C       -0.3205170     1.2520290    -0.2382820
  C        1.1174580     1.0033160     0.2012620
  C       -1.2273170     0.1250620     0.2312770
  C        1.5822600    -0.3816350    -0.2226430
  C        0.5842790    -1.4279170     0.2862350
  C       -2.6461720     0.2016390    -0.2964840
  H       -0.3421210     1.3021240    -1.3326030
  H        1.1389810     1.0438400     1.3116400
  H       -1.2614020     0.1027960     1.3365120
  H        1.5823060    -0.4261990    -1.3195550
  H        0.5265370    -1.4152780     1.3862880
  H       -2.6088310     0.2173240    -1.3960300
  H       -3.1281770     1.1200080     0.0454480
  H       -0.8264260     2.5110960     1.1737150
  H        1.5069660     2.8252470    -0.2509780
  H        3.0031740    -0.4532420     1.1134330
  H        1.2543330    -2.7122130    -0.9803670
  H       -2.8912910    -1.6827110    -0.0238270
units angstrom
no_reorient  #important for SAPT in psi4, default
symmetry c1  #important for SAPT in psi4, default
}

set PROPERTIES_ORIGIN ["COM"]
properties('MP2/aug-cc-pvtz', properties = ['dipole'])
--------------------------------------------------------------------------

    Molecular point group: c1
  Charge       = 0
  Multiplicity = 1
  Basis Set: AUG-CC-PVTZ
    Blend: AUG-CC-PVTZ
  Basis Set: (AUG-CC-PVTZ AUX)
    Blend: AUG-CC-PVTZ-JKFIT

    Orbital Energies [Eh]
    ---------------------

    Doubly Occupied:

       1A    -20.587455     2A    -20.583363     3A    -20.578664
       4A    -20.577774     5A    -20.577733     6A    -20.562823
       7A    -11.356335     8A    -11.315041     9A    -11.308760
      10A    -11.307131    11A    -11.304149    12A    -11.287473
      13A     -1.441409    14A     -1.426994    15A     -1.390028
      16A     -1.375338    17A     -1.366837    18A     -1.352887
      19A     -1.086743    20A     -1.051525    21A     -0.950747
      22A     -0.897995    23A     -0.854494    24A     -0.847438
      25A     -0.757227    26A     -0.734335    27A     -0.729457
      28A     -0.717673    29A     -0.695218    30A     -0.674488
      31A     -0.660026    32A     -0.654978    33A     -0.627361
      34A     -0.615076    35A     -0.599288    36A     -0.586362
      37A     -0.569699    38A     -0.562768    39A     -0.555748
      40A     -0.546832    41A     -0.526823    42A     -0.515594
      43A     -0.500787    44A     -0.486333    45A     -0.474260
      46A     -0.461942    47A     -0.445618    48A     -0.430909

  @DF-RHF Final Energy:  -683.58707515661740

   => Energetics <=

    Nuclear Repulsion Energy =            826.1585438179657785
    One-Electron Energy =               -2580.4553613595230672
    Two-Electron Energy =                1070.7097423849397728
    Total Energy =                       -683.5870751566174022
  Basis Set: (AUG-CC-PVTZ AUX)
    Blend: AUG-CC-PVTZ-RI
    Molecular point group: c1

    Geometry (in Angstrom), charge = 0, multiplicity = 1:

       Center              X                  Y                   Z               Mass
    ------------   -----------------  -----------------  -----------------  -----------------
         O           -0.721560945626    -1.101479411707    -0.261262386447    15.994914619570
         O           -0.748157245626     2.512918588293     0.334686613553    15.994914619570
         O            1.973539054374     1.996758588293    -0.349264386447    15.994914619570
         O            2.898848054374    -0.656586411707     0.162975613553    15.994914619570
         O            0.902957054374    -2.708425411707    -0.073834386447    15.994914619570
         O           -3.426660945626    -0.869931411707     0.183317613553    15.994914619570
         C           -0.333322945626     1.269889588293    -0.244873386447    12.000000000000
         C            1.104652054374     1.021176588293     0.194670613553    12.000000000000
         C           -1.240122945626     0.142922588293     0.224685613553    12.000000000000
         C            1.569454054374    -0.363774411707    -0.229234386447    12.000000000000
         C            0.571473054374    -1.410056411707     0.279643613553    12.000000000000
         C           -2.658977945626     0.219499588293    -0.303075386447    12.000000000000
         H           -0.354926945626     1.319984588293    -1.339194386447     1.007825032230
         H            1.126175054374     1.061700588293     1.305048613553     1.007825032230
         H           -1.274207945626     0.120656588293     1.329920613553     1.007825032230
         H            1.569500054374    -0.408338411707    -1.326146386447     1.007825032230
         H            0.513731054374    -1.397417411707     1.379696613553     1.007825032230
         H           -2.621636945626     0.235184588293    -1.402621386447     1.007825032230
         H           -3.140982945626     1.137868588293     0.038856613553     1.007825032230
         H           -0.839231945626     2.528956588293     1.167123613553     1.007825032230
         H            1.494160054374     2.843107588293    -0.257569386447     1.007825032230
         H            2.990368054374    -0.435381411707     1.106841613553     1.007825032230
         H            1.241527054374    -2.694352411707    -0.986958386447     1.007825032230
         H           -2.904096945626    -1.664850411707    -0.030418386447     1.007825032230

  Basis Set: AUG-CC-PVTZ
    Blend: AUG-CC-PVTZ
  Basis Set: (AUG-CC-PVTZ AUX)
    Blend: AUG-CC-PVTZ-JKFIT
	 Reference Energy          =    -683.5870751566174022 [Eh]
	 Singles Energy            =      -0.0000000000000000 [Eh]
	 Same-Spin Energy          =      -0.6635082685959207 [Eh]
	 Opposite-Spin Energy      =      -2.0401519788712159 [Eh]
	 Correlation Energy        =      -2.7036602474671367 [Eh]
	 Total Energy              =    -686.2907354040845576 [Eh]

	 ================> DF-SCS-MP2 Energies <==================
	-----------------------------------------------------------
	 SCS Same-Spin Scale       =       0.3333333333333333 [-]
	 SCS Opposite-Spin Scale   =       1.2000000000000000 [-]
	 SCS Same-Spin Energy      =      -0.2211694228653069 [Eh]
	 SCS Opposite-Spin Energy  =      -2.4481823746454592 [Eh]
	 SCS Correlation Energy    =      -2.6693517975107661 [Eh]
	 SCS Total Energy          =    -686.2564269541281874 [Eh]
	-----------------------------------------------------------

  Dipole Moment: [D]
     X:     0.1953      Y:     1.6268      Z:     1.1859     Total:     2.0226

*** Psi4 exiting successfully. Buy a developer a beer!
