                               Psi4 1.3.2 release

  ==> Input File <==

--------------------------------------------------------------------------
#psi4
#
memory 32 gb

molecule  {
0 1
  O       -0.7423311    -1.1114369    -0.1606231
  O       -0.7529000     2.5454980     0.2011280
  O        1.9863450     1.9788980    -0.3426730
  O        2.9116540    -0.6744470     0.1695670
  O        0.9157630    -2.7262860    -0.0672430
  O       -3.4138550    -0.8877920     0.1899090
  C       -0.3205170     1.2520290    -0.2382820
  C        1.1174580     1.0033160     0.2012620
  C       -1.2273170     0.1250620     0.2312770
  C        1.5822600    -0.3816350    -0.2226430
  C        0.5842790    -1.4279170     0.2862350
  C       -2.6461720     0.2016390    -0.2964840
  H       -0.3421210     1.3021240    -1.3326030
  H        1.1389810     1.0438400     1.3116400
  H       -1.2614020     0.1027960     1.3365120
  H        1.5823060    -0.4261990    -1.3195550
  H        0.5265370    -1.4152780     1.3862880
  H       -2.6088310     0.2173240    -1.3960300
  H       -3.1281770     1.1200080     0.0454480
  H       -0.8264260     2.5110960     1.1737150
  H        1.5069660     2.8252470    -0.2509780
  H        3.0031740    -0.4532420     1.1134330
  H        1.2543330    -2.7122130    -0.9803670
  H       -2.8912910    -1.6827110    -0.0238270
units angstrom
no_reorient  #important for SAPT in psi4, default
symmetry c1  #important for SAPT in psi4, default
}

set PROPERTIES_ORIGIN ["COM"]
properties('MP2/aug-cc-pvtz', properties = ['dipole'])
--------------------------------------------------------------------------

    Molecular point group: c1
  Charge       = 0
  Multiplicity = 1
  Basis Set: AUG-CC-PVTZ
    Blend: AUG-CC-PVTZ
  Basis Set: (AUG-CC-PVTZ AUX)
    Blend: AUG-CC-PVTZ-JKFIT

    Orbital Energies [Eh]
    ---------------------

    Doubly Occupied:

       1A    -20.597808     2A    -20.587650     3A    -20.586441
       4A    -20.581141     5A    -20.577601     6A    -20.561211
       7A    -11.359297     8A    -11.310268     9A    -11.309452
      10A    -11.307719    11A    -11.303580    12A    -11.285526
      13A     -1.447330    14A     -1.404918    15A     -1.391148
      16A     -1.376401    17A     -1.366548    18A     -1.355437
      19A     -1.080580    20A     -1.053436    21A     -0.945345
      22A     -0.894863    23A     -0.856934    24A     -0.840729
      25A     -0.755738    26A     -0.732006    27A     -0.723057
      28A     -0.712609    29A     -0.694936    30A     -0.675444
      31A     -0.663598    32A     -0.656392    33A     -0.620627
      34A     -0.617652    35A     -0.596897    36A     -0.588680
      37A     -0.572882    38A     -0.564023    39A     -0.556586
      40A     -0.544388    41A     -0.527620    42A     -0.517603
      43A     -0.501586    44A     -0.486520    45A     -0.473150
      46A     -0.461251    47A     -0.443101    48A     -0.430753

  @DF-RHF Final Energy:  -683.60273827261040

   => Energetics <=

    Nuclear Repulsion Energy =            825.4044045035956287
    One-Electron Energy =               -2579.0173647974447704
    Two-Electron Energy =                1070.0102220212386328
    Total Energy =                       -683.6027382726103951
  Basis Set: (AUG-CC-PVTZ AUX)
    Blend: AUG-CC-PVTZ-RI
    Molecular point group: c1

    Geometry (in Angstrom), charge = 0, multiplicity = 1:

       Center              X                  Y                   Z               Mass
    ------------   -----------------  -----------------  -----------------  -----------------
         O           -0.750595662619    -1.098758891647    -0.163119266642    15.994914619570
         O           -0.761164562619     2.558176008353     0.198631833358    15.994914619570
         O            1.978080437381     1.991576008353    -0.345169166642    15.994914619570
         O            2.903389437381    -0.661768991647     0.167070833358    15.994914619570
         O            0.907498437381    -2.713607991647    -0.069739166642    15.994914619570
         O           -3.422119562619    -0.875113991647     0.187412833358    15.994914619570
         C           -0.328781562619     1.264707008353    -0.240778166642    12.000000000000
         C            1.109193437381     1.015994008353     0.198765833358    12.000000000000
         C           -1.235581562619     0.137740008353     0.228780833358    12.000000000000
         C            1.573995437381    -0.368956991647    -0.225139166642    12.000000000000
         C            0.576014437381    -1.415238991647     0.283738833358    12.000000000000
         C           -2.654436562619     0.214317008353    -0.298980166642    12.000000000000
         H           -0.350385562619     1.314802008353    -1.335099166642     1.007825032230
         H            1.130716437381     1.056518008353     1.309143833358     1.007825032230
         H           -1.269666562619     0.115474008353     1.334015833358     1.007825032230
         H            1.574041437381    -0.413520991647    -1.322051166642     1.007825032230
         H            0.518272437381    -1.402599991647     1.383791833358     1.007825032230
         H           -2.617095562619     0.230002008353    -1.398526166642     1.007825032230
         H           -3.136441562619     1.132686008353     0.042951833358     1.007825032230
         H           -0.834690562619     2.523774008353     1.171218833358     1.007825032230
         H            1.498701437381     2.837925008353    -0.253474166642     1.007825032230
         H            2.994909437381    -0.440563991647     1.110936833358     1.007825032230
         H            1.246068437381    -2.699534991647    -0.982863166642     1.007825032230
         H           -2.899555562619    -1.670032991647    -0.026323166642     1.007825032230

  Basis Set: AUG-CC-PVTZ
    Blend: AUG-CC-PVTZ
  Basis Set: (AUG-CC-PVTZ AUX)
    Blend: AUG-CC-PVTZ-JKFIT
	 Reference Energy          =    -683.6027382726103951 [Eh]
	 Singles Energy            =      -0.0000000000000000 [Eh]
	 Same-Spin Energy          =      -0.6652728270001482 [Eh]
	 Opposite-Spin Energy      =      -2.0436162811238123 [Eh]
	 Correlation Energy        =      -2.7088891081239606 [Eh]
	 Total Energy              =    -686.3116273807343077 [Eh]

	 ================> DF-SCS-MP2 Energies <==================
	-----------------------------------------------------------
	 SCS Same-Spin Scale       =       0.3333333333333333 [-]
	 SCS Opposite-Spin Scale   =       1.2000000000000000 [-]
	 SCS Same-Spin Energy      =      -0.2217576090000494 [Eh]
	 SCS Opposite-Spin Energy  =      -2.4523395373485748 [Eh]
	 SCS Correlation Energy    =      -2.6740971463486241 [Eh]
	 SCS Total Energy          =    -686.2768354189589672 [Eh]
	-----------------------------------------------------------

  Dipole Moment: [D]
     X:     0.3740      Y:     1.5063      Z:     1.1889     Total:     1.9551

*** Psi4 exiting successfully. Buy a developer a beer!
