                               Psi4 1.3.2 release

  ==> Input File <==

--------------------------------------------------------------------------
#psi4
#
memory 32 gb

molecule  {
0 1
  O       -0.7087550    -1.1193400    -0.2546710
  O       -0.7529000     2.5454980     0.2011280
  O        1.9863450     1.9788980    -0.3426730
  O        2.9116540    -0.6744470     0.1695670
  O        0.9157630    -2.7262860    -0.0672430
  O       -3.4138550    -0.8877920     0.1899090
  C       -0.3205170     1.2520290    -0.2382820
  C        1.1174580     1.0033160     0.2012620
  C       -1.3480936     0.0988914     0.1462613
  C        1.5822600    -0.3816350    -0.2226430
  C        0.5842790    -1.4279170     0.2862350
  C       -2.6461720     0.2016390    -0.2964840
  H       -0.3421210     1.3021240    -1.3326030
  H        1.1389810     1.0438400     1.3116400
  H       -1.2614020     0.1027960     1.3365120
  H        1.5823060    -0.4261990    -1.3195550
  H        0.5265370    -1.4152780     1.3862880
  H       -2.6088310     0.2173240    -1.3960300
  H       -3.1281770     1.1200080     0.0454480
  H       -0.8264260     2.5110960     1.1737150
  H        1.5069660     2.8252470    -0.2509780
  H        3.0031740    -0.4532420     1.1134330
  H        1.2543330    -2.7122130    -0.9803670
  H       -2.8912910    -1.6827110    -0.0238270
units angstrom
no_reorient  #important for SAPT in psi4, default
symmetry c1  #important for SAPT in psi4, default
}

set PROPERTIES_ORIGIN ["COM"]
properties('MP2/aug-cc-pvtz', properties = ['dipole'])
--------------------------------------------------------------------------

    Molecular point group: c1
  Charge       = 0
  Multiplicity = 1
  Basis Set: AUG-CC-PVTZ
    Blend: AUG-CC-PVTZ
  Basis Set: (AUG-CC-PVTZ AUX)
    Blend: AUG-CC-PVTZ-JKFIT

    Orbital Energies [Eh]
    ---------------------

    Doubly Occupied:

       1A    -20.596577     2A    -20.584915     3A    -20.584290
       4A    -20.578927     5A    -20.578914     6A    -20.564910
       7A    -11.359157     8A    -11.315823     9A    -11.313373
      10A    -11.311716    11A    -11.304889    12A    -11.283165
      13A     -1.438496    14A     -1.403881    15A     -1.388318
      16A     -1.376244    17A     -1.366366    18A     -1.353254
      19A     -1.079802    20A     -1.066975    21A     -0.959042
      22A     -0.890171    23A     -0.853846    24A     -0.831410
      25A     -0.755091    26A     -0.730702    27A     -0.721036
      28A     -0.707207    29A     -0.699407    30A     -0.680694
      31A     -0.662193    32A     -0.655171    33A     -0.620806
      34A     -0.615288    35A     -0.602931    36A     -0.586788
      37A     -0.571875    38A     -0.562286    39A     -0.556311
      40A     -0.542676    41A     -0.530825    42A     -0.508962
      43A     -0.497916    44A     -0.487039    45A     -0.469159
      46A     -0.458415    47A     -0.454945    48A     -0.423109

  @DF-RHF Final Energy:  -683.57616400951474

   => Energetics <=

    Nuclear Repulsion Energy =            824.2772350759315714
    One-Electron Energy =               -2576.7362116110630268
    Two-Electron Energy =                1068.8828125256168278
    Total Energy =                       -683.5761640095147413
  Basis Set: (AUG-CC-PVTZ AUX)
    Blend: AUG-CC-PVTZ-RI
    Molecular point group: c1

    Geometry (in Angstrom), charge = 0, multiplicity = 1:

       Center              X                  Y                   Z               Mass
    ------------   -----------------  -----------------  -----------------  -----------------
         O           -0.711953167074    -1.104215871898    -0.243147234232    15.994914619570
         O           -0.756098167074     2.560622128102     0.212651765768    15.994914619570
         O            1.983146832926     1.994022128102    -0.331149234232    15.994914619570
         O            2.908455832926    -0.659322871898     0.181090765768    15.994914619570
         O            0.912564832926    -2.711161871898    -0.055719234232    15.994914619570
         O           -3.417053167074    -0.872667871898     0.201432765768    15.994914619570
         C           -0.323715167074     1.267153128102    -0.226758234232    12.000000000000
         C            1.114259832926     1.018440128102     0.212785765768    12.000000000000
         C           -1.351291767074     0.114015528102     0.157785065768    12.000000000000
         C            1.579061832926    -0.366510871898    -0.211119234232    12.000000000000
         C            0.581080832926    -1.412792871898     0.297758765768    12.000000000000
         C           -2.649370167074     0.216763128102    -0.284960234232    12.000000000000
         H           -0.345319167074     1.317248128102    -1.321079234232     1.007825032230
         H            1.135782832926     1.058964128102     1.323163765768     1.007825032230
         H           -1.264600167074     0.117920128102     1.348035765768     1.007825032230
         H            1.579107832926    -0.411074871898    -1.308031234232     1.007825032230
         H            0.523338832926    -1.400153871898     1.397811765768     1.007825032230
         H           -2.612029167074     0.232448128102    -1.384506234232     1.007825032230
         H           -3.131375167074     1.135132128102     0.056971765768     1.007825032230
         H           -0.829624167074     2.526220128102     1.185238765768     1.007825032230
         H            1.503767832926     2.840371128102    -0.239454234232     1.007825032230
         H            2.999975832926    -0.438117871898     1.124956765768     1.007825032230
         H            1.251134832926    -2.697088871898    -0.968843234232     1.007825032230
         H           -2.894489167074    -1.667586871898    -0.012303234232     1.007825032230

  Basis Set: AUG-CC-PVTZ
    Blend: AUG-CC-PVTZ
  Basis Set: (AUG-CC-PVTZ AUX)
    Blend: AUG-CC-PVTZ-JKFIT
	 Reference Energy          =    -683.5761640095147413 [Eh]
	 Singles Energy            =      -0.0000000000000000 [Eh]
	 Same-Spin Energy          =      -0.6666778596263307 [Eh]
	 Opposite-Spin Energy      =      -2.0463545957298530 [Eh]
	 Correlation Energy        =      -2.7130324553561840 [Eh]
	 Total Energy              =    -686.2891964648708836 [Eh]

	 ================> DF-SCS-MP2 Energies <==================
	-----------------------------------------------------------
	 SCS Same-Spin Scale       =       0.3333333333333333 [-]
	 SCS Opposite-Spin Scale   =       1.2000000000000000 [-]
	 SCS Same-Spin Energy      =      -0.2222259532087769 [Eh]
	 SCS Opposite-Spin Energy  =      -2.4556255148758237 [Eh]
	 SCS Correlation Energy    =      -2.6778514680846008 [Eh]
	 SCS Total Energy          =    -686.2540154775992960 [Eh]
	-----------------------------------------------------------

  Dipole Moment: [D]
     X:     0.1224      Y:     1.6120      Z:     1.2301     Total:     2.0314

*** Psi4 exiting successfully. Buy a developer a beer!
