                               Psi4 1.3.2 release

  ==> Input File <==

--------------------------------------------------------------------------
#psi4
#
memory 32 gb

molecule  {
0 1
  O       -0.7087550    -1.1193400    -0.2546710
  O       -0.7529000     2.5454980     0.2011280
  O        1.9863450     1.9788980    -0.3426730
  O        2.9116540    -0.6744470     0.1695670
  O        0.9157630    -2.7262860    -0.0672430
  O       -3.4138550    -0.8877920     0.1899090
  C       -0.3205170     1.2520290    -0.2382820
  C        0.9946583     0.8654371     0.2781363
  C       -1.2273170     0.1250620     0.2312770
  C        1.5822600    -0.3816350    -0.2226430
  C        0.5842790    -1.4279170     0.2862350
  C       -2.6461720     0.2016390    -0.2964840
  H       -0.3421210     1.3021240    -1.3326030
  H        1.1389810     1.0438400     1.3116400
  H       -1.2614020     0.1027960     1.3365120
  H        1.5823060    -0.4261990    -1.3195550
  H        0.5265370    -1.4152780     1.3862880
  H       -2.6088310     0.2173240    -1.3960300
  H       -3.1281770     1.1200080     0.0454480
  H       -0.8264260     2.5110960     1.1737150
  H        1.5069660     2.8252470    -0.2509780
  H        3.0031740    -0.4532420     1.1134330
  H        1.2543330    -2.7122130    -0.9803670
  H       -2.8912910    -1.6827110    -0.0238270
units angstrom
no_reorient  #important for SAPT in psi4, default
symmetry c1  #important for SAPT in psi4, default
}

set PROPERTIES_ORIGIN ["COM"]
properties('MP2/aug-cc-pvtz', properties = ['dipole'])
--------------------------------------------------------------------------

    Molecular point group: c1
  Charge       = 0
  Multiplicity = 1
  Basis Set: AUG-CC-PVTZ
    Blend: AUG-CC-PVTZ
  Basis Set: (AUG-CC-PVTZ AUX)
    Blend: AUG-CC-PVTZ-JKFIT

    Orbital Energies [Eh]
    ---------------------

    Doubly Occupied:

       1A    -20.603007     2A    -20.593516     3A    -20.585428
       4A    -20.584986     5A    -20.564075     6A    -20.553750
       7A    -11.359107     8A    -11.316144     9A    -11.313749
      10A    -11.310664    11A    -11.309964    12A    -11.288605
      13A     -1.444827    14A     -1.403006    15A     -1.388205
      16A     -1.374062    17A     -1.356051    18A     -1.310123
      19A     -1.107303    20A     -1.060515    21A     -0.954774
      22A     -0.893031    23A     -0.860446    24A     -0.848978
      25A     -0.754525    26A     -0.737166    27A     -0.718772
      28A     -0.713684    29A     -0.699462    30A     -0.675008
      31A     -0.661354    32A     -0.626009    33A     -0.621388
      34A     -0.618005    35A     -0.598632    36A     -0.589294
      37A     -0.565457    38A     -0.562271    39A     -0.550427
      40A     -0.529920    41A     -0.524517    42A     -0.520395
      43A     -0.516406    44A     -0.487636    45A     -0.477804
      46A     -0.468086    47A     -0.451820    48A     -0.424710

  @DF-RHF Final Energy:  -683.56676576410109

   => Energetics <=

    Nuclear Repulsion Energy =            825.8851032185532404
    One-Electron Energy =               -2579.9496029952570098
    Two-Electron Energy =                1070.4977340126026775
    Total Energy =                       -683.5667657641010919
  Basis Set: (AUG-CC-PVTZ AUX)
    Blend: AUG-CC-PVTZ-RI
    Molecular point group: c1

    Geometry (in Angstrom), charge = 0, multiplicity = 1:

       Center              X                  Y                   Z               Mass
    ------------   -----------------  -----------------  -----------------  -----------------
         O           -0.711818341221    -1.096771273559    -0.253936101533    15.994914619570
         O           -0.755963341221     2.568066726441     0.201862898467    15.994914619570
         O            1.983281658779     2.001466726441    -0.341938101533    15.994914619570
         O            2.908590658779    -0.651878273559     0.170301898467    15.994914619570
         O            0.912699658779    -2.703717273559    -0.066508101533    15.994914619570
         O           -3.416918341221    -0.865223273559     0.190643898467    15.994914619570
         C           -0.323580341221     1.274597726441    -0.237547101533    12.000000000000
         C            0.991594958779     0.888005826441     0.278871198467    12.000000000000
         C           -1.230380341221     0.147630726441     0.232011898467    12.000000000000
         C            1.579196658779    -0.359066273559    -0.221908101533    12.000000000000
         C            0.581215658779    -1.405348273559     0.286969898467    12.000000000000
         C           -2.649235341221     0.224207726441    -0.295749101533    12.000000000000
         H           -0.345184341221     1.324692726441    -1.331868101533     1.007825032230
         H            1.135917658779     1.066408726441     1.312374898467     1.007825032230
         H           -1.264465341221     0.125364726441     1.337246898467     1.007825032230
         H            1.579242658779    -0.403630273559    -1.318820101533     1.007825032230
         H            0.523473658779    -1.392709273559     1.387022898467     1.007825032230
         H           -2.611894341221     0.239892726441    -1.395295101533     1.007825032230
         H           -3.131240341221     1.142576726441     0.046182898467     1.007825032230
         H           -0.829489341221     2.533664726441     1.174449898467     1.007825032230
         H            1.503902658779     2.847815726441    -0.250243101533     1.007825032230
         H            3.000110658779    -0.430673273559     1.114167898467     1.007825032230
         H            1.251269658779    -2.689644273559    -0.979632101533     1.007825032230
         H           -2.894354341221    -1.660142273559    -0.023092101533     1.007825032230

  Basis Set: AUG-CC-PVTZ
    Blend: AUG-CC-PVTZ
  Basis Set: (AUG-CC-PVTZ AUX)
    Blend: AUG-CC-PVTZ-JKFIT
	 Reference Energy          =    -683.5667657641010919 [Eh]
	 Singles Energy            =      -0.0000000000000000 [Eh]
	 Same-Spin Energy          =      -0.6681713574339482 [Eh]
	 Opposite-Spin Energy      =      -2.0514873240453304 [Eh]
	 Correlation Energy        =      -2.7196586814792787 [Eh]
	 Total Energy              =    -686.2864244455803373 [Eh]

	 ================> DF-SCS-MP2 Energies <==================
	-----------------------------------------------------------
	 SCS Same-Spin Scale       =       0.3333333333333333 [-]
	 SCS Opposite-Spin Scale   =       1.2000000000000000 [-]
	 SCS Same-Spin Energy      =      -0.2227237858113160 [Eh]
	 SCS Opposite-Spin Energy  =      -2.4617847888543962 [Eh]
	 SCS Correlation Energy    =      -2.6845085746657125 [Eh]
	 SCS Total Energy          =    -686.2512743387668479 [Eh]
	-----------------------------------------------------------

  Dipole Moment: [D]
     X:    -0.1137      Y:     1.1359      Z:     1.5925     Total:     1.9594

*** Psi4 exiting successfully. Buy a developer a beer!
