                               Psi4 1.3.2 release

  ==> Input File <==

--------------------------------------------------------------------------
#psi4
#
memory 32 gb

molecule  {
0 1
  O       -0.7108736    -1.2118281    -0.2930934
  O       -0.7529000     2.5454980     0.2011280
  O        1.9863450     1.9788980    -0.3426730
  O        2.9116540    -0.6744470     0.1695670
  O        0.9157630    -2.7262860    -0.0672430
  O       -3.4138550    -0.8877920     0.1899090
  C       -0.3205170     1.2520290    -0.2382820
  C        1.1174580     1.0033160     0.2012620
  C       -1.2273170     0.1250620     0.2312770
  C        1.5822600    -0.3816350    -0.2226430
  C        0.5842790    -1.4279170     0.2862350
  C       -2.6461720     0.2016390    -0.2964840
  H       -0.3421210     1.3021240    -1.3326030
  H        1.1389810     1.0438400     1.3116400
  H       -1.2614020     0.1027960     1.3365120
  H        1.5823060    -0.4261990    -1.3195550
  H        0.5265370    -1.4152780     1.3862880
  H       -2.6088310     0.2173240    -1.3960300
  H       -3.1281770     1.1200080     0.0454480
  H       -0.8264260     2.5110960     1.1737150
  H        1.5069660     2.8252470    -0.2509780
  H        3.0031740    -0.4532420     1.1134330
  H        1.2543330    -2.7122130    -0.9803670
  H       -2.8912910    -1.6827110    -0.0238270
units angstrom
no_reorient  #important for SAPT in psi4, default
symmetry c1  #important for SAPT in psi4, default
}

set PROPERTIES_ORIGIN ["COM"]
properties('MP2/aug-cc-pvtz', properties = ['dipole'])
--------------------------------------------------------------------------

    Molecular point group: c1
  Charge       = 0
  Multiplicity = 1
  Basis Set: AUG-CC-PVTZ
    Blend: AUG-CC-PVTZ
  Basis Set: (AUG-CC-PVTZ AUX)
    Blend: AUG-CC-PVTZ-JKFIT

    Orbital Energies [Eh]
    ---------------------

    Doubly Occupied:

       1A    -20.602718     2A    -20.590870     3A    -20.579881
       4A    -20.578621     5A    -20.576223     6A    -20.562933
       7A    -11.352979     8A    -11.315866     9A    -11.315205
      10A    -11.311140    11A    -11.305312    12A    -11.289796
      13A     -1.430711    14A     -1.407773    15A     -1.386869
      16A     -1.368985    17A     -1.366450    18A     -1.339167
      19A     -1.086286    20A     -1.046374    21A     -0.947572
      22A     -0.889115    23A     -0.852437    24A     -0.842985
      25A     -0.749972    26A     -0.726394    27A     -0.720507
      28A     -0.708300    29A     -0.689780    30A     -0.673829
      31A     -0.655199    32A     -0.652061    33A     -0.622631
      34A     -0.614107    35A     -0.598686    36A     -0.586826
      37A     -0.570035    38A     -0.560126    39A     -0.555998
      40A     -0.543292    41A     -0.523392    42A     -0.512503
      43A     -0.504476    44A     -0.484981    45A     -0.476836
      46A     -0.464339    47A     -0.447189    48A     -0.435321

  @DF-RHF Final Energy:  -683.59331543189512

   => Energetics <=

    Nuclear Repulsion Energy =            822.2743958942970721
    One-Electron Energy =               -2572.8893240484176204
    Two-Electron Energy =                1067.0216127222256546
    Total Energy =                       -683.5933154318950074
  Basis Set: (AUG-CC-PVTZ AUX)
    Blend: AUG-CC-PVTZ-RI
    Molecular point group: c1

    Geometry (in Angstrom), charge = 0, multiplicity = 1:

       Center              X                  Y                   Z               Mass
    ------------   -----------------  -----------------  -----------------  -----------------
         O           -0.721932512053    -1.190232406106    -0.283822315339    15.994914619570
         O           -0.763958912053     2.567093693894     0.210399084661    15.994914619570
         O            1.975286087947     2.000493693894    -0.333401915339    15.994914619570
         O            2.900595087947    -0.652851306106     0.178838084661    15.994914619570
         O            0.904704087947    -2.704690306106    -0.057971915339    15.994914619570
         O           -3.424913912053    -0.866196306106     0.199180084661    15.994914619570
         C           -0.331575912053     1.273624693894    -0.229010915339    12.000000000000
         C            1.106399087947     1.024911693894     0.210533084661    12.000000000000
         C           -1.238375912053     0.146657693894     0.240548084661    12.000000000000
         C            1.571201087947    -0.360039306106    -0.213371915339    12.000000000000
         C            0.573220087947    -1.406321306106     0.295506084661    12.000000000000
         C           -2.657230912053     0.223234693894    -0.287212915339    12.000000000000
         H           -0.353179912053     1.323719693894    -1.323331915339     1.007825032230
         H            1.127922087947     1.065435693894     1.320911084661     1.007825032230
         H           -1.272460912053     0.124391693894     1.345783084661     1.007825032230
         H            1.571247087947    -0.404603306106    -1.310283915339     1.007825032230
         H            0.515478087947    -1.393682306106     1.395559084661     1.007825032230
         H           -2.619889912053     0.238919693894    -1.386758915339     1.007825032230
         H           -3.139235912053     1.141603693894     0.054719084661     1.007825032230
         H           -0.837484912053     2.532691693894     1.182986084661     1.007825032230
         H            1.495907087947     2.846842693894    -0.241706915339     1.007825032230
         H            2.992115087947    -0.431646306106     1.122704084661     1.007825032230
         H            1.243274087947    -2.690617306106    -0.971095915339     1.007825032230
         H           -2.902349912053    -1.661115306106    -0.014555915339     1.007825032230

  Basis Set: AUG-CC-PVTZ
    Blend: AUG-CC-PVTZ
  Basis Set: (AUG-CC-PVTZ AUX)
    Blend: AUG-CC-PVTZ-JKFIT
	 Reference Energy          =    -683.5933154318951210 [Eh]
	 Singles Energy            =      -0.0000000000000000 [Eh]
	 Same-Spin Energy          =      -0.6662557053870358 [Eh]
	 Opposite-Spin Energy      =      -2.0481048717658878 [Eh]
	 Correlation Energy        =      -2.7143605771529238 [Eh]
	 Total Energy              =    -686.3076760090480093 [Eh]

	 ================> DF-SCS-MP2 Energies <==================
	-----------------------------------------------------------
	 SCS Same-Spin Scale       =       0.3333333333333333 [-]
	 SCS Opposite-Spin Scale   =       1.2000000000000000 [-]
	 SCS Same-Spin Energy      =      -0.2220852351290119 [Eh]
	 SCS Opposite-Spin Energy  =      -2.4577258461190654 [Eh]
	 SCS Correlation Energy    =      -2.6798110812480775 [Eh]
	 SCS Total Energy          =    -686.2731265131432110 [Eh]
	-----------------------------------------------------------

  Dipole Moment: [D]
     X:     0.1524      Y:     1.9280      Z:     1.4639     Total:     2.4255

*** Psi4 exiting successfully. Buy a developer a beer!
