                               Psi4 1.3.2 release

  ==> Input File <==

--------------------------------------------------------------------------
#psi4
#
memory 32 gb

molecule  {
0 1
  O       -0.7087550    -1.1193400    -0.2546710
  O       -0.7529000     2.5454980     0.2011280
  O        1.9863450     1.9788980    -0.3426730
  O        2.9116540    -0.6744470     0.1695670
  O        0.9157630    -2.7262860    -0.0672430
  O       -3.4138550    -0.8877920     0.1899090
  C       -0.3205170     1.2520290    -0.2382820
  C        1.1174580     1.0033160     0.2012620
  C       -1.2273170     0.1250620     0.2312770
  C        1.5822600    -0.3816350    -0.2226430
  C        0.5773679    -1.4358374     0.3080188
  C       -2.6461720     0.2016390    -0.2964840
  H       -0.3421210     1.3021240    -1.3326030
  H        1.1389810     1.0438400     1.3116400
  H       -1.2614020     0.1027960     1.3365120
  H        1.5823060    -0.4261990    -1.3195550
  H        0.5265370    -1.4152780     1.3862880
  H       -2.6088310     0.2173240    -1.3960300
  H       -3.1281770     1.1200080     0.0454480
  H       -0.8264260     2.5110960     1.1737150
  H        1.5069660     2.8252470    -0.2509780
  H        3.0031740    -0.4532420     1.1134330
  H        1.2543330    -2.7122130    -0.9803670
  H       -2.8912910    -1.6827110    -0.0238270
units angstrom
no_reorient  #important for SAPT in psi4, default
symmetry c1  #important for SAPT in psi4, default
}

set PROPERTIES_ORIGIN ["COM"]
properties('MP2/aug-cc-pvtz', properties = ['dipole'])
--------------------------------------------------------------------------

    Molecular point group: c1
  Charge       = 0
  Multiplicity = 1
  Basis Set: AUG-CC-PVTZ
    Blend: AUG-CC-PVTZ
  Basis Set: (AUG-CC-PVTZ AUX)
    Blend: AUG-CC-PVTZ-JKFIT

    Orbital Energies [Eh]
    ---------------------

    Doubly Occupied:

       1A    -20.598060     2A    -20.588144     3A    -20.583011
       4A    -20.578607     5A    -20.577101     6A    -20.562582
       7A    -11.356451     8A    -11.310135     9A    -11.309099
      10A    -11.307732    11A    -11.305135    12A    -11.287116
      13A     -1.438898    14A     -1.404717    15A     -1.387126
      16A     -1.372195    17A     -1.365428    18A     -1.352438
      19A     -1.079905    20A     -1.049235    21A     -0.944892
      22A     -0.893168    23A     -0.853505    24A     -0.842710
      25A     -0.753797    26A     -0.728614    27A     -0.720391
      28A     -0.710378    29A     -0.693255    30A     -0.673971
      31A     -0.660327    32A     -0.655815    33A     -0.619754
      34A     -0.615513    35A     -0.597558    36A     -0.587960
      37A     -0.569090    38A     -0.561971    39A     -0.555684
      40A     -0.543281    41A     -0.528190    42A     -0.516982
      43A     -0.503836    44A     -0.486627    45A     -0.474211
      46A     -0.461611    47A     -0.445682    48A     -0.429077

  @DF-RHF Final Energy:  -683.60341917176549

   => Energetics <=

    Nuclear Repulsion Energy =            824.3903240864760846
    One-Electron Energy =               -2577.1055593758392206
    Two-Electron Energy =                1069.1118161175977548
    Total Energy =                       -683.6034191717653812
  Basis Set: (AUG-CC-PVTZ AUX)
    Blend: AUG-CC-PVTZ-RI
    Molecular point group: c1

    Geometry (in Angstrom), charge = 0, multiplicity = 1:

       Center              X                  Y                   Z               Mass
    ------------   -----------------  -----------------  -----------------  -----------------
         O           -0.719541528120    -1.105432123587    -0.250264694441    15.994914619570
         O           -0.763686528120     2.559405876413     0.205534305559    15.994914619570
         O            1.975558471880     1.992805876413    -0.338266694441    15.994914619570
         O            2.900867471880    -0.660539123587     0.173973305559    15.994914619570
         O            0.904976471880    -2.712378123587    -0.062836694441    15.994914619570
         O           -3.424641528120    -0.873884123587     0.194315305559    15.994914619570
         C           -0.331303528120     1.265936876413    -0.233875694441    12.000000000000
         C            1.106671471880     1.017223876413     0.205668305559    12.000000000000
         C           -1.238103528120     0.138969876413     0.235683305559    12.000000000000
         C            1.571473471880    -0.367727123587    -0.218236694441    12.000000000000
         C            0.566581371880    -1.421929523587     0.312425105559    12.000000000000
         C           -2.656958528120     0.215546876413    -0.292077694441    12.000000000000
         H           -0.352907528120     1.316031876413    -1.328196694441     1.007825032230
         H            1.128194471880     1.057747876413     1.316046305559     1.007825032230
         H           -1.272188528120     0.116703876413     1.340918305559     1.007825032230
         H            1.571519471880    -0.412291123587    -1.315148694441     1.007825032230
         H            0.515750471880    -1.401370123587     1.390694305559     1.007825032230
         H           -2.619617528120     0.231231876413    -1.391623694441     1.007825032230
         H           -3.138963528120     1.133915876413     0.049854305559     1.007825032230
         H           -0.837212528120     2.525003876413     1.178121305559     1.007825032230
         H            1.496179471880     2.839154876413    -0.246571694441     1.007825032230
         H            2.992387471880    -0.439334123587     1.117839305559     1.007825032230
         H            1.243546471880    -2.698305123587    -0.975960694441     1.007825032230
         H           -2.902077528120    -1.668803123587    -0.019420694441     1.007825032230

  Basis Set: AUG-CC-PVTZ
    Blend: AUG-CC-PVTZ
  Basis Set: (AUG-CC-PVTZ AUX)
    Blend: AUG-CC-PVTZ-JKFIT
	 Reference Energy          =    -683.6034191717654949 [Eh]
	 Singles Energy            =      -0.0000000000000000 [Eh]
	 Same-Spin Energy          =      -0.6653190644796894 [Eh]
	 Opposite-Spin Energy      =      -2.0447712127415287 [Eh]
	 Correlation Energy        =      -2.7100902772212181 [Eh]
	 Total Energy              =    -686.3135094489866788 [Eh]

	 ================> DF-SCS-MP2 Energies <==================
	-----------------------------------------------------------
	 SCS Same-Spin Scale       =       0.3333333333333333 [-]
	 SCS Opposite-Spin Scale   =       1.2000000000000000 [-]
	 SCS Same-Spin Energy      =      -0.2217730214932298 [Eh]
	 SCS Opposite-Spin Energy  =      -2.4537254552898342 [Eh]
	 SCS Correlation Energy    =      -2.6754984767830639 [Eh]
	 SCS Total Energy          =    -686.2789176485485996 [Eh]
	-----------------------------------------------------------

  Dipole Moment: [D]
     X:     0.2135      Y:     1.5737      Z:     1.4148     Total:     2.1269

*** Psi4 exiting successfully. Buy a developer a beer!
