                               Psi4 1.4a3.dev225

  ==> Input File <==

--------------------------------------------------------------------------
#psi4
#
memory 32 gb

molecule  {
0 1
  O       -0.7087730    -1.1193010    -0.2547420
  O       -0.7528450     2.5455330     0.2012150
  O        1.9863940     1.9788490    -0.3427120
  O        2.9116460    -0.6744970     0.1694850
  O        0.9156910    -2.7263170    -0.0671110
  O       -3.4138470    -0.8877920     0.1898460
  C       -0.3205030     1.2520640    -0.2382550
  C        1.1174820     1.0032940     0.2012350
  C       -1.2273260     0.1250970     0.2312670
  C        1.5822430    -0.3816820    -0.2226620
  C        0.5890036    -1.4466489     0.2811643
  C       -2.6461850     0.2016990    -0.2964600
  H       -0.3421180     1.3022200    -1.3325700
  H        1.1390340     1.0438120     1.3116130
  H       -1.2614040     0.1027740     1.3364960
  H        1.5822050    -0.4262820    -1.3195710
  H        0.5263940    -1.4152120     1.3863080
  H       -2.6088500     0.2174640    -1.3960030
  H       -3.1281860     1.1200450     0.0455410
  H       -0.8261980     2.5111300     1.1738140
  H        1.5071200     2.8252430    -0.2509020
  H        3.0032160    -0.4533580     1.1133610
  H        1.2544120    -2.7122960    -0.9801810
  H       -2.8913510    -1.6827050    -0.0240770
units angstrom
no_reorient  #important for SAPT in psi4, default
symmetry c1  #important for SAPT in psi4, default
}

set PROPERTIES_ORIGIN ["COM"]
properties('MP2/aug-cc-pvtz', properties = ['dipole'])
--------------------------------------------------------------------------

    Molecular point group: c1
  Charge       = 0
  Multiplicity = 1
  Basis Set: AUG-CC-PVTZ
    Blend: AUG-CC-PVTZ
  Basis Set: (AUG-CC-PVTZ AUX)
    Blend: AUG-CC-PVTZ-JKFIT

    Orbital Energies [Eh]
    ---------------------

    Doubly Occupied:

       1A    -20.597720     2A    -20.587163     3A    -20.586240
       4A    -20.578803     5A    -20.577222     6A    -20.562113
       7A    -11.357297     8A    -11.309934     9A    -11.309287
      10A    -11.307208    11A    -11.304806    12A    -11.286686
      13A     -1.442414    14A     -1.405261    15A     -1.387309
      16A     -1.374909    17A     -1.365838    18A     -1.353610
      19A     -1.079582    20A     -1.049280    21A     -0.945006
      22A     -0.891441    23A     -0.854140    24A     -0.841423
      25A     -0.755575    26A     -0.728606    27A     -0.720404
      28A     -0.710970    29A     -0.693349    30A     -0.675119
      31A     -0.661271    32A     -0.655708    33A     -0.619495
      34A     -0.615207    35A     -0.598447    36A     -0.588204
      37A     -0.570930    38A     -0.561040    39A     -0.555702
      40A     -0.543162    41A     -0.526897    42A     -0.518422
      43A     -0.501462    44A     -0.485986    45A     -0.473713
      46A     -0.461388    47A     -0.445711    48A     -0.429159

  @DF-RHF Final Energy:  -683.60377046880103

   => Energetics <=

    Nuclear Repulsion Energy =            824.5253312935803933
    One-Electron Energy =               -2577.3569622762151994
    Two-Electron Energy =                1069.2278605138337753
    Total Energy =                       -683.6037704688010308
  Basis Set: (AUG-CC-PVTZ AUX)
    Blend: AUG-CC-PVTZ-RI
    Molecular point group: c1

    Geometry (in Angstrom), charge = 0, multiplicity = 1:

       Center              X                  Y                   Z               Mass
    ------------   -----------------  -----------------  -----------------  -----------------
         O           -0.720337404683    -1.104671942118    -0.248543349962    15.994914619570
         O           -0.764409404683     2.560162057882     0.207413650038    15.994914619570
         O            1.974829595317     1.993478057882    -0.336513349962    15.994914619570
         O            2.900081595317    -0.659867942118     0.175683650038    15.994914619570
         O            0.904126595317    -2.711687942118    -0.060912349962    15.994914619570
         O           -3.425411404683    -0.873162942118     0.196044650038    15.994914619570
         C           -0.332067404683     1.266693057882    -0.232056349962    12.000000000000
         C            1.105917595317     1.017923057882     0.207433650038    12.000000000000
         C           -1.238890404683     0.139726057882     0.237465650038    12.000000000000
         C            1.570678595317    -0.367052942118    -0.216463349962    12.000000000000
         C            0.577439195317    -1.432019842118     0.287362950038    12.000000000000
         C           -2.657749404683     0.216328057882    -0.290261349962    12.000000000000
         H           -0.353682404683     1.316849057882    -1.326371349962     1.007825032230
         H            1.127469595317     1.058441057882     1.317811650038     1.007825032230
         H           -1.272968404683     0.117403057882     1.342694650038     1.007825032230
         H            1.570640595317    -0.411652942118    -1.313372349962     1.007825032230
         H            0.514829595317    -1.400582942118     1.392506650038     1.007825032230
         H           -2.620414404683     0.232093057882    -1.389804349962     1.007825032230
         H           -3.139750404683     1.134674057882     0.051739650038     1.007825032230
         H           -0.837762404683     2.525759057882     1.180012650038     1.007825032230
         H            1.495555595317     2.839872057882    -0.244703349962     1.007825032230
         H            2.991651595317    -0.438728942118     1.119559650038     1.007825032230
         H            1.242847595317    -2.697666942118    -0.973982349962     1.007825032230
         H           -2.902915404683    -1.668075942118    -0.017878349962     1.007825032230

  Basis Set: AUG-CC-PVTZ
    Blend: AUG-CC-PVTZ
  Basis Set: (AUG-CC-PVTZ AUX)
    Blend: AUG-CC-PVTZ-JKFIT
	 Reference Energy          =    -683.6037704688010308 [Eh]
	 Singles Energy            =      -0.0000000000000000 [Eh]
	 Same-Spin Energy          =      -0.6654286336362263 [Eh]
	 Opposite-Spin Energy      =      -2.0446091333140202 [Eh]
	 Correlation Energy        =      -2.7100377669502462 [Eh]
	 Total Energy              =    -686.3138082357512531 [Eh]

	 ================> DF-SCS-MP2 Energies <==================
	-----------------------------------------------------------
	 SCS Same-Spin Scale       =       0.3333333333333333 [-]
	 SCS Opposite-Spin Scale   =       1.2000000000000000 [-]
	 SCS Same-Spin Energy      =      -0.2218095445454087 [Eh]
	 SCS Opposite-Spin Energy  =      -2.4535309599768240 [Eh]
	 SCS Correlation Energy    =      -2.6753405045222327 [Eh]
	 SCS Total Energy          =    -686.2791109733232133 [Eh]
	-----------------------------------------------------------

  Dipole Moment: [D]
     X:     0.2698      Y:     1.4925      Z:     1.3493     Total:     2.0300

*** Psi4 exiting successfully. Buy a developer a beer!
