                               Psi4 1.3.2 release

  ==> Input File <==

--------------------------------------------------------------------------
#psi4
#
memory 32 gb

molecule  {
0 1
  O       -0.7087550    -1.1193400    -0.2546710
  O       -0.7529000     2.5454980     0.2011280
  O        1.9863450     1.9788980    -0.3426730
  O        2.9116540    -0.6744470     0.1695670
  O        0.9157630    -2.7262860    -0.0672430
  O       -3.3939913    -0.8960263     0.2021866
  C       -0.3205170     1.2520290    -0.2382820
  C        1.1174580     1.0033160     0.2012620
  C       -1.2273170     0.1250620     0.2312770
  C        1.5822600    -0.3816350    -0.2226430
  C        0.5842790    -1.4279170     0.2862350
  C       -2.6461720     0.2016390    -0.2964840
  H       -0.3421210     1.3021240    -1.3326030
  H        1.1389810     1.0438400     1.3116400
  H       -1.2614020     0.1027960     1.3365120
  H        1.5823060    -0.4261990    -1.3195550
  H        0.5265370    -1.4152780     1.3862880
  H       -2.6088310     0.2173240    -1.3960300
  H       -3.1281770     1.1200080     0.0454480
  H       -0.8264260     2.5110960     1.1737150
  H        1.5069660     2.8252470    -0.2509780
  H        3.0031740    -0.4532420     1.1134330
  H        1.2543330    -2.7122130    -0.9803670
  H       -2.8912910    -1.6827110    -0.0238270
units angstrom
no_reorient  #important for SAPT in psi4, default
symmetry c1  #important for SAPT in psi4, default
}

set PROPERTIES_ORIGIN ["COM"]
properties('MP2/aug-cc-pvtz', properties = ['dipole'])
--------------------------------------------------------------------------

    Molecular point group: c1
  Charge       = 0
  Multiplicity = 1
  Basis Set: AUG-CC-PVTZ
    Blend: AUG-CC-PVTZ
  Basis Set: (AUG-CC-PVTZ AUX)
    Blend: AUG-CC-PVTZ-JKFIT

    Orbital Energies [Eh]
    ---------------------

    Doubly Occupied:

       1A    -20.598165     2A    -20.588079     3A    -20.583559
       4A    -20.579040     5A    -20.577228     6A    -20.561078
       7A    -11.356617     8A    -11.310110     9A    -11.309340
      10A    -11.307393    11A    -11.304847    12A    -11.287777
      13A     -1.439935    14A     -1.404868    15A     -1.387745
      16A     -1.373743    17A     -1.365867    18A     -1.354052
      19A     -1.080632    20A     -1.050974    21A     -0.946590
      22A     -0.890971    23A     -0.854835    24A     -0.842244
      25A     -0.753944    26A     -0.729617    27A     -0.721051
      28A     -0.710204    29A     -0.694091    30A     -0.674496
      31A     -0.661089    32A     -0.655020    33A     -0.619989
      34A     -0.615312    35A     -0.599105    36A     -0.587299
      37A     -0.570178    38A     -0.561668    39A     -0.555816
      40A     -0.543332    41A     -0.527017    42A     -0.516636
      43A     -0.502377    44A     -0.487514    45A     -0.474054
      46A     -0.462845    47A     -0.446059    48A     -0.430623

  @DF-RHF Final Energy:  -683.60456879518233

   => Energetics <=

    Nuclear Repulsion Energy =            825.0556514449118595
    One-Electron Energy =               -2578.4103983981967758
    Two-Electron Energy =                1069.7501781581026989
    Total Energy =                       -683.6045687951823311
  Basis Set: (AUG-CC-PVTZ AUX)
    Blend: AUG-CC-PVTZ-RI
    Molecular point group: c1

    Geometry (in Angstrom), charge = 0, multiplicity = 1:

       Center              X                  Y                   Z               Mass
    ------------   -----------------  -----------------  -----------------  -----------------
         O           -0.721766585583    -1.105228516814    -0.249903563637    15.994914619570
         O           -0.765911585583     2.559609483186     0.205895436363    15.994914619570
         O            1.973333414417     1.993009483186    -0.337905563637    15.994914619570
         O            2.898642414417    -0.660335516814     0.174334436363    15.994914619570
         O            0.902751414417    -2.712174516814    -0.062475563637    15.994914619570
         O           -3.407002885583    -0.881914816814     0.206954036363    15.994914619570
         C           -0.333528585583     1.266140483186    -0.233514563637    12.000000000000
         C            1.104446414417     1.017427483186     0.206029436363    12.000000000000
         C           -1.240328585583     0.139173483186     0.236044436363    12.000000000000
         C            1.569248414417    -0.367523516814    -0.217875563637    12.000000000000
         C            0.571267414417    -1.413805516814     0.291002436363    12.000000000000
         C           -2.659183585583     0.215750483186    -0.291716563637    12.000000000000
         H           -0.355132585583     1.316235483186    -1.327835563637     1.007825032230
         H            1.125969414417     1.057951483186     1.316407436363     1.007825032230
         H           -1.274413585583     0.116907483186     1.341279436363     1.007825032230
         H            1.569294414417    -0.412087516814    -1.314787563637     1.007825032230
         H            0.513525414417    -1.401166516814     1.391055436363     1.007825032230
         H           -2.621842585583     0.231435483186    -1.391262563637     1.007825032230
         H           -3.141188585583     1.134119483186     0.050215436363     1.007825032230
         H           -0.839437585583     2.525207483186     1.178482436363     1.007825032230
         H            1.493954414417     2.839358483186    -0.246210563637     1.007825032230
         H            2.990162414417    -0.439130516814     1.118200436363     1.007825032230
         H            1.241321414417    -2.698101516814    -0.975599563637     1.007825032230
         H           -2.904302585583    -1.668599516814    -0.019059563637     1.007825032230

  Basis Set: AUG-CC-PVTZ
    Blend: AUG-CC-PVTZ
  Basis Set: (AUG-CC-PVTZ AUX)
    Blend: AUG-CC-PVTZ-JKFIT
	 Reference Energy          =    -683.6045687951823311 [Eh]
	 Singles Energy            =      -0.0000000000000000 [Eh]
	 Same-Spin Energy          =      -0.6652710959697157 [Eh]
	 Opposite-Spin Energy      =      -2.0443756291179298 [Eh]
	 Correlation Energy        =      -2.7096467250876453 [Eh]
	 Total Energy              =    -686.3142155202699541 [Eh]

	 ================> DF-SCS-MP2 Energies <==================
	-----------------------------------------------------------
	 SCS Same-Spin Scale       =       0.3333333333333333 [-]
	 SCS Opposite-Spin Scale   =       1.2000000000000000 [-]
	 SCS Same-Spin Energy      =      -0.2217570319899052 [Eh]
	 SCS Opposite-Spin Energy  =      -2.4532507549415157 [Eh]
	 SCS Correlation Energy    =      -2.6750077869314208 [Eh]
	 SCS Total Energy          =    -686.2795765821138048 [Eh]
	-----------------------------------------------------------

  Dipole Moment: [D]
     X:     0.1650      Y:     1.6100      Z:     1.3353     Total:     2.0982

*** Psi4 exiting successfully. Buy a developer a beer!
