                               Psi4 1.3.2 release

  ==> Input File <==

--------------------------------------------------------------------------
#psi4
#
memory 32 gb

molecule  {
0 1
  O       -0.7087550    -1.1193400    -0.2546710
  O       -0.7417164     2.5134149     0.2951923
  O        1.9863450     1.9788980    -0.3426730
  O        2.9116540    -0.6744470     0.1695670
  O        0.9157630    -2.7262860    -0.0672430
  O       -3.4138550    -0.8877920     0.1899090
  C       -0.3205170     1.2520290    -0.2382820
  C        1.1174580     1.0033160     0.2012620
  C       -1.2273170     0.1250620     0.2312770
  C        1.5822600    -0.3816350    -0.2226430
  C        0.5842790    -1.4279170     0.2862350
  C       -2.6461720     0.2016390    -0.2964840
  H       -0.3421210     1.3021240    -1.3326030
  H        1.1389810     1.0438400     1.3116400
  H       -1.2614020     0.1027960     1.3365120
  H        1.5823060    -0.4261990    -1.3195550
  H        0.5265370    -1.4152780     1.3862880
  H       -2.6088310     0.2173240    -1.3960300
  H       -3.1281770     1.1200080     0.0454480
  H       -0.8264260     2.5110960     1.1737150
  H        1.5069660     2.8252470    -0.2509780
  H        3.0031740    -0.4532420     1.1134330
  H        1.2543330    -2.7122130    -0.9803670
  H       -2.8912910    -1.6827110    -0.0238270
units angstrom
no_reorient  #important for SAPT in psi4, default
symmetry c1  #important for SAPT in psi4, default
}

set PROPERTIES_ORIGIN ["COM"]
properties('MP2/aug-cc-pvtz', properties = ['dipole'])
--------------------------------------------------------------------------

    Molecular point group: c1
  Charge       = 0
  Multiplicity = 1
  Basis Set: AUG-CC-PVTZ
    Blend: AUG-CC-PVTZ
  Basis Set: (AUG-CC-PVTZ AUX)
    Blend: AUG-CC-PVTZ-JKFIT

    Orbital Energies [Eh]
    ---------------------

    Doubly Occupied:

       1A    -20.587814     2A    -20.585005     3A    -20.583502
       4A    -20.578846     5A    -20.577631     6A    -20.562766
       7A    -11.356522     8A    -11.313155     9A    -11.309053
      10A    -11.307391    11A    -11.304458    12A    -11.287384
      13A     -1.440451    14A     -1.418342    15A     -1.389485
      16A     -1.374685    17A     -1.366676    18A     -1.352943
      19A     -1.084298    20A     -1.051328    21A     -0.948740
      22A     -0.895388    23A     -0.854417    24A     -0.845909
      25A     -0.755630    26A     -0.729492    27A     -0.727656
      28A     -0.717388    29A     -0.694935    30A     -0.674572
      31A     -0.660048    32A     -0.654985    33A     -0.623852
      34A     -0.616699    35A     -0.598988    36A     -0.586706
      37A     -0.569849    38A     -0.562585    39A     -0.555979
      40A     -0.545898    41A     -0.527001    42A     -0.516039
      43A     -0.501648    44A     -0.486658    45A     -0.474299
      46A     -0.461985    47A     -0.445876    48A     -0.430950

  @DF-RHF Final Energy:  -683.59984878454964

   => Energetics <=

    Nuclear Repulsion Energy =            825.6239742500825969
    One-Electron Energy =               -2579.4558345194654976
    Two-Electron Energy =                1070.2320114848334924
    Total Energy =                       -683.5998487845495220
  Basis Set: (AUG-CC-PVTZ AUX)
    Blend: AUG-CC-PVTZ-RI
    Molecular point group: c1

    Geometry (in Angstrom), charge = 0, multiplicity = 1:

       Center              X                  Y                   Z               Mass
    ------------   -----------------  -----------------  -----------------  -----------------
         O           -0.720995537899    -1.103110043293    -0.257168623443    15.994914619570
         O           -0.753956937899     2.529644856707     0.292694676557    15.994914619570
         O            1.974104462101     1.995127956707    -0.345170623443    15.994914619570
         O            2.899413462101    -0.658217043293     0.167069376557    15.994914619570
         O            0.903522462101    -2.710056043293    -0.069740623443    15.994914619570
         O           -3.426095537899    -0.871562043293     0.187411376557    15.994914619570
         C           -0.332757537899     1.268258956707    -0.240779623443    12.000000000000
         C            1.105217462101     1.019545956707     0.198764376557    12.000000000000
         C           -1.239557537899     0.141291956707     0.228779376557    12.000000000000
         C            1.570019462101    -0.365405043293    -0.225140623443    12.000000000000
         C            0.572038462101    -1.411687043293     0.283737376557    12.000000000000
         C           -2.658412537899     0.217868956707    -0.298981623443    12.000000000000
         H           -0.354361537899     1.318353956707    -1.335100623443     1.007825032230
         H            1.126740462101     1.060069956707     1.309142376557     1.007825032230
         H           -1.273642537899     0.119025956707     1.334014376557     1.007825032230
         H            1.570065462101    -0.409969043293    -1.322052623443     1.007825032230
         H            0.514296462101    -1.399048043293     1.383790376557     1.007825032230
         H           -2.621071537899     0.233553956707    -1.398527623443     1.007825032230
         H           -3.140417537899     1.136237956707     0.042950376557     1.007825032230
         H           -0.838666537899     2.527325956707     1.171217376557     1.007825032230
         H            1.494725462101     2.841476956707    -0.253475623443     1.007825032230
         H            2.990933462101    -0.437012043293     1.110935376557     1.007825032230
         H            1.242092462101    -2.695983043293    -0.982864623443     1.007825032230
         H           -2.903531537899    -1.666481043293    -0.026324623443     1.007825032230

  Basis Set: AUG-CC-PVTZ
    Blend: AUG-CC-PVTZ
  Basis Set: (AUG-CC-PVTZ AUX)
    Blend: AUG-CC-PVTZ-JKFIT
	 Reference Energy          =    -683.5998487845496356 [Eh]
	 Singles Energy            =      -0.0000000000000000 [Eh]
	 Same-Spin Energy          =      -0.6640904905194572 [Eh]
	 Opposite-Spin Energy      =      -2.0415171544447945 [Eh]
	 Correlation Energy        =      -2.7056076449642519 [Eh]
	 Total Energy              =    -686.3054564295139244 [Eh]

	 ================> DF-SCS-MP2 Energies <==================
	-----------------------------------------------------------
	 SCS Same-Spin Scale       =       0.3333333333333333 [-]
	 SCS Opposite-Spin Scale   =       1.2000000000000000 [-]
	 SCS Same-Spin Energy      =      -0.2213634968398191 [Eh]
	 SCS Opposite-Spin Energy  =      -2.4498205853337534 [Eh]
	 SCS Correlation Energy    =      -2.6711840821735726 [Eh]
	 SCS Total Energy          =    -686.2710328667232034 [Eh]
	-----------------------------------------------------------

  Dipole Moment: [D]
     X:     0.2028      Y:     1.6184      Z:     1.2534     Total:     2.0570

*** Psi4 exiting successfully. Buy a developer a beer!
