                               Psi4 1.3.2 release

  ==> Input File <==

--------------------------------------------------------------------------
#psi4
#
memory 32 gb

molecule  {
0 1
  O       -0.7087550    -1.1193400    -0.2546710
  O       -0.7529000     2.5454980     0.2011280
  O        1.9863450     1.9788980    -0.3426730
  O        2.9116540    -0.6744470     0.1695670
  O        0.9157630    -2.7262860    -0.0672430
  O       -3.4138550    -0.8877920     0.1899090
  C       -0.3205170     1.2520290    -0.2382820
  C        1.1174580     1.0033160     0.2012620
  C       -1.1939208     0.1250529     0.1308873
  C        1.5822600    -0.3816350    -0.2226430
  C        0.5842790    -1.4279170     0.2862350
  C       -2.6461720     0.2016390    -0.2964840
  H       -0.3421210     1.3021240    -1.3326030
  H        1.1389810     1.0438400     1.3116400
  H       -1.2614020     0.1027960     1.3365120
  H        1.5823060    -0.4261990    -1.3195550
  H        0.5265370    -1.4152780     1.3862880
  H       -2.6088310     0.2173240    -1.3960300
  H       -3.1281770     1.1200080     0.0454480
  H       -0.8264260     2.5110960     1.1737150
  H        1.5069660     2.8252470    -0.2509780
  H        3.0031740    -0.4532420     1.1134330
  H        1.2543330    -2.7122130    -0.9803670
  H       -2.8912910    -1.6827110    -0.0238270
units angstrom
no_reorient  #important for SAPT in psi4, default
symmetry c1  #important for SAPT in psi4, default
}

set PROPERTIES_ORIGIN ["COM"]
properties('MP2/aug-cc-pvtz', properties = ['dipole'])
--------------------------------------------------------------------------

    Molecular point group: c1
  Charge       = 0
  Multiplicity = 1
  Basis Set: AUG-CC-PVTZ
    Blend: AUG-CC-PVTZ
  Basis Set: (AUG-CC-PVTZ AUX)
    Blend: AUG-CC-PVTZ-JKFIT

    Orbital Energies [Eh]
    ---------------------

    Doubly Occupied:

       1A    -20.600742     2A    -20.594092     3A    -20.586468
       4A    -20.580922     5A    -20.577982     6A    -20.564452
       7A    -11.360307     8A    -11.313109     9A    -11.311172
      10A    -11.309344    11A    -11.307265    12A    -11.287753
      13A     -1.450432    14A     -1.406538    15A     -1.391111
      16A     -1.376425    17A     -1.366978    18A     -1.357544
      19A     -1.087741    20A     -1.055078    21A     -0.947715
      22A     -0.898187    23A     -0.858087    24A     -0.834728
      25A     -0.758531    26A     -0.734045    27A     -0.723349
      28A     -0.711071    29A     -0.699224    30A     -0.673566
      31A     -0.664646    32A     -0.655953    33A     -0.622793
      34A     -0.617108    35A     -0.599396    36A     -0.584437
      37A     -0.572515    38A     -0.563935    39A     -0.556370
      40A     -0.542471    41A     -0.533342    42A     -0.519359
      43A     -0.502529    44A     -0.485661    45A     -0.473475
      46A     -0.461184    47A     -0.438167    48A     -0.434564

  @DF-RHF Final Energy:  -683.59252403498817

   => Energetics <=

    Nuclear Repulsion Energy =            825.8106922334736737
    One-Electron Energy =               -2579.7027062190172728
    Two-Electron Energy =                1070.2994899505554258
    Total Energy =                       -683.5925240349881733
  Basis Set: (AUG-CC-PVTZ AUX)
    Blend: AUG-CC-PVTZ-RI
    Molecular point group: c1

    Geometry (in Angstrom), charge = 0, multiplicity = 1:

       Center              X                  Y                   Z               Mass
    ------------   -----------------  -----------------  -----------------  -----------------
         O           -0.722227735489    -1.105959357918    -0.242122661708    15.994914619570
         O           -0.766372735489     2.558878642082     0.213676338292    15.994914619570
         O            1.972872264511     1.992278642082    -0.330124661708    15.994914619570
         O            2.898181264511    -0.661066357918     0.182115338292    15.994914619570
         O            0.902290264511    -2.712905357918    -0.054694661708    15.994914619570
         O           -3.427327735489    -0.874411357918     0.202457338292    15.994914619570
         C           -0.333989735489     1.265409642082    -0.225733661708    12.000000000000
         C            1.103985264511     1.016696642082     0.213810338292    12.000000000000
         C           -1.207393535489     0.138433542082     0.143435638292    12.000000000000
         C            1.568787264511    -0.368254357918    -0.210094661708    12.000000000000
         C            0.570806264511    -1.414536357918     0.298783338292    12.000000000000
         C           -2.659644735489     0.215019642082    -0.283935661708    12.000000000000
         H           -0.355593735489     1.315504642082    -1.320054661708     1.007825032230
         H            1.125508264511     1.057220642082     1.324188338292     1.007825032230
         H           -1.274874735489     0.116176642082     1.349060338292     1.007825032230
         H            1.568833264511    -0.412818357918    -1.307006661708     1.007825032230
         H            0.513064264511    -1.401897357918     1.398836338292     1.007825032230
         H           -2.622303735489     0.230704642082    -1.383481661708     1.007825032230
         H           -3.141649735489     1.133388642082     0.057996338292     1.007825032230
         H           -0.839898735489     2.524476642082     1.186263338292     1.007825032230
         H            1.493493264511     2.838627642082    -0.238429661708     1.007825032230
         H            2.989701264511    -0.439861357918     1.125981338292     1.007825032230
         H            1.240860264511    -2.698832357918    -0.967818661708     1.007825032230
         H           -2.904763735489    -1.669330357918    -0.011278661708     1.007825032230

  Basis Set: AUG-CC-PVTZ
    Blend: AUG-CC-PVTZ
  Basis Set: (AUG-CC-PVTZ AUX)
    Blend: AUG-CC-PVTZ-JKFIT
	 Reference Energy          =    -683.5925240349881733 [Eh]
	 Singles Energy            =      -0.0000000000000000 [Eh]
	 Same-Spin Energy          =      -0.6662323723862174 [Eh]
	 Opposite-Spin Energy      =      -2.0454089452778157 [Eh]
	 Correlation Energy        =      -2.7116413176640330 [Eh]
	 Total Energy              =    -686.3041653526522623 [Eh]

	 ================> DF-SCS-MP2 Energies <==================
	-----------------------------------------------------------
	 SCS Same-Spin Scale       =       0.3333333333333333 [-]
	 SCS Opposite-Spin Scale   =       1.2000000000000000 [-]
	 SCS Same-Spin Energy      =      -0.2220774574620724 [Eh]
	 SCS Opposite-Spin Energy  =      -2.4544907343333788 [Eh]
	 SCS Correlation Energy    =      -2.6765681917954511 [Eh]
	 SCS Total Energy          =    -686.2690922267836413 [Eh]
	-----------------------------------------------------------

  Dipole Moment: [D]
     X:     0.3501      Y:     1.5032      Z:     1.1897     Total:     1.9487

*** Psi4 exiting successfully. Buy a developer a beer!
