                               Psi4 1.4a3.dev225

  ==> Input File <==

--------------------------------------------------------------------------
#psi4
#
memory 32 gb

molecule  {
0 1
  O       -0.7087730    -1.1193010    -0.2547420
  O       -0.7528450     2.5455330     0.2012150
  O        1.9863940     1.9788490    -0.3427120
  O        2.9116460    -0.6744970     0.1694850
  O        0.9156910    -2.7263170    -0.0671110
  O       -3.4138470    -0.8877920     0.1898460
  C       -0.3205030     1.2520640    -0.2382550
  C        1.1174820     1.0032940     0.2012350
  C       -1.2092333     0.0816791     0.2143098
  C        1.5822430    -0.3816820    -0.2226620
  C        0.5842200    -1.4279110     0.2862640
  C       -2.6461850     0.2016990    -0.2964600
  H       -0.3421180     1.3022200    -1.3325700
  H        1.1390340     1.0438120     1.3116130
  H       -1.2614040     0.1027740     1.3364960
  H        1.5822050    -0.4262820    -1.3195710
  H        0.5263940    -1.4152120     1.3863080
  H       -2.6088500     0.2174640    -1.3960030
  H       -3.1281860     1.1200450     0.0455410
  H       -0.8261980     2.5111300     1.1738140
  H        1.5071200     2.8252430    -0.2509020
  H        3.0032160    -0.4533580     1.1133610
  H        1.2544120    -2.7122960    -0.9801810
  H       -2.8913510    -1.6827050    -0.0240770
units angstrom
no_reorient  #important for SAPT in psi4, default
symmetry c1  #important for SAPT in psi4, default
}

set PROPERTIES_ORIGIN ["COM"]
properties('MP2/aug-cc-pvtz', properties = ['dipole'])
--------------------------------------------------------------------------

    Molecular point group: c1
  Charge       = 0
  Multiplicity = 1
  Basis Set: AUG-CC-PVTZ
    Blend: AUG-CC-PVTZ
  Basis Set: (AUG-CC-PVTZ AUX)
    Blend: AUG-CC-PVTZ-JKFIT

    Orbital Energies [Eh]
    ---------------------

    Doubly Occupied:

       1A    -20.598174     2A    -20.593439     3A    -20.586023
       4A    -20.580286     5A    -20.576441     6A    -20.561591
       7A    -11.360046     8A    -11.309131     9A    -11.308499
      10A    -11.307692    11A    -11.306386    12A    -11.286320
      13A     -1.451138    14A     -1.404170    15A     -1.390398
      16A     -1.375787    17A     -1.365720    18A     -1.356694
      19A     -1.079178    20A     -1.049770    21A     -0.943960
      22A     -0.893599    23A     -0.854910    24A     -0.841570
      25A     -0.756793    26A     -0.732755    27A     -0.721058
      28A     -0.710996    29A     -0.695711    30A     -0.673198
      31A     -0.662991    32A     -0.656171    33A     -0.620913
      34A     -0.615585    35A     -0.597905    36A     -0.587083
      37A     -0.572303    38A     -0.563193    39A     -0.556299
      40A     -0.543192    41A     -0.532709    42A     -0.519699
      43A     -0.501383    44A     -0.487119    45A     -0.473023
      46A     -0.459889    47A     -0.444327    48A     -0.427543

  @DF-RHF Final Energy:  -683.60277365140723

   => Energetics <=

    Nuclear Repulsion Energy =            825.1854107576868955
    One-Electron Energy =               -2578.5908516928907375
    Two-Electron Energy =                1069.8026672837966089
    Total Energy =                       -683.6027736514072330
  Basis Set: (AUG-CC-PVTZ AUX)
    Blend: AUG-CC-PVTZ-RI
    Molecular point group: c1

    Geometry (in Angstrom), charge = 0, multiplicity = 1:

       Center              X                  Y                   Z               Mass
    ------------   -----------------  -----------------  -----------------  -----------------
         O           -0.721224365667    -1.103027187995    -0.247753128243    15.994914619570
         O           -0.765296365667     2.561806812005     0.208203871757    15.994914619570
         O            1.973942634333     1.995122812005    -0.335723128243    15.994914619570
         O            2.899194634333    -0.658223187995     0.176473871757    15.994914619570
         O            0.903239634333    -2.710043187995    -0.060122128243    15.994914619570
         O           -3.426298365667    -0.871518187995     0.196834871757    15.994914619570
         C           -0.332954365667     1.268337812005    -0.231266128243    12.000000000000
         C            1.105030634333     1.019567812005     0.208223871757    12.000000000000
         C           -1.221684665667     0.097952912005     0.221298671757    12.000000000000
         C            1.569791634333    -0.365408187995    -0.215673128243    12.000000000000
         C            0.571768634333    -1.411637187995     0.293252871757    12.000000000000
         C           -2.658636365667     0.217972812005    -0.289471128243    12.000000000000
         H           -0.354569365667     1.318493812005    -1.325581128243     1.007825032230
         H            1.126582634333     1.060085812005     1.318601871757     1.007825032230
         H           -1.273855365667     0.119047812005     1.343484871757     1.007825032230
         H            1.569753634333    -0.410008187995    -1.312582128243     1.007825032230
         H            0.513942634333    -1.398938187995     1.393296871757     1.007825032230
         H           -2.621301365667     0.233737812005    -1.389014128243     1.007825032230
         H           -3.140637365667     1.136318812005     0.052529871757     1.007825032230
         H           -0.838649365667     2.527403812005     1.180802871757     1.007825032230
         H            1.494668634333     2.841516812005    -0.243913128243     1.007825032230
         H            2.990764634333    -0.437084187995     1.120349871757     1.007825032230
         H            1.241960634333    -2.696022187995    -0.973192128243     1.007825032230
         H           -2.903802365667    -1.666431187995    -0.017088128243     1.007825032230

  Basis Set: AUG-CC-PVTZ
    Blend: AUG-CC-PVTZ
  Basis Set: (AUG-CC-PVTZ AUX)
    Blend: AUG-CC-PVTZ-JKFIT
	 Reference Energy          =    -683.6027736514072330 [Eh]
	 Singles Energy            =      -0.0000000000000000 [Eh]
	 Same-Spin Energy          =      -0.6653881889368112 [Eh]
	 Opposite-Spin Energy      =      -2.0442109648875144 [Eh]
	 Correlation Energy        =      -2.7095991538243256 [Eh]
	 Total Energy              =    -686.3123728052315755 [Eh]

	 ================> DF-SCS-MP2 Energies <==================
	-----------------------------------------------------------
	 SCS Same-Spin Scale       =       0.3333333333333333 [-]
	 SCS Opposite-Spin Scale   =       1.2000000000000000 [-]
	 SCS Same-Spin Energy      =      -0.2217960629789371 [Eh]
	 SCS Opposite-Spin Energy  =      -2.4530531578650172 [Eh]
	 SCS Correlation Energy    =      -2.6748492208439543 [Eh]
	 SCS Total Energy          =    -686.2776228722511860 [Eh]
	-----------------------------------------------------------

  Dipole Moment: [D]
     X:     0.2976      Y:     1.4661      Z:     1.3252     Total:     1.9985

*** Psi4 exiting successfully. Buy a developer a beer!
