                               Psi4 1.3.2 release

  ==> Input File <==

--------------------------------------------------------------------------
#psi4
#
memory 32 gb

molecule  {
0 1
  O       -0.7087550    -1.1193400    -0.2546710
  O       -0.7529000     2.5454980     0.2011280
  O        1.9863450     1.9788980    -0.3426730
  O        2.9116540    -0.6744470     0.1695670
  O        0.9157630    -2.7262860    -0.0672430
  O       -3.4138550    -0.8877920     0.1899090
  C       -0.3205170     1.2520290    -0.2382820
  C        1.1174580     1.0033160     0.2012620
  C       -1.2273170     0.1250620     0.2312770
  C        1.5822600    -0.3816350    -0.2226430
  C        0.5842790    -1.4279170     0.2862350
  C       -2.7397785     0.2066910    -0.3313021
  H       -0.3421210     1.3021240    -1.3326030
  H        1.1389810     1.0438400     1.3116400
  H       -1.2614020     0.1027960     1.3365120
  H        1.5823060    -0.4261990    -1.3195550
  H        0.5265370    -1.4152780     1.3862880
  H       -2.6088310     0.2173240    -1.3960300
  H       -3.1281770     1.1200080     0.0454480
  H       -0.8264260     2.5110960     1.1737150
  H        1.5069660     2.8252470    -0.2509780
  H        3.0031740    -0.4532420     1.1134330
  H        1.2543330    -2.7122130    -0.9803670
  H       -2.8912910    -1.6827110    -0.0238270
units angstrom
no_reorient  #important for SAPT in psi4, default
symmetry c1  #important for SAPT in psi4, default
}

set PROPERTIES_ORIGIN ["COM"]
properties('MP2/aug-cc-pvtz', properties = ['dipole'])
--------------------------------------------------------------------------

    Molecular point group: c1
  Charge       = 0
  Multiplicity = 1
  Basis Set: AUG-CC-PVTZ
    Blend: AUG-CC-PVTZ
  Basis Set: (AUG-CC-PVTZ AUX)
    Blend: AUG-CC-PVTZ-JKFIT

    Orbital Energies [Eh]
    ---------------------

    Doubly Occupied:

       1A    -20.596690     2A    -20.586968     3A    -20.582833
       4A    -20.578145     5A    -20.575861     6A    -20.565277
       7A    -11.355607     8A    -11.308072     9A    -11.307407
      10A    -11.306655    11A    -11.303769    12A    -11.288854
      13A     -1.438060    14A     -1.403320    15A     -1.387089
      16A     -1.377382    17A     -1.365196    18A     -1.356520
      19A     -1.077028    20A     -1.039283    21A     -0.942404
      22A     -0.889141    23A     -0.858018    24A     -0.840904
      25A     -0.752238    26A     -0.727779    27A     -0.719098
      28A     -0.709444    29A     -0.694351    30A     -0.669573
      31A     -0.664732    32A     -0.653979    33A     -0.623660
      34A     -0.617272    35A     -0.606578    36A     -0.587463
      37A     -0.569623    38A     -0.561034    39A     -0.554390
      40A     -0.541672    41A     -0.524927    42A     -0.515133
      43A     -0.502576    44A     -0.488568    45A     -0.472507
      46A     -0.462263    47A     -0.438074    48A     -0.421303

  @DF-RHF Final Energy:  -683.59684242021399

   => Energetics <=

    Nuclear Repulsion Energy =            822.9204837229563054
    One-Electron Energy =               -2574.2172099659792366
    Two-Electron Energy =                1067.6998838228089426
    Total Energy =                       -683.5968424202139886
  Basis Set: (AUG-CC-PVTZ AUX)
    Blend: AUG-CC-PVTZ-RI
    Molecular point group: c1

    Geometry (in Angstrom), charge = 0, multiplicity = 1:

       Center              X                  Y                   Z               Mass
    ------------   -----------------  -----------------  -----------------  -----------------
         O           -0.713763869424    -1.106296645807    -0.246492562821    15.994914619570
         O           -0.757908869424     2.558541354193     0.209306437179    15.994914619570
         O            1.981336130576     1.991941354193    -0.334494562821    15.994914619570
         O            2.906645130576    -0.661403645807     0.177745437179    15.994914619570
         O            0.910754130576    -2.713242645807    -0.059064562821    15.994914619570
         O           -3.418863869424    -0.874748645807     0.198087437179    15.994914619570
         C           -0.325525869424     1.265072354193    -0.230103562821    12.000000000000
         C            1.112449130576     1.016359354193     0.209440437179    12.000000000000
         C           -1.232325869424     0.138105354193     0.239455437179    12.000000000000
         C            1.577251130576    -0.368591645807    -0.214464562821    12.000000000000
         C            0.579270130576    -1.414873645807     0.294413437179    12.000000000000
         C           -2.744787369424     0.219734354193    -0.323123662821    12.000000000000
         H           -0.347129869424     1.315167354193    -1.324424562821     1.007825032230
         H            1.133972130576     1.056883354193     1.319818437179     1.007825032230
         H           -1.266410869424     0.115839354193     1.344690437179     1.007825032230
         H            1.577297130576    -0.413155645807    -1.311376562821     1.007825032230
         H            0.521528130576    -1.402234645807     1.394466437179     1.007825032230
         H           -2.613839869424     0.230367354193    -1.387851562821     1.007825032230
         H           -3.133185869424     1.133051354193     0.053626437179     1.007825032230
         H           -0.831434869424     2.524139354193     1.181893437179     1.007825032230
         H            1.501957130576     2.838290354193    -0.242799562821     1.007825032230
         H            2.998165130576    -0.440198645807     1.121611437179     1.007825032230
         H            1.249324130576    -2.699169645807    -0.972188562821     1.007825032230
         H           -2.896299869424    -1.669667645807    -0.015648562821     1.007825032230

  Basis Set: AUG-CC-PVTZ
    Blend: AUG-CC-PVTZ
  Basis Set: (AUG-CC-PVTZ AUX)
    Blend: AUG-CC-PVTZ-JKFIT
	 Reference Energy          =    -683.5968424202139886 [Eh]
	 Singles Energy            =      -0.0000000000000000 [Eh]
	 Same-Spin Energy          =      -0.6651374948483295 [Eh]
	 Opposite-Spin Energy      =      -2.0443022579312262 [Eh]
	 Correlation Energy        =      -2.7094397527795557 [Eh]
	 Total Energy              =    -686.3062821729935195 [Eh]

	 ================> DF-SCS-MP2 Energies <==================
	-----------------------------------------------------------
	 SCS Same-Spin Scale       =       0.3333333333333333 [-]
	 SCS Opposite-Spin Scale   =       1.2000000000000000 [-]
	 SCS Same-Spin Energy      =      -0.2217124982827765 [Eh]
	 SCS Opposite-Spin Energy  =      -2.4531627095174713 [Eh]
	 SCS Correlation Energy    =      -2.6748752078002478 [Eh]
	 SCS Total Energy          =    -686.2717176280142439 [Eh]
	-----------------------------------------------------------

  Dipole Moment: [D]
     X:     0.0067      Y:     1.5153      Z:     1.3335     Total:     2.0186

*** Psi4 exiting successfully. Buy a developer a beer!
