                               Psi4 1.3.2 release

  ==> Input File <==

--------------------------------------------------------------------------
#psi4
#
memory 32 gb

molecule  {
0 1
  O       -0.7087550    -1.1193400    -0.2546710
  O       -0.6339572     2.6011713     0.1286900
  O        1.9863450     1.9788980    -0.3426730
  O        2.9116540    -0.6744470     0.1695670
  O        0.9157630    -2.7262860    -0.0672430
  O       -3.4138550    -0.8877920     0.1899090
  C       -0.3205170     1.2520290    -0.2382820
  C        1.1174580     1.0033160     0.2012620
  C       -1.2273170     0.1250620     0.2312770
  C        1.5822600    -0.3816350    -0.2226430
  C        0.5842790    -1.4279170     0.2862350
  C       -2.6461720     0.2016390    -0.2964840
  H       -0.3421210     1.3021240    -1.3326030
  H        1.1389810     1.0438400     1.3116400
  H       -1.2614020     0.1027960     1.3365120
  H        1.5823060    -0.4261990    -1.3195550
  H        0.5265370    -1.4152780     1.3862880
  H       -2.6088310     0.2173240    -1.3960300
  H       -3.1281770     1.1200080     0.0454480
  H       -0.8264260     2.5110960     1.1737150
  H        1.5069660     2.8252470    -0.2509780
  H        3.0031740    -0.4532420     1.1134330
  H        1.2543330    -2.7122130    -0.9803670
  H       -2.8912910    -1.6827110    -0.0238270
units angstrom
no_reorient  #important for SAPT in psi4, default
symmetry c1  #important for SAPT in psi4, default
}

set PROPERTIES_ORIGIN ["COM"]
properties('MP2/aug-cc-pvtz', properties = ['dipole'])
--------------------------------------------------------------------------

    Molecular point group: c1
  Charge       = 0
  Multiplicity = 1
  Basis Set: AUG-CC-PVTZ
    Blend: AUG-CC-PVTZ
  Basis Set: (AUG-CC-PVTZ AUX)
    Blend: AUG-CC-PVTZ-JKFIT

    Orbital Energies [Eh]
    ---------------------

    Doubly Occupied:

       1A    -20.609443     2A    -20.591590     3A    -20.584101
       4A    -20.577640     5A    -20.573069     6A    -20.564641
       7A    -11.357245     8A    -11.312371     9A    -11.309083
      10A    -11.306727    11A    -11.303305    12A    -11.290099
      13A     -1.441264    14A     -1.399677    15A     -1.384823
      16A     -1.371500    17A     -1.359754    18A     -1.354676
      19A     -1.078628    20A     -1.051862    21A     -0.944975
      22A     -0.888100    23A     -0.854646    24A     -0.839499
      25A     -0.752824    26A     -0.730665    27A     -0.720991
      28A     -0.704297    29A     -0.686693    30A     -0.674326
      31A     -0.660350    32A     -0.653537    33A     -0.622520
      34A     -0.609699    35A     -0.597966    36A     -0.588199
      37A     -0.569825    38A     -0.561062    39A     -0.555734
      40A     -0.535695    41A     -0.530285    42A     -0.518919
      43A     -0.502722    44A     -0.488058    45A     -0.473122
      46A     -0.462645    47A     -0.445386    48A     -0.432316

  @DF-RHF Final Energy:  -683.58789880167319

   => Energetics <=

    Nuclear Repulsion Energy =            824.2074175843670218
    One-Electron Energy =               -2576.7375268967639386
    Two-Electron Energy =                1068.9422105107237257
    Total Energy =                       -683.5878988016731910
  Basis Set: (AUG-CC-PVTZ AUX)
    Blend: AUG-CC-PVTZ-RI
    Molecular point group: c1

    Geometry (in Angstrom), charge = 0, multiplicity = 1:

       Center              X                  Y                   Z               Mass
    ------------   -----------------  -----------------  -----------------  -----------------
         O           -0.730567718127    -1.110905387700    -0.242378331532    15.994914619570
         O           -0.655769918127     2.609605912300     0.140982668468    15.994914619570
         O            1.964532281873     1.987332612300    -0.330380331532    15.994914619570
         O            2.889841281873    -0.666012387700     0.181859668468    15.994914619570
         O            0.893950281873    -2.717851387700    -0.054950331532    15.994914619570
         O           -3.435667718127    -0.879357387700     0.202201668468    15.994914619570
         C           -0.342329718127     1.260463612300    -0.225989331532    12.000000000000
         C            1.095645281873     1.011750612300     0.213554668468    12.000000000000
         C           -1.249129718127     0.133496612300     0.243569668468    12.000000000000
         C            1.560447281873    -0.373200387700    -0.210350331532    12.000000000000
         C            0.562466281873    -1.419482387700     0.298527668468    12.000000000000
         C           -2.667984718127     0.210073612300    -0.284191331532    12.000000000000
         H           -0.363933718127     1.310558612300    -1.320310331532     1.007825032230
         H            1.117168281873     1.052274612300     1.323932668468     1.007825032230
         H           -1.283214718127     0.111230612300     1.348804668468     1.007825032230
         H            1.560493281873    -0.417764387700    -1.307262331532     1.007825032230
         H            0.504724281873    -1.406843387700     1.398580668468     1.007825032230
         H           -2.630643718127     0.225758612300    -1.383737331532     1.007825032230
         H           -3.149989718127     1.128442612300     0.057740668468     1.007825032230
         H           -0.848238718127     2.519530612300     1.186007668468     1.007825032230
         H            1.485153281873     2.833681612300    -0.238685331532     1.007825032230
         H            2.981361281873    -0.444807387700     1.125725668468     1.007825032230
         H            1.232520281873    -2.703778387700    -0.968074331532     1.007825032230
         H           -2.913103718127    -1.674276387700    -0.011534331532     1.007825032230

  Basis Set: AUG-CC-PVTZ
    Blend: AUG-CC-PVTZ
  Basis Set: (AUG-CC-PVTZ AUX)
    Blend: AUG-CC-PVTZ-JKFIT
	 Reference Energy          =    -683.5878988016731910 [Eh]
	 Singles Energy            =      -0.0000000000000000 [Eh]
	 Same-Spin Energy          =      -0.6671062669578525 [Eh]
	 Opposite-Spin Energy      =      -2.0487904636652243 [Eh]
	 Correlation Energy        =      -2.7158967306230766 [Eh]
	 Total Energy              =    -686.3037955322962489 [Eh]

	 ================> DF-SCS-MP2 Energies <==================
	-----------------------------------------------------------
	 SCS Same-Spin Scale       =       0.3333333333333333 [-]
	 SCS Opposite-Spin Scale   =       1.2000000000000000 [-]
	 SCS Same-Spin Energy      =      -0.2223687556526175 [Eh]
	 SCS Opposite-Spin Energy  =      -2.4585485563982692 [Eh]
	 SCS Correlation Energy    =      -2.6809173120508865 [Eh]
	 SCS Total Energy          =    -686.2688161137240286 [Eh]
	-----------------------------------------------------------

  Dipole Moment: [D]
     X:    -0.1091      Y:     1.5035      Z:     1.4329     Total:     2.0798

*** Psi4 exiting successfully. Buy a developer a beer!
