                               Psi4 1.3.2 release

  ==> Input File <==

--------------------------------------------------------------------------
#psi4
#
memory 32 gb

molecule  {
0 1
  O       -0.7087550    -1.1193400    -0.2546710
  O       -0.7529000     2.5454980     0.2011280
  O        1.9863450     1.9788980    -0.3426730
  O        2.9116540    -0.6744470     0.1695670
  O        0.9157630    -2.7262860    -0.0672430
  O       -3.4138550    -0.8877920     0.1899090
  C       -0.3205170     1.2520290    -0.2382820
  C        1.1174580     1.0033160     0.2012620
  C       -1.2367532     0.1251226     0.2559915
  C        1.5822600    -0.3816350    -0.2226430
  C        0.5842790    -1.4279170     0.2862350
  C       -2.6461720     0.2016390    -0.2964840
  H       -0.3421210     1.3021240    -1.3326030
  H        1.1389810     1.0438400     1.3116400
  H       -1.2614020     0.1027960     1.3365120
  H        1.5823060    -0.4261990    -1.3195550
  H        0.5265370    -1.4152780     1.3862880
  H       -2.6088310     0.2173240    -1.3960300
  H       -3.1281770     1.1200080     0.0454480
  H       -0.8264260     2.5110960     1.1737150
  H        1.5069660     2.8252470    -0.2509780
  H        3.0031740    -0.4532420     1.1134330
  H        1.2543330    -2.7122130    -0.9803670
  H       -2.8912910    -1.6827110    -0.0238270
units angstrom
no_reorient  #important for SAPT in psi4, default
symmetry c1  #important for SAPT in psi4, default
}

set PROPERTIES_ORIGIN ["COM"]
properties('MP2/aug-cc-pvtz', properties = ['dipole'])
--------------------------------------------------------------------------

    Molecular point group: c1
  Charge       = 0
  Multiplicity = 1
  Basis Set: AUG-CC-PVTZ
    Blend: AUG-CC-PVTZ
  Basis Set: (AUG-CC-PVTZ AUX)
    Blend: AUG-CC-PVTZ-JKFIT

    Orbital Energies [Eh]
    ---------------------

    Doubly Occupied:

       1A    -20.597747     2A    -20.587276     3A    -20.583140
       4A    -20.578859     5A    -20.577369     6A    -20.562344
       7A    -11.356088     8A    -11.310956     9A    -11.309460
      10A    -11.307277    11A    -11.304591    12A    -11.287484
      13A     -1.437878    14A     -1.404723    15A     -1.387032
      16A     -1.371894    17A     -1.365645    18A     -1.351596
      19A     -1.079397    20A     -1.050246    21A     -0.945708
      22A     -0.889688    23A     -0.854152    24A     -0.844474
      25A     -0.753019    26A     -0.729550    27A     -0.720048
      28A     -0.709528    29A     -0.691898    30A     -0.674991
      31A     -0.659086    32A     -0.654680    33A     -0.619470
      34A     -0.615402    35A     -0.597694    36A     -0.588908
      37A     -0.569699    38A     -0.561560    39A     -0.556387
      40A     -0.544000    41A     -0.525677    42A     -0.517002
      43A     -0.502671    44A     -0.486869    45A     -0.474039
      46A     -0.462769    47A     -0.446956    48A     -0.429864

  @DF-RHF Final Energy:  -683.60309280174624

   => Energetics <=

    Nuclear Repulsion Energy =            824.3507801433436271
    One-Electron Energy =               -2577.0341634829323993
    Two-Electron Energy =                1069.0802905378425294
    Total Energy =                       -683.6030928017462429
  Basis Set: (AUG-CC-PVTZ AUX)
    Blend: AUG-CC-PVTZ-RI
    Molecular point group: c1

    Geometry (in Angstrom), charge = 0, multiplicity = 1:

       Center              X                  Y                   Z               Mass
    ------------   -----------------  -----------------  -----------------  -----------------
         O           -0.719373247381    -1.105964002949    -0.250460005661    15.994914619570
         O           -0.763518247381     2.558873997051     0.205338994339    15.994914619570
         O            1.975726752619     1.992273997051    -0.338462005661    15.994914619570
         O            2.901035752619    -0.661071002949     0.173777994339    15.994914619570
         O            0.905144752619    -2.712910002949    -0.063032005661    15.994914619570
         O           -3.424473247381    -0.874416002949     0.194119994339    15.994914619570
         C           -0.331135247381     1.265404997051    -0.234071005661    12.000000000000
         C            1.106839752619     1.016691997051     0.205472994339    12.000000000000
         C           -1.247371447381     0.138498597051     0.260202494339    12.000000000000
         C            1.571641752619    -0.368259002949    -0.218432005661    12.000000000000
         C            0.573660752619    -1.414541002949     0.290445994339    12.000000000000
         C           -2.656790247381     0.215014997051    -0.292273005661    12.000000000000
         H           -0.352739247381     1.315499997051    -1.328392005661     1.007825032230
         H            1.128362752619     1.057215997051     1.315850994339     1.007825032230
         H           -1.272020247381     0.116171997051     1.340722994339     1.007825032230
         H            1.571687752619    -0.412823002949    -1.315344005661     1.007825032230
         H            0.515918752619    -1.401902002949     1.390498994339     1.007825032230
         H           -2.619449247381     0.230699997051    -1.391819005661     1.007825032230
         H           -3.138795247381     1.133383997051     0.049658994339     1.007825032230
         H           -0.837044247381     2.524471997051     1.177925994339     1.007825032230
         H            1.496347752619     2.838622997051    -0.246767005661     1.007825032230
         H            2.992555752619    -0.439866002949     1.117643994339     1.007825032230
         H            1.243714752619    -2.698837002949    -0.976156005661     1.007825032230
         H           -2.901909247381    -1.669335002949    -0.019616005661     1.007825032230

  Basis Set: AUG-CC-PVTZ
    Blend: AUG-CC-PVTZ
  Basis Set: (AUG-CC-PVTZ AUX)
    Blend: AUG-CC-PVTZ-JKFIT
	 Reference Energy          =    -683.6030928017462429 [Eh]
	 Singles Energy            =      -0.0000000000000000 [Eh]
	 Same-Spin Energy          =      -0.6653541674104954 [Eh]
	 Opposite-Spin Energy      =      -2.0449655412699661 [Eh]
	 Correlation Energy        =      -2.7103197086804616 [Eh]
	 Total Energy              =    -686.3134125104267014 [Eh]

	 ================> DF-SCS-MP2 Energies <==================
	-----------------------------------------------------------
	 SCS Same-Spin Scale       =       0.3333333333333333 [-]
	 SCS Opposite-Spin Scale   =       1.2000000000000000 [-]
	 SCS Same-Spin Energy      =      -0.2217847224701651 [Eh]
	 SCS Opposite-Spin Energy  =      -2.4539586495239591 [Eh]
	 SCS Correlation Energy    =      -2.6757433719941242 [Eh]
	 SCS Total Energy          =    -686.2788361737403875 [Eh]
	-----------------------------------------------------------

  Dipole Moment: [D]
     X:     0.1848      Y:     1.6224      Z:     1.4043     Total:     2.1537

*** Psi4 exiting successfully. Buy a developer a beer!
