                               Psi4 1.3.2 release

  ==> Input File <==

--------------------------------------------------------------------------
#psi4
#
memory 32 gb

molecule  {
0 1
  O       -0.7087550    -1.1193400    -0.2546710
  O       -0.7529000     2.5454980     0.2011280
  O        2.0608067     1.9333618    -0.2964309
  O        2.9116540    -0.6744470     0.1695670
  O        0.9157630    -2.7262860    -0.0672430
  O       -3.4138550    -0.8877920     0.1899090
  C       -0.3205170     1.2520290    -0.2382820
  C        1.1174580     1.0033160     0.2012620
  C       -1.2273170     0.1250620     0.2312770
  C        1.5822600    -0.3816350    -0.2226430
  C        0.5842790    -1.4279170     0.2862350
  C       -2.6461720     0.2016390    -0.2964840
  H       -0.3421210     1.3021240    -1.3326030
  H        1.1389810     1.0438400     1.3116400
  H       -1.2614020     0.1027960     1.3365120
  H        1.5823060    -0.4261990    -1.3195550
  H        0.5265370    -1.4152780     1.3862880
  H       -2.6088310     0.2173240    -1.3960300
  H       -3.1281770     1.1200080     0.0454480
  H       -0.8264260     2.5110960     1.1737150
  H        1.5069660     2.8252470    -0.2509780
  H        3.0031740    -0.4532420     1.1134330
  H        1.2543330    -2.7122130    -0.9803670
  H       -2.8912910    -1.6827110    -0.0238270
units angstrom
no_reorient  #important for SAPT in psi4, default
symmetry c1  #important for SAPT in psi4, default
}

set PROPERTIES_ORIGIN ["COM"]
properties('MP2/aug-cc-pvtz', properties = ['dipole'])
--------------------------------------------------------------------------

    Molecular point group: c1
  Charge       = 0
  Multiplicity = 1
  Basis Set: AUG-CC-PVTZ
    Blend: AUG-CC-PVTZ
  Basis Set: (AUG-CC-PVTZ AUX)
    Blend: AUG-CC-PVTZ-JKFIT

    Orbital Energies [Eh]
    ---------------------

    Doubly Occupied:

       1A    -20.600093     2A    -20.588687     3A    -20.584989
       4A    -20.582816     5A    -20.577852     6A    -20.563496
       7A    -11.355656     8A    -11.312955     9A    -11.309604
      10A    -11.308412    11A    -11.303105    12A    -11.288324
      13A     -1.439809    14A     -1.403298    15A     -1.386540
      16A     -1.372376    17A     -1.358755    18A     -1.352882
      19A     -1.079690    20A     -1.050294    21A     -0.946245
      22A     -0.888773    23A     -0.852769    24A     -0.842674
      25A     -0.751246    26A     -0.727643    27A     -0.718837
      28A     -0.710761    29A     -0.693612    30A     -0.674130
      31A     -0.659150    32A     -0.642277    33A     -0.620647
      34A     -0.615688    35A     -0.598591    36A     -0.586972
      37A     -0.570888    38A     -0.560939    39A     -0.556674
      40A     -0.545000    41A     -0.527629    42A     -0.516319
      43A     -0.502208    44A     -0.487019    45A     -0.470973
      46A     -0.462619    47A     -0.447263    48A     -0.431009

  @DF-RHF Final Energy:  -683.59296511838477

   => Energetics <=

    Nuclear Repulsion Energy =            824.1798835799494327
    One-Electron Energy =               -2576.6893250347156936
    Two-Electron Energy =                1068.9164763363814927
    Total Energy =                       -683.5929651183846545
  Basis Set: (AUG-CC-PVTZ AUX)
    Blend: AUG-CC-PVTZ-RI
    Molecular point group: c1

    Geometry (in Angstrom), charge = 0, multiplicity = 1:

       Center              X                  Y                   Z               Mass
    ------------   -----------------  -----------------  -----------------  -----------------
         O           -0.726616490706    -1.101915013098    -0.252920608264    15.994914619570
         O           -0.770761490706     2.562922986902     0.202878391736    15.994914619570
         O            2.042945209294     1.950786786902    -0.294680508264    15.994914619570
         O            2.893792509294    -0.657022013098     0.171317391736    15.994914619570
         O            0.897901509294    -2.708861013098    -0.065492608264    15.994914619570
         O           -3.431716490706    -0.870367013098     0.191659391736    15.994914619570
         C           -0.338378490706     1.269453986902    -0.236531608264    12.000000000000
         C            1.099596509294     1.020740986902     0.203012391736    12.000000000000
         C           -1.245178490706     0.142486986902     0.233027391736    12.000000000000
         C            1.564398509294    -0.364210013098    -0.220892608264    12.000000000000
         C            0.566417509294    -1.410492013098     0.287985391736    12.000000000000
         C           -2.664033490706     0.219063986902    -0.294733608264    12.000000000000
         H           -0.359982490706     1.319548986902    -1.330852608264     1.007825032230
         H            1.121119509294     1.061264986902     1.313390391736     1.007825032230
         H           -1.279263490706     0.120220986902     1.338262391736     1.007825032230
         H            1.564444509294    -0.408774013098    -1.317804608264     1.007825032230
         H            0.508675509294    -1.397853013098     1.388038391736     1.007825032230
         H           -2.626692490706     0.234748986902    -1.394279608264     1.007825032230
         H           -3.146038490706     1.137432986902     0.047198391736     1.007825032230
         H           -0.844287490706     2.528520986902     1.175465391736     1.007825032230
         H            1.489104509294     2.842671986902    -0.249227608264     1.007825032230
         H            2.985312509294    -0.435817013098     1.115183391736     1.007825032230
         H            1.236471509294    -2.694788013098    -0.978616608264     1.007825032230
         H           -2.909152490706    -1.665286013098    -0.022076608264     1.007825032230

  Basis Set: AUG-CC-PVTZ
    Blend: AUG-CC-PVTZ
  Basis Set: (AUG-CC-PVTZ AUX)
    Blend: AUG-CC-PVTZ-JKFIT
	 Reference Energy          =    -683.5929651183847682 [Eh]
	 Singles Energy            =      -0.0000000000000000 [Eh]
	 Same-Spin Energy          =      -0.6666928406346206 [Eh]
	 Opposite-Spin Energy      =      -2.0478634779488076 [Eh]
	 Correlation Energy        =      -2.7145563185834281 [Eh]
	 Total Energy              =    -686.3075214369681589 [Eh]

	 ================> DF-SCS-MP2 Energies <==================
	-----------------------------------------------------------
	 SCS Same-Spin Scale       =       0.3333333333333333 [-]
	 SCS Opposite-Spin Scale   =       1.2000000000000000 [-]
	 SCS Same-Spin Energy      =      -0.2222309468782069 [Eh]
	 SCS Opposite-Spin Energy  =      -2.4574361735385692 [Eh]
	 SCS Correlation Energy    =      -2.6796671204167763 [Eh]
	 SCS Total Energy          =    -686.2726322388015205 [Eh]
	-----------------------------------------------------------

  Dipole Moment: [D]
     X:     0.0762      Y:     1.6739      Z:     1.2632     Total:     2.0984

*** Psi4 exiting successfully. Buy a developer a beer!
