                               Psi4 1.3.2 release

  ==> Input File <==

--------------------------------------------------------------------------
#psi4
#
memory 32 gb

molecule  {
0 1
  O       -0.7087550    -1.1193400    -0.2546710
  O       -0.7529000     2.5454980     0.2011280
  O        1.9863450     1.9788980    -0.3426730
  O        2.9116540    -0.6744470     0.1695670
  O        0.9153581    -2.7198197    -0.0905465
  O       -3.4138550    -0.8877920     0.1899090
  C       -0.3205170     1.2520290    -0.2382820
  C        1.1174580     1.0033160     0.2012620
  C       -1.2273170     0.1250620     0.2312770
  C        1.5822600    -0.3816350    -0.2226430
  C        0.5842790    -1.4279170     0.2862350
  C       -2.6461720     0.2016390    -0.2964840
  H       -0.3421210     1.3021240    -1.3326030
  H        1.1389810     1.0438400     1.3116400
  H       -1.2614020     0.1027960     1.3365120
  H        1.5823060    -0.4261990    -1.3195550
  H        0.5265370    -1.4152780     1.3862880
  H       -2.6088310     0.2173240    -1.3960300
  H       -3.1281770     1.1200080     0.0454480
  H       -0.8264260     2.5110960     1.1737150
  H        1.5069660     2.8252470    -0.2509780
  H        3.0031740    -0.4532420     1.1134330
  H        1.2543330    -2.7122130    -0.9803670
  H       -2.8912910    -1.6827110    -0.0238270
units angstrom
no_reorient  #important for SAPT in psi4, default
symmetry c1  #important for SAPT in psi4, default
}

set PROPERTIES_ORIGIN ["COM"]
properties('MP2/aug-cc-pvtz', properties = ['dipole'])
--------------------------------------------------------------------------

    Molecular point group: c1
  Charge       = 0
  Multiplicity = 1
  Basis Set: AUG-CC-PVTZ
    Blend: AUG-CC-PVTZ
  Basis Set: (AUG-CC-PVTZ AUX)
    Blend: AUG-CC-PVTZ-JKFIT

    Orbital Energies [Eh]
    ---------------------

    Doubly Occupied:

       1A    -20.598274     2A    -20.588444     3A    -20.580896
       4A    -20.579275     5A    -20.577394     6A    -20.562692
       7A    -11.357520     8A    -11.310451     9A    -11.309543
      10A    -11.307901    11A    -11.304866    12A    -11.287253
      13A     -1.441484    14A     -1.405236    15A     -1.387844
      16A     -1.373778    17A     -1.365978    18A     -1.353876
      19A     -1.080848    20A     -1.051501    21A     -0.946412
      22A     -0.892966    23A     -0.854733    24A     -0.842345
      25A     -0.755489    26A     -0.729812    27A     -0.721097
      28A     -0.711776    29A     -0.693086    30A     -0.674761
      31A     -0.660852    32A     -0.656393    33A     -0.620161
      34A     -0.616010    35A     -0.597765    36A     -0.587461
      37A     -0.569837    38A     -0.562102    39A     -0.556000
      40A     -0.543372    41A     -0.527744    42A     -0.516696
      43A     -0.503005    44A     -0.487436    45A     -0.474288
      46A     -0.462155    47A     -0.446303    48A     -0.430998

  @DF-RHF Final Energy:  -683.60490199456103

   => Energetics <=

    Nuclear Repulsion Energy =            824.9038991780953438
    One-Electron Energy =               -2578.0853902153462514
    Two-Electron Energy =                1069.5765890426898750
    Total Energy =                       -683.6049019945610326
  Basis Set: (AUG-CC-PVTZ AUX)
    Blend: AUG-CC-PVTZ-RI
    Molecular point group: c1

    Geometry (in Angstrom), charge = 0, multiplicity = 1:

       Center              X                  Y                   Z               Mass
    ------------   -----------------  -----------------  -----------------  -----------------
         O           -0.719966138919    -1.106534361630    -0.246742917474    15.994914619570
         O           -0.764111138919     2.558303638370     0.209056082526    15.994914619570
         O            1.975133861081     1.991703638370    -0.334744917474    15.994914619570
         O            2.900442861081    -0.661641361630     0.177495082526    15.994914619570
         O            0.904146961081    -2.707014061630    -0.082618417474    15.994914619570
         O           -3.425066138919    -0.874986361630     0.197837082526    15.994914619570
         C           -0.331728138919     1.264834638370    -0.230353917474    12.000000000000
         C            1.106246861081     1.016121638370     0.209190082526    12.000000000000
         C           -1.238528138919     0.137867638370     0.239205082526    12.000000000000
         C            1.571048861081    -0.368829361630    -0.214714917474    12.000000000000
         C            0.573067861081    -1.415111361630     0.294163082526    12.000000000000
         C           -2.657383138919     0.214444638370    -0.288555917474    12.000000000000
         H           -0.353332138919     1.314929638370    -1.324674917474     1.007825032230
         H            1.127769861081     1.056645638370     1.319568082526     1.007825032230
         H           -1.272613138919     0.115601638370     1.344440082526     1.007825032230
         H            1.571094861081    -0.413393361630    -1.311626917474     1.007825032230
         H            0.515325861081    -1.402472361630     1.394216082526     1.007825032230
         H           -2.620042138919     0.230129638370    -1.388101917474     1.007825032230
         H           -3.139388138919     1.132813638370     0.053376082526     1.007825032230
         H           -0.837637138919     2.523901638370     1.181643082526     1.007825032230
         H            1.495754861081     2.838052638370    -0.243049917474     1.007825032230
         H            2.991962861081    -0.440436361630     1.121361082526     1.007825032230
         H            1.243121861081    -2.699407361630    -0.972438917474     1.007825032230
         H           -2.902502138919    -1.669905361630    -0.015898917474     1.007825032230

  Basis Set: AUG-CC-PVTZ
    Blend: AUG-CC-PVTZ
  Basis Set: (AUG-CC-PVTZ AUX)
    Blend: AUG-CC-PVTZ-JKFIT
	 Reference Energy          =    -683.6049019945610326 [Eh]
	 Singles Energy            =      -0.0000000000000000 [Eh]
	 Same-Spin Energy          =      -0.6651601504622624 [Eh]
	 Opposite-Spin Energy      =      -2.0441055619922581 [Eh]
	 Correlation Energy        =      -2.7092657124545205 [Eh]
	 Total Energy              =    -686.3141677070155993 [Eh]

	 ================> DF-SCS-MP2 Energies <==================
	-----------------------------------------------------------
	 SCS Same-Spin Scale       =       0.3333333333333333 [-]
	 SCS Opposite-Spin Scale   =       1.2000000000000000 [-]
	 SCS Same-Spin Energy      =      -0.2217200501540875 [Eh]
	 SCS Opposite-Spin Energy  =      -2.4529266743907097 [Eh]
	 SCS Correlation Energy    =      -2.6746467245447971 [Eh]
	 SCS Total Energy          =    -686.2795487191058328 [Eh]
	-----------------------------------------------------------

  Dipole Moment: [D]
     X:     0.2215      Y:     1.5971      Z:     1.4000     Total:     2.1354

*** Psi4 exiting successfully. Buy a developer a beer!
