                               Psi4 1.3.2 release

  ==> Input File <==

--------------------------------------------------------------------------
#psi4
#
memory 32 gb

molecule  {
0 1
  O       -0.7087550    -1.1193400    -0.2546710
  O       -0.7529000     2.5454980     0.2011280
  O        1.9863450     1.9788980    -0.3426730
  O        2.9116540    -0.6744470     0.1695670
  O        0.9157630    -2.7262860    -0.0672430
  O       -3.4138550    -0.8877920     0.1899090
  C       -0.3205170     1.2520290    -0.2382820
  C        1.1174580     1.0033160     0.2012620
  C       -1.2097439     0.1250108     0.1813732
  C        1.5822600    -0.3816350    -0.2226430
  C        0.5842790    -1.4279170     0.2862350
  C       -2.6461720     0.2016390    -0.2964840
  H       -0.3421210     1.3021240    -1.3326030
  H        1.1389810     1.0438400     1.3116400
  H       -1.2614020     0.1027960     1.3365120
  H        1.5823060    -0.4261990    -1.3195550
  H        0.5265370    -1.4152780     1.3862880
  H       -2.6088310     0.2173240    -1.3960300
  H       -3.1281770     1.1200080     0.0454480
  H       -0.8264260     2.5110960     1.1737150
  H        1.5069660     2.8252470    -0.2509780
  H        3.0031740    -0.4532420     1.1134330
  H        1.2543330    -2.7122130    -0.9803670
  H       -2.8912910    -1.6827110    -0.0238270
units angstrom
no_reorient  #important for SAPT in psi4, default
symmetry c1  #important for SAPT in psi4, default
}

set PROPERTIES_ORIGIN ["COM"]
properties('MP2/aug-cc-pvtz', properties = ['dipole'])
--------------------------------------------------------------------------

    Molecular point group: c1
  Charge       = 0
  Multiplicity = 1
  Basis Set: AUG-CC-PVTZ
    Blend: AUG-CC-PVTZ
  Basis Set: (AUG-CC-PVTZ AUX)
    Blend: AUG-CC-PVTZ-JKFIT

    Orbital Energies [Eh]
    ---------------------

    Doubly Occupied:

       1A    -20.599520     2A    -20.591237     3A    -20.585135
       4A    -20.580081     5A    -20.577710     6A    -20.563534
       7A    -11.358608     8A    -11.310588     9A    -11.310261
      10A    -11.309386    11A    -11.306166    12A    -11.287283
      13A     -1.445154    14A     -1.405800    15A     -1.389357
      16A     -1.374521    17A     -1.366420    18A     -1.355590
      19A     -1.084165    20A     -1.052929    21A     -0.946746
      22A     -0.894575    23A     -0.856018    24A     -0.838195
      25A     -0.756212    26A     -0.731166    27A     -0.722554
      28A     -0.710609    29A     -0.696225    30A     -0.674267
      31A     -0.662406    32A     -0.655500    33A     -0.621480
      34A     -0.616189    35A     -0.598629    36A     -0.585362
      37A     -0.571384    38A     -0.562993    39A     -0.556009
      40A     -0.542674    41A     -0.530522    42A     -0.517656
      43A     -0.502344    44A     -0.486940    45A     -0.474401
      46A     -0.461388    47A     -0.443750    48A     -0.433259

  @DF-RHF Final Energy:  -683.60090394119368

   => Energetics <=

    Nuclear Repulsion Energy =            825.2694948003924083
    One-Electron Energy =               -2578.7350006309693526
    Two-Electron Energy =                1069.8646018893834935
    Total Energy =                       -683.6009039411935646
  Basis Set: (AUG-CC-PVTZ AUX)
    Blend: AUG-CC-PVTZ-RI
    Molecular point group: c1

    Geometry (in Angstrom), charge = 0, multiplicity = 1:

       Center              X                  Y                   Z               Mass
    ------------   -----------------  -----------------  -----------------  -----------------
         O           -0.721173233505    -1.105956552240    -0.245487203531    15.994914619570
         O           -0.765318233505     2.558881447760     0.210311796469    15.994914619570
         O            1.973926766495     1.992281447760    -0.333489203531    15.994914619570
         O            2.899235766495    -0.661063552240     0.178750796469    15.994914619570
         O            0.903344766495    -2.712902552240    -0.058059203531    15.994914619570
         O           -3.426273233505    -0.874408552240     0.199092796469    15.994914619570
         C           -0.332935233505     1.265412447760    -0.229098203531    12.000000000000
         C            1.105039766495     1.016699447760     0.210445796469    12.000000000000
         C           -1.222162133505     0.138394247760     0.190556996469    12.000000000000
         C            1.569841766495    -0.368251552240    -0.213459203531    12.000000000000
         C            0.571860766495    -1.414533552240     0.295418796469    12.000000000000
         C           -2.658590233505     0.215022447760    -0.287300203531    12.000000000000
         H           -0.354539233505     1.315507447760    -1.323419203531     1.007825032230
         H            1.126562766495     1.057223447760     1.320823796469     1.007825032230
         H           -1.273820233505     0.116179447760     1.345695796469     1.007825032230
         H            1.569887766495    -0.412815552240    -1.310371203531     1.007825032230
         H            0.514118766495    -1.401894552240     1.395471796469     1.007825032230
         H           -2.621249233505     0.230707447760    -1.386846203531     1.007825032230
         H           -3.140595233505     1.133391447760     0.054631796469     1.007825032230
         H           -0.838844233505     2.524479447760     1.182898796469     1.007825032230
         H            1.494547766495     2.838630447760    -0.241794203531     1.007825032230
         H            2.990755766495    -0.439858552240     1.122616796469     1.007825032230
         H            1.241914766495    -2.698829552240    -0.971183203531     1.007825032230
         H           -2.903709233505    -1.669327552240    -0.014643203531     1.007825032230

  Basis Set: AUG-CC-PVTZ
    Blend: AUG-CC-PVTZ
  Basis Set: (AUG-CC-PVTZ AUX)
    Blend: AUG-CC-PVTZ-JKFIT
	 Reference Energy          =    -683.6009039411936783 [Eh]
	 Singles Energy            =      -0.0000000000000000 [Eh]
	 Same-Spin Energy          =      -0.6657761816044312 [Eh]
	 Opposite-Spin Energy      =      -2.0449573939932413 [Eh]
	 Correlation Energy        =      -2.7107335755976725 [Eh]
	 Total Energy              =    -686.3116375167913930 [Eh]

	 ================> DF-SCS-MP2 Energies <==================
	-----------------------------------------------------------
	 SCS Same-Spin Scale       =       0.3333333333333333 [-]
	 SCS Opposite-Spin Scale   =       1.2000000000000000 [-]
	 SCS Same-Spin Energy      =      -0.2219253938681437 [Eh]
	 SCS Opposite-Spin Energy  =      -2.4539488727918894 [Eh]
	 SCS Correlation Energy    =      -2.6758742666600330 [Eh]
	 SCS Total Energy          =    -686.2767782078536811 [Eh]
	-----------------------------------------------------------

  Dipole Moment: [D]
     X:     0.2835      Y:     1.5526      Z:     1.2876     Total:     2.0369

*** Psi4 exiting successfully. Buy a developer a beer!
