                               Psi4 1.3.2 release

  ==> Input File <==

--------------------------------------------------------------------------
#psi4
#
memory 32 gb

molecule  {
0 1
  O       -0.7087550    -1.1193400    -0.2546710
  O       -0.7529000     2.5454980     0.2011280
  O        1.9863450     1.9788980    -0.3426730
  O        2.9116540    -0.6744470     0.1695670
  O        0.9157630    -2.7262860    -0.0672430
  O       -3.4138550    -0.8877920     0.1899090
  C       -0.3205170     1.2520290    -0.2382820
  C        1.1174580     1.0033160     0.2012620
  C       -1.2273170     0.1250620     0.2312770
  C        1.5822600    -0.3816350    -0.2226430
  C        0.5842790    -1.4279170     0.2862350
  C       -2.6367283     0.2017379    -0.3211955
  H       -0.3421210     1.3021240    -1.3326030
  H        1.1389810     1.0438400     1.3116400
  H       -1.2614020     0.1027960     1.3365120
  H        1.5823060    -0.4261990    -1.3195550
  H        0.5265370    -1.4152780     1.3862880
  H       -2.6088310     0.2173240    -1.3960300
  H       -3.1281770     1.1200080     0.0454480
  H       -0.8264260     2.5110960     1.1737150
  H        1.5069660     2.8252470    -0.2509780
  H        3.0031740    -0.4532420     1.1134330
  H        1.2543330    -2.7122130    -0.9803670
  H       -2.8912910    -1.6827110    -0.0238270
units angstrom
no_reorient  #important for SAPT in psi4, default
symmetry c1  #important for SAPT in psi4, default
}

set PROPERTIES_ORIGIN ["COM"]
properties('MP2/aug-cc-pvtz', properties = ['dipole'])
--------------------------------------------------------------------------

    Molecular point group: c1
  Charge       = 0
  Multiplicity = 1
  Basis Set: AUG-CC-PVTZ
    Blend: AUG-CC-PVTZ
  Basis Set: (AUG-CC-PVTZ AUX)
    Blend: AUG-CC-PVTZ-JKFIT

    Orbital Energies [Eh]
    ---------------------

    Doubly Occupied:

       1A    -20.598399     2A    -20.588438     3A    -20.583785
       4A    -20.579309     5A    -20.577529     6A    -20.561723
       7A    -11.356880     8A    -11.310547     9A    -11.309718
      10A    -11.308364    11A    -11.305168    12A    -11.286735
      13A     -1.440199    14A     -1.405153    15A     -1.387625
      16A     -1.371267    17A     -1.365567    18A     -1.350037
      19A     -1.081105    20A     -1.051479    21A     -0.946100
      22A     -0.891404    23A     -0.854565    24A     -0.842941
      25A     -0.753566    26A     -0.730132    27A     -0.721033
      28A     -0.710265    29A     -0.692010    30A     -0.674227
      31A     -0.660081    32A     -0.655689    33A     -0.619943
      34A     -0.616230    35A     -0.593276    36A     -0.587676
      37A     -0.569558    38A     -0.561930    39A     -0.556008
      40A     -0.543635    41A     -0.526733    42A     -0.516964
      43A     -0.502855    44A     -0.487295    45A     -0.474428
      46A     -0.464910    47A     -0.447465    48A     -0.430844

  @DF-RHF Final Energy:  -683.60275812998361

   => Energetics <=

    Nuclear Repulsion Energy =            824.6351575215584262
    One-Electron Energy =               -2577.5742467338473034
    Two-Electron Energy =                1069.3363310823051506
    Total Energy =                       -683.6027581299836129
  Basis Set: (AUG-CC-PVTZ AUX)
    Blend: AUG-CC-PVTZ-RI
    Molecular point group: c1

    Geometry (in Angstrom), charge = 0, multiplicity = 1:

       Center              X                  Y                   Z               Mass
    ------------   -----------------  -----------------  -----------------  -----------------
         O           -0.720631464292    -1.105966555384    -0.247166098964    15.994914619570
         O           -0.764776464292     2.558871444616     0.208632901036    15.994914619570
         O            1.974468535708     1.992271444616    -0.335168098964    15.994914619570
         O            2.899777535708    -0.661073555384     0.177071901036    15.994914619570
         O            0.903886535708    -2.712912555384    -0.059738098964    15.994914619570
         O           -3.425731464292    -0.874418555384     0.197413901036    15.994914619570
         C           -0.332393464292     1.265402444616    -0.230777098964    12.000000000000
         C            1.105581535708     1.016689444616     0.208766901036    12.000000000000
         C           -1.239193464292     0.138435444616     0.238781901036    12.000000000000
         C            1.570383535708    -0.368261555384    -0.215138098964    12.000000000000
         C            0.572402535708    -1.414543555384     0.293739901036    12.000000000000
         C           -2.648604764292     0.215111344616    -0.313690598964    12.000000000000
         H           -0.353997464292     1.315497444616    -1.325098098964     1.007825032230
         H            1.127104535708     1.057213444616     1.319144901036     1.007825032230
         H           -1.273278464292     0.116169444616     1.344016901036     1.007825032230
         H            1.570429535708    -0.412825555384    -1.312050098964     1.007825032230
         H            0.514660535708    -1.401904555384     1.393792901036     1.007825032230
         H           -2.620707464292     0.230697444616    -1.388525098964     1.007825032230
         H           -3.140053464292     1.133381444616     0.052952901036     1.007825032230
         H           -0.838302464292     2.524469444616     1.181219901036     1.007825032230
         H            1.495089535708     2.838620444616    -0.243473098964     1.007825032230
         H            2.991297535708    -0.439868555384     1.120937901036     1.007825032230
         H            1.242456535708    -2.698839555384    -0.972862098964     1.007825032230
         H           -2.903167464292    -1.669337555384    -0.016322098964     1.007825032230

  Basis Set: AUG-CC-PVTZ
    Blend: AUG-CC-PVTZ
  Basis Set: (AUG-CC-PVTZ AUX)
    Blend: AUG-CC-PVTZ-JKFIT
	 Reference Energy          =    -683.6027581299836129 [Eh]
	 Singles Energy            =      -0.0000000000000000 [Eh]
	 Same-Spin Energy          =      -0.6655112822994833 [Eh]
	 Opposite-Spin Energy      =      -2.0452173152693058 [Eh]
	 Correlation Energy        =      -2.7107285975687891 [Eh]
	 Total Energy              =    -686.3134867275524584 [Eh]

	 ================> DF-SCS-MP2 Energies <==================
	-----------------------------------------------------------
	 SCS Same-Spin Scale       =       0.3333333333333333 [-]
	 SCS Opposite-Spin Scale   =       1.2000000000000000 [-]
	 SCS Same-Spin Energy      =      -0.2218370940998278 [Eh]
	 SCS Opposite-Spin Energy  =      -2.4542607783231669 [Eh]
	 SCS Correlation Energy    =      -2.6760978724229947 [Eh]
	 SCS Total Energy          =    -686.2788560024066555 [Eh]
	-----------------------------------------------------------

  Dipole Moment: [D]
     X:     0.2459      Y:     1.6227      Z:     1.3291     Total:     2.1119

*** Psi4 exiting successfully. Buy a developer a beer!
