                               Psi4 1.3.2 release

  ==> Input File <==

--------------------------------------------------------------------------
#psi4
#
memory 32 gb

molecule  {
0 1
  O       -0.7087550    -1.1193400    -0.2546710
  O       -0.7529000     2.5454980     0.2011280
  O        1.9863450     1.9788980    -0.3426730
  O        2.9116540    -0.6744470     0.1695670
  O        0.9157630    -2.7262860    -0.0672430
  O       -3.4138550    -0.8877920     0.1899090
  C       -0.3205170     1.2520290    -0.2382820
  C        1.2402577     1.1411949     0.1243877
  C       -1.2273170     0.1250620     0.2312770
  C        1.5822600    -0.3816350    -0.2226430
  C        0.5842790    -1.4279170     0.2862350
  C       -2.6461720     0.2016390    -0.2964840
  H       -0.3421210     1.3021240    -1.3326030
  H        1.1389810     1.0438400     1.3116400
  H       -1.2614020     0.1027960     1.3365120
  H        1.5823060    -0.4261990    -1.3195550
  H        0.5265370    -1.4152780     1.3862880
  H       -2.6088310     0.2173240    -1.3960300
  H       -3.1281770     1.1200080     0.0454480
  H       -0.8264260     2.5110960     1.1737150
  H        1.5069660     2.8252470    -0.2509780
  H        3.0031740    -0.4532420     1.1134330
  H        1.2543330    -2.7122130    -0.9803670
  H       -2.8912910    -1.6827110    -0.0238270
units angstrom
no_reorient  #important for SAPT in psi4, default
symmetry c1  #important for SAPT in psi4, default
}

set PROPERTIES_ORIGIN ["COM"]
properties('MP2/aug-cc-pvtz', properties = ['dipole'])
--------------------------------------------------------------------------

    Molecular point group: c1
  Charge       = 0
  Multiplicity = 1
  Basis Set: AUG-CC-PVTZ
    Blend: AUG-CC-PVTZ
  Basis Set: (AUG-CC-PVTZ AUX)
    Blend: AUG-CC-PVTZ-JKFIT

    Orbital Energies [Eh]
    ---------------------

    Doubly Occupied:

       1A    -20.603004     2A    -20.593620     3A    -20.584166
       4A    -20.582604     5A    -20.572822     6A    -20.561257
       7A    -11.355322     8A    -11.319473     9A    -11.306574
      10A    -11.304414    11A    -11.300401    12A    -11.285929
      13A     -1.494755    14A     -1.435089    15A     -1.390876
      16A     -1.376285    17A     -1.367825    18A     -1.350638
      19A     -1.059708    20A     -1.037541    21A     -0.937381
      22A     -0.895602    23A     -0.854341    24A     -0.837590
      25A     -0.776376    26A     -0.739022    27A     -0.719748
      28A     -0.704299    29A     -0.700115    30A     -0.696542
      31A     -0.673276    32A     -0.656425    33A     -0.626841
      34A     -0.615515    35A     -0.600842    36A     -0.588726
      37A     -0.586173    38A     -0.563475    39A     -0.553445
      40A     -0.549679    41A     -0.524754    42A     -0.513764
      43A     -0.493847    44A     -0.482275    45A     -0.454752
      46A     -0.446385    47A     -0.425306    48A     -0.413576

  @DF-RHF Final Energy:  -683.55639037367735

   => Energetics <=

    Nuclear Repulsion Energy =            823.8859553560462246
    One-Electron Energy =               -2575.8599375938501908
    Two-Electron Energy =                1068.4175918641267344
    Total Energy =                       -683.5563903736772318
  Basis Set: (AUG-CC-PVTZ AUX)
    Blend: AUG-CC-PVTZ-RI
    Molecular point group: c1

    Geometry (in Angstrom), charge = 0, multiplicity = 1:

       Center              X                  Y                   Z               Mass
    ------------   -----------------  -----------------  -----------------  -----------------
         O           -0.728185870628    -1.115148655184    -0.243689803163    15.994914619570
         O           -0.772330870628     2.549689344816     0.212109196837    15.994914619570
         O            1.966914129372     1.983089344816    -0.331691803163    15.994914619570
         O            2.892223129372    -0.670255655184     0.180548196837    15.994914619570
         O            0.896332129372    -2.722094655184    -0.056261803163    15.994914619570
         O           -3.433285870628    -0.883600655184     0.200890196837    15.994914619570
         C           -0.339947870628     1.256220344816    -0.227300803163    12.000000000000
         C            1.220826829372     1.145386244816     0.135368896837    12.000000000000
         C           -1.246747870628     0.129253344816     0.242258196837    12.000000000000
         C            1.562829129372    -0.377443655184    -0.211661803163    12.000000000000
         C            0.564848129372    -1.423725655184     0.297216196837    12.000000000000
         C           -2.665602870628     0.205830344816    -0.285502803163    12.000000000000
         H           -0.361551870628     1.306315344816    -1.321621803163     1.007825032230
         H            1.119550129372     1.048031344816     1.322621196837     1.007825032230
         H           -1.280832870628     0.106987344816     1.347493196837     1.007825032230
         H            1.562875129372    -0.422007655184    -1.308573803163     1.007825032230
         H            0.507106129372    -1.411086655184     1.397269196837     1.007825032230
         H           -2.628261870628     0.221515344816    -1.385048803163     1.007825032230
         H           -3.147607870628     1.124199344816     0.056429196837     1.007825032230
         H           -0.845856870628     2.515287344816     1.184696196837     1.007825032230
         H            1.487535129372     2.829438344816    -0.239996803163     1.007825032230
         H            2.983743129372    -0.449050655184     1.124414196837     1.007825032230
         H            1.234902129372    -2.708021655184    -0.969385803163     1.007825032230
         H           -2.910721870628    -1.678519655184    -0.012845803163     1.007825032230

  Basis Set: AUG-CC-PVTZ
    Blend: AUG-CC-PVTZ
  Basis Set: (AUG-CC-PVTZ AUX)
    Blend: AUG-CC-PVTZ-JKFIT
	 Reference Energy          =    -683.5563903736773455 [Eh]
	 Singles Energy            =      -0.0000000000000000 [Eh]
	 Same-Spin Energy          =      -0.6663050676199216 [Eh]
	 Opposite-Spin Energy      =      -2.0442805594712161 [Eh]
	 Correlation Energy        =      -2.7105856270911377 [Eh]
	 Total Energy              =    -686.2669760007685227 [Eh]

	 ================> DF-SCS-MP2 Energies <==================
	-----------------------------------------------------------
	 SCS Same-Spin Scale       =       0.3333333333333333 [-]
	 SCS Opposite-Spin Scale   =       1.2000000000000000 [-]
	 SCS Same-Spin Energy      =      -0.2221016892066405 [Eh]
	 SCS Opposite-Spin Energy  =      -2.4531366713654594 [Eh]
	 SCS Correlation Energy    =      -2.6752383605721000 [Eh]
	 SCS Total Energy          =    -686.2316287342493979 [Eh]
	-----------------------------------------------------------

  Dipole Moment: [D]
     X:     0.6855      Y:     2.2136      Z:     0.9458     Total:     2.5029

*** Psi4 exiting successfully. Buy a developer a beer!
