                               Psi4 1.3.2 release

  ==> Input File <==

--------------------------------------------------------------------------
#psi4
#
memory 32 gb

molecule  {
0 1
  O       -0.7087550    -1.1193400    -0.2546710
  O       -0.7529000     2.5454980     0.2011280
  O        1.9863450     1.9788980    -0.3426730
  O        2.9116540    -0.6744470     0.1695670
  O        0.9157630    -2.7262860    -0.0672430
  O       -3.4909120    -0.8515628     0.1393550
  C       -0.3205170     1.2520290    -0.2382820
  C        1.1174580     1.0033160     0.2012620
  C       -1.2273170     0.1250620     0.2312770
  C        1.5822600    -0.3816350    -0.2226430
  C        0.5842790    -1.4279170     0.2862350
  C       -2.6461720     0.2016390    -0.2964840
  H       -0.3421210     1.3021240    -1.3326030
  H        1.1389810     1.0438400     1.3116400
  H       -1.2614020     0.1027960     1.3365120
  H        1.5823060    -0.4261990    -1.3195550
  H        0.5265370    -1.4152780     1.3862880
  H       -2.6088310     0.2173240    -1.3960300
  H       -3.1281770     1.1200080     0.0454480
  H       -0.8264260     2.5110960     1.1737150
  H        1.5069660     2.8252470    -0.2509780
  H        3.0031740    -0.4532420     1.1134330
  H        1.2543330    -2.7122130    -0.9803670
  H       -2.8912910    -1.6827110    -0.0238270
units angstrom
no_reorient  #important for SAPT in psi4, default
symmetry c1  #important for SAPT in psi4, default
}

set PROPERTIES_ORIGIN ["COM"]
properties('MP2/aug-cc-pvtz', properties = ['dipole'])
--------------------------------------------------------------------------

    Molecular point group: c1
  Charge       = 0
  Multiplicity = 1
  Basis Set: AUG-CC-PVTZ
    Blend: AUG-CC-PVTZ
  Basis Set: (AUG-CC-PVTZ AUX)
    Blend: AUG-CC-PVTZ-JKFIT

    Orbital Energies [Eh]
    ---------------------

    Doubly Occupied:

       1A    -20.598898     2A    -20.590404     3A    -20.584743
       4A    -20.580097     5A    -20.578396     6A    -20.569187
       7A    -11.358096     8A    -11.312152     9A    -11.310904
      10A    -11.310467    11A    -11.306088    12A    -11.285532
      13A     -1.441309    14A     -1.405843    15A     -1.388175
      16A     -1.370734    17A     -1.365828    18A     -1.347272
      19A     -1.081952    20A     -1.051499    21A     -0.943983
      22A     -0.892278    23A     -0.852971    24A     -0.842477
      25A     -0.754377    26A     -0.730141    27A     -0.721409
      28A     -0.709676    29A     -0.690322    30A     -0.675947
      31A     -0.658110    32A     -0.652258    33A     -0.620688
      34A     -0.616545    35A     -0.594374    36A     -0.586717
      37A     -0.570294    38A     -0.563174    39A     -0.557273
      40A     -0.543979    41A     -0.527505    42A     -0.517931
      43A     -0.504427    44A     -0.486154    45A     -0.475342
      46A     -0.459762    47A     -0.447410    48A     -0.432836

  @DF-RHF Final Energy:  -683.59535705700955

   => Energetics <=

    Nuclear Repulsion Energy =            823.1985124130407030
    One-Electron Energy =               -2574.6558779223769307
    Two-Electron Energy =                1067.8620084523267906
    Total Energy =                       -683.5953570570095508
  Basis Set: (AUG-CC-PVTZ AUX)
    Blend: AUG-CC-PVTZ-RI
    Molecular point group: c1

    Geometry (in Angstrom), charge = 0, multiplicity = 1:

       Center              X                  Y                   Z               Mass
    ------------   -----------------  -----------------  -----------------  -----------------
         O           -0.713157182318    -1.109178180839    -0.244322273137    15.994914619570
         O           -0.757302182318     2.555659819161     0.211476726863    15.994914619570
         O            1.981942817682     1.989059819161    -0.332324273137    15.994914619570
         O            2.907251817682    -0.664285180839     0.179915726863    15.994914619570
         O            0.911360817682    -2.716124180839    -0.056894273137    15.994914619570
         O           -3.495314182318    -0.841400980839     0.149703726863    15.994914619570
         C           -0.324919182318     1.262190819161    -0.227933273137    12.000000000000
         C            1.113055817682     1.013477819161     0.211610726863    12.000000000000
         C           -1.231719182318     0.135223819161     0.241625726863    12.000000000000
         C            1.577857817682    -0.371473180839    -0.212294273137    12.000000000000
         C            0.579876817682    -1.417755180839     0.296583726863    12.000000000000
         C           -2.650574182318     0.211800819161    -0.286135273137    12.000000000000
         H           -0.346523182318     1.312285819161    -1.322254273137     1.007825032230
         H            1.134578817682     1.054001819161     1.321988726863     1.007825032230
         H           -1.265804182318     0.112957819161     1.346860726863     1.007825032230
         H            1.577903817682    -0.416037180839    -1.309206273137     1.007825032230
         H            0.522134817682    -1.405116180839     1.396636726863     1.007825032230
         H           -2.613233182318     0.227485819161    -1.385681273137     1.007825032230
         H           -3.132579182318     1.130169819161     0.055796726863     1.007825032230
         H           -0.830828182318     2.521257819161     1.184063726863     1.007825032230
         H            1.502563817682     2.835408819161    -0.240629273137     1.007825032230
         H            2.998771817682    -0.443080180839     1.123781726863     1.007825032230
         H            1.249930817682    -2.702051180839    -0.970018273137     1.007825032230
         H           -2.895693182318    -1.672549180839    -0.013478273137     1.007825032230

  Basis Set: AUG-CC-PVTZ
    Blend: AUG-CC-PVTZ
  Basis Set: (AUG-CC-PVTZ AUX)
    Blend: AUG-CC-PVTZ-JKFIT
	 Reference Energy          =    -683.5953570570095508 [Eh]
	 Singles Energy            =      -0.0000000000000000 [Eh]
	 Same-Spin Energy          =      -0.6663473169189171 [Eh]
	 Opposite-Spin Energy      =      -2.0472149494352800 [Eh]
	 Correlation Energy        =      -2.7135622663541970 [Eh]
	 Total Energy              =    -686.3089193233637388 [Eh]

	 ================> DF-SCS-MP2 Energies <==================
	-----------------------------------------------------------
	 SCS Same-Spin Scale       =       0.3333333333333333 [-]
	 SCS Opposite-Spin Scale   =       1.2000000000000000 [-]
	 SCS Same-Spin Energy      =      -0.2221157723063057 [Eh]
	 SCS Opposite-Spin Energy  =      -2.4566579393223358 [Eh]
	 SCS Correlation Energy    =      -2.6787737116286414 [Eh]
	 SCS Total Energy          =    -686.2741307686382015 [Eh]
	-----------------------------------------------------------

  Dipole Moment: [D]
     X:     0.4126      Y:     1.5544      Z:     1.5025     Total:     2.2009

*** Psi4 exiting successfully. Buy a developer a beer!
