                               Psi4 1.3.2 release

  ==> Input File <==

--------------------------------------------------------------------------
#psi4
#
memory 32 gb

molecule  {
0 1
  O       -0.7087550    -1.1193400    -0.2546710
  O       -0.8296418     2.5004652     0.2467923
  O        1.9863450     1.9788980    -0.3426730
  O        2.9116540    -0.6744470     0.1695670
  O        0.9157630    -2.7262860    -0.0672430
  O       -3.4138550    -0.8877920     0.1899090
  C       -0.3205170     1.2520290    -0.2382820
  C        1.1174580     1.0033160     0.2012620
  C       -1.2273170     0.1250620     0.2312770
  C        1.5822600    -0.3816350    -0.2226430
  C        0.5842790    -1.4279170     0.2862350
  C       -2.6461720     0.2016390    -0.2964840
  H       -0.3421210     1.3021240    -1.3326030
  H        1.1389810     1.0438400     1.3116400
  H       -1.2614020     0.1027960     1.3365120
  H        1.5823060    -0.4261990    -1.3195550
  H        0.5265370    -1.4152780     1.3862880
  H       -2.6088310     0.2173240    -1.3960300
  H       -3.1281770     1.1200080     0.0454480
  H       -0.8264260     2.5110960     1.1737150
  H        1.5069660     2.8252470    -0.2509780
  H        3.0031740    -0.4532420     1.1134330
  H        1.2543330    -2.7122130    -0.9803670
  H       -2.8912910    -1.6827110    -0.0238270
units angstrom
no_reorient  #important for SAPT in psi4, default
symmetry c1  #important for SAPT in psi4, default
}

set PROPERTIES_ORIGIN ["COM"]
properties('MP2/aug-cc-pvtz', properties = ['dipole'])
--------------------------------------------------------------------------

    Molecular point group: c1
  Charge       = 0
  Multiplicity = 1
  Basis Set: AUG-CC-PVTZ
    Blend: AUG-CC-PVTZ
  Basis Set: (AUG-CC-PVTZ AUX)
    Blend: AUG-CC-PVTZ-JKFIT

    Orbital Energies [Eh]
    ---------------------

    Doubly Occupied:

       1A    -20.591205     2A    -20.586317     3A    -20.583513
       4A    -20.580283     5A    -20.580208     6A    -20.561294
       7A    -11.356600     8A    -11.312134     9A    -11.311290
      10A    -11.306242    11A    -11.305224    12A    -11.285216
      13A     -1.439529    14A     -1.410327    15A     -1.390348
      16A     -1.373808    17A     -1.367747    18A     -1.351864
      19A     -1.082684    20A     -1.050549    21A     -0.946553
      22A     -0.893787    23A     -0.854484    24A     -0.843395
      25A     -0.755144    26A     -0.728990    27A     -0.721242
      28A     -0.716685    29A     -0.694967    30A     -0.674443
      31A     -0.659992    32A     -0.655582    33A     -0.620007
      34A     -0.617389    35A     -0.597466    36A     -0.586473
      37A     -0.570889    38A     -0.561639    39A     -0.557101
      40A     -0.547426    41A     -0.525402    42A     -0.515206
      43A     -0.501805    44A     -0.486607    45A     -0.475029
      46A     -0.461983    47A     -0.446742    48A     -0.430001

  @DF-RHF Final Energy:  -683.60418569411013

   => Energetics <=

    Nuclear Repulsion Energy =            825.1449000957978797
    One-Electron Energy =               -2578.5525534077141856
    Two-Electron Energy =                1069.8034676178062909
    Total Energy =                       -683.6041856941101287
  Basis Set: (AUG-CC-PVTZ AUX)
    Blend: AUG-CC-PVTZ-RI
    Molecular point group: c1

    Geometry (in Angstrom), charge = 0, multiplicity = 1:

       Center              X                  Y                   Z               Mass
    ------------   -----------------  -----------------  -----------------  -----------------
         O           -0.713185181331    -1.101959729795    -0.252869282662    15.994914619570
         O           -0.834071981331     2.517845470205     0.248594017338    15.994914619570
         O            1.981914818669     1.996278270205    -0.340871282662    15.994914619570
         O            2.907223818669    -0.657066729795     0.171368717338    15.994914619570
         O            0.911332818669    -2.708905729795    -0.065441282662    15.994914619570
         O           -3.418285181331    -0.870411729795     0.191710717338    15.994914619570
         C           -0.324947181331     1.269409270205    -0.236480282662    12.000000000000
         C            1.113027818669     1.020696270205     0.203063717338    12.000000000000
         C           -1.231747181331     0.142442270205     0.233078717338    12.000000000000
         C            1.577829818669    -0.364254729795    -0.220841282662    12.000000000000
         C            0.579848818669    -1.410536729795     0.288036717338    12.000000000000
         C           -2.650602181331     0.219019270205    -0.294682282662    12.000000000000
         H           -0.346551181331     1.319504270205    -1.330801282662     1.007825032230
         H            1.134550818669     1.061220270205     1.313441717338     1.007825032230
         H           -1.265832181331     0.120176270205     1.338313717338     1.007825032230
         H            1.577875818669    -0.408818729795    -1.317753282662     1.007825032230
         H            0.522106818669    -1.397897729795     1.388089717338     1.007825032230
         H           -2.613261181331     0.234704270205    -1.394228282662     1.007825032230
         H           -3.132607181331     1.137388270205     0.047249717338     1.007825032230
         H           -0.830856181331     2.528476270205     1.175516717338     1.007825032230
         H            1.502535818669     2.842627270205    -0.249176282662     1.007825032230
         H            2.998743818669    -0.435861729795     1.115234717338     1.007825032230
         H            1.249902818669    -2.694832729795    -0.978565282662     1.007825032230
         H           -2.895721181331    -1.665330729795    -0.022025282662     1.007825032230

  Basis Set: AUG-CC-PVTZ
    Blend: AUG-CC-PVTZ
  Basis Set: (AUG-CC-PVTZ AUX)
    Blend: AUG-CC-PVTZ-JKFIT
	 Reference Energy          =    -683.6041856941101287 [Eh]
	 Singles Energy            =      -0.0000000000000000 [Eh]
	 Same-Spin Energy          =      -0.6646984461383755 [Eh]
	 Opposite-Spin Energy      =      -2.0430838123332977 [Eh]
	 Correlation Energy        =      -2.7077822584716733 [Eh]
	 Total Energy              =    -686.3119679525817673 [Eh]

	 ================> DF-SCS-MP2 Energies <==================
	-----------------------------------------------------------
	 SCS Same-Spin Scale       =       0.3333333333333333 [-]
	 SCS Opposite-Spin Scale   =       1.2000000000000000 [-]
	 SCS Same-Spin Energy      =      -0.2215661487127918 [Eh]
	 SCS Opposite-Spin Energy  =      -2.4517005747999572 [Eh]
	 SCS Correlation Energy    =      -2.6732667235127492 [Eh]
	 SCS Total Energy          =    -686.2774524176228397 [Eh]
	-----------------------------------------------------------

  Dipole Moment: [D]
     X:     0.4437      Y:     1.6925      Z:     1.3200     Total:     2.1918

*** Psi4 exiting successfully. Buy a developer a beer!
