                               Psi4 1.3.2 release

  ==> Input File <==

--------------------------------------------------------------------------
#psi4
#
memory 32 gb

molecule  {
0 1
  O       -0.7087550    -1.1193400    -0.2546710
  O       -0.7529000     2.5454980     0.2011280
  O        1.9863450     1.9788980    -0.3426730
  O        2.9116540    -0.6744470     0.1695670
  O        0.9157630    -2.7262860    -0.0672430
  O       -3.4138550    -0.8877920     0.1899090
  C       -0.2423805     1.2077276    -0.1817141
  C        1.1174580     1.0033160     0.2012620
  C       -1.2273170     0.1250620     0.2312770
  C        1.5822600    -0.3816350    -0.2226430
  C        0.5842790    -1.4279170     0.2862350
  C       -2.6461720     0.2016390    -0.2964840
  H       -0.3421210     1.3021240    -1.3326030
  H        1.1389810     1.0438400     1.3116400
  H       -1.2614020     0.1027960     1.3365120
  H        1.5823060    -0.4261990    -1.3195550
  H        0.5265370    -1.4152780     1.3862880
  H       -2.6088310     0.2173240    -1.3960300
  H       -3.1281770     1.1200080     0.0454480
  H       -0.8264260     2.5110960     1.1737150
  H        1.5069660     2.8252470    -0.2509780
  H        3.0031740    -0.4532420     1.1134330
  H        1.2543330    -2.7122130    -0.9803670
  H       -2.8912910    -1.6827110    -0.0238270
units angstrom
no_reorient  #important for SAPT in psi4, default
symmetry c1  #important for SAPT in psi4, default
}

set PROPERTIES_ORIGIN ["COM"]
properties('MP2/aug-cc-pvtz', properties = ['dipole'])
--------------------------------------------------------------------------

    Molecular point group: c1
  Charge       = 0
  Multiplicity = 1
  Basis Set: AUG-CC-PVTZ
    Blend: AUG-CC-PVTZ
  Basis Set: (AUG-CC-PVTZ AUX)
    Blend: AUG-CC-PVTZ-JKFIT

    Orbital Energies [Eh]
    ---------------------

    Doubly Occupied:

       1A    -20.595157     2A    -20.588393     3A    -20.585029
       4A    -20.581173     5A    -20.580031     6A    -20.564915
       7A    -11.358483     8A    -11.313235     9A    -11.311083
      10A    -11.309169    11A    -11.308075    12A    -11.289633
      13A     -1.441588    14A     -1.401443    15A     -1.386125
      16A     -1.371637    17A     -1.364341    18A     -1.354600
      19A     -1.097885    20A     -1.051298    21A     -0.953497
      22A     -0.889694    23A     -0.860995    24A     -0.836509
      25A     -0.755324    26A     -0.731503    27A     -0.727115
      28A     -0.702108    29A     -0.695190    30A     -0.679627
      31A     -0.662662    32A     -0.656854    33A     -0.617555
      34A     -0.609339    35A     -0.592850    36A     -0.588289
      37A     -0.576153    38A     -0.562434    39A     -0.553111
      40A     -0.533609    41A     -0.527257    42A     -0.516531
      43A     -0.501197    44A     -0.488773    45A     -0.473259
      46A     -0.471129    47A     -0.453660    48A     -0.434404

  @DF-RHF Final Energy:  -683.58856412130774

   => Energetics <=

    Nuclear Repulsion Energy =            825.7737472028819639
    One-Electron Energy =               -2579.7167763608249516
    Two-Electron Energy =                1070.3544650366350197
    Total Energy =                       -683.5885641213078543
  Basis Set: (AUG-CC-PVTZ AUX)
    Blend: AUG-CC-PVTZ-RI
    Molecular point group: c1

    Geometry (in Angstrom), charge = 0, multiplicity = 1:

       Center              X                  Y                   Z               Mass
    ------------   -----------------  -----------------  -----------------  -----------------
         O           -0.725209372154    -1.103007577406    -0.252582818100    15.994914619570
         O           -0.769354372154     2.561830422594     0.203216181900    15.994914619570
         O            1.969890627846     1.995230422594    -0.340584818100    15.994914619570
         O            2.895199627846    -0.658114577406     0.171655181900    15.994914619570
         O            0.899308627846    -2.709953577406    -0.065154818100    15.994914619570
         O           -3.430309372154    -0.871459577406     0.191997181900    15.994914619570
         C           -0.258834872154     1.224060022594    -0.179625918100    12.000000000000
         C            1.101003627846     1.019648422594     0.203350181900    12.000000000000
         C           -1.243771372154     0.141394422594     0.233365181900    12.000000000000
         C            1.565805627846    -0.365302577406    -0.220554818100    12.000000000000
         C            0.567824627846    -1.411584577406     0.288323181900    12.000000000000
         C           -2.662626372154     0.217971422594    -0.294395818100    12.000000000000
         H           -0.358575372154     1.318456422594    -1.330514818100     1.007825032230
         H            1.122526627846     1.060172422594     1.313728181900     1.007825032230
         H           -1.277856372154     0.119128422594     1.338600181900     1.007825032230
         H            1.565851627846    -0.409866577406    -1.317466818100     1.007825032230
         H            0.510082627846    -1.398945577406     1.388376181900     1.007825032230
         H           -2.625285372154     0.233656422594    -1.393941818100     1.007825032230
         H           -3.144631372154     1.136340422594     0.047536181900     1.007825032230
         H           -0.842880372154     2.527428422594     1.175803181900     1.007825032230
         H            1.490511627846     2.841579422594    -0.248889818100     1.007825032230
         H            2.986719627846    -0.436909577406     1.115521181900     1.007825032230
         H            1.237878627846    -2.695880577406    -0.978278818100     1.007825032230
         H           -2.907745372154    -1.666378577406    -0.021738818100     1.007825032230

  Basis Set: AUG-CC-PVTZ
    Blend: AUG-CC-PVTZ
  Basis Set: (AUG-CC-PVTZ AUX)
    Blend: AUG-CC-PVTZ-JKFIT
	 Reference Energy          =    -683.5885641213077406 [Eh]
	 Singles Energy            =      -0.0000000000000000 [Eh]
	 Same-Spin Energy          =      -0.6668860978111022 [Eh]
	 Opposite-Spin Energy      =      -2.0475370231149643 [Eh]
	 Correlation Energy        =      -2.7144231209260665 [Eh]
	 Total Energy              =    -686.3029872422338258 [Eh]

	 ================> DF-SCS-MP2 Energies <==================
	-----------------------------------------------------------
	 SCS Same-Spin Scale       =       0.3333333333333333 [-]
	 SCS Opposite-Spin Scale   =       1.2000000000000000 [-]
	 SCS Same-Spin Energy      =      -0.2222953659370341 [Eh]
	 SCS Opposite-Spin Energy  =      -2.4570444277379573 [Eh]
	 SCS Correlation Energy    =      -2.6793397936749912 [Eh]
	 SCS Total Energy          =    -686.2679039149827531 [Eh]
	-----------------------------------------------------------

  Dipole Moment: [D]
     X:     0.3107      Y:     1.4161      Z:     1.3918     Total:     2.0097

*** Psi4 exiting successfully. Buy a developer a beer!
