                               Psi4 1.4a3.dev225

  ==> Input File <==

--------------------------------------------------------------------------
#psi4
#
memory 32 gb

molecule  {
0 1
  O       -0.7087730    -1.1193010    -0.2547420
  O       -0.7528450     2.5455330     0.2012150
  O        1.9863940     1.9788490    -0.3427120
  O        2.9116460    -0.6744970     0.1694850
  O        0.9156910    -2.7263170    -0.0671110
  O       -3.4138470    -0.8877920     0.1898460
  C       -0.3205030     1.2520640    -0.2382550
  C        1.1174820     1.0032940     0.2012350
  C       -1.2273260     0.1250970     0.2312670
  C        1.5822430    -0.3816820    -0.2226620
  C        0.5842200    -1.4279110     0.2862640
  C       -2.6929886     0.2042259    -0.3138680
  H       -0.3421180     1.3022200    -1.3325700
  H        1.1390340     1.0438120     1.3116130
  H       -1.2614040     0.1027740     1.3364960
  H        1.5822050    -0.4262820    -1.3195710
  H        0.5263940    -1.4152120     1.3863080
  H       -2.6088500     0.2174640    -1.3960030
  H       -3.1281860     1.1200450     0.0455410
  H       -0.8261980     2.5111300     1.1738140
  H        1.5071200     2.8252430    -0.2509020
  H        3.0032160    -0.4533580     1.1133610
  H        1.2544120    -2.7122960    -0.9801810
  H       -2.8913510    -1.6827050    -0.0240770
units angstrom
no_reorient  #important for SAPT in psi4, default
symmetry c1  #important for SAPT in psi4, default
}

set PROPERTIES_ORIGIN ["COM"]
properties('MP2/aug-cc-pvtz', properties = ['dipole'])
--------------------------------------------------------------------------

    Molecular point group: c1
  Charge       = 0
  Multiplicity = 1
  Basis Set: AUG-CC-PVTZ
    Blend: AUG-CC-PVTZ
  Basis Set: (AUG-CC-PVTZ AUX)
    Blend: AUG-CC-PVTZ-JKFIT

    Orbital Energies [Eh]
    ---------------------

    Doubly Occupied:

       1A    -20.597535     2A    -20.587781     3A    -20.583337
       4A    -20.578724     5A    -20.576695     6A    -20.563879
       7A    -11.356293     8A    -11.309252     9A    -11.308626
      10A    -11.307632    11A    -11.304463    12A    -11.287682
      13A     -1.439116    14A     -1.404220    15A     -1.387263
      16A     -1.374565    17A     -1.365639    18A     -1.355453
      19A     -1.078782    20A     -1.044846    21A     -0.943978
      22A     -0.890181    23A     -0.856341    24A     -0.841808
      25A     -0.753103    26A     -0.728511    27A     -0.720076
      28A     -0.709543    29A     -0.693657    30A     -0.672010
      31A     -0.662637    32A     -0.654713    33A     -0.620240
      34A     -0.616639    35A     -0.603626    36A     -0.587446
      37A     -0.570080    38A     -0.561521    39A     -0.555194
      40A     -0.542594    41A     -0.526287    42A     -0.516027
      43A     -0.502646    44A     -0.487597    45A     -0.473429
      46A     -0.462716    47A     -0.441925    48A     -0.427558

  @DF-RHF Final Energy:  -683.60244719973502

   => Energetics <=

    Nuclear Repulsion Energy =            823.7867239970323681
    One-Electron Energy =               -2575.9106061596976360
    Two-Electron Energy =                1068.5214349629302433
    Total Energy =                       -683.6024471997350247
  Basis Set: (AUG-CC-PVTZ AUX)
    Blend: AUG-CC-PVTZ-RI
    Molecular point group: c1

    Geometry (in Angstrom), charge = 0, multiplicity = 1:

       Center              X                  Y                   Z               Mass
    ------------   -----------------  -----------------  -----------------  -----------------
         O           -0.716899468706    -1.106089096392    -0.247723085489    15.994914619570
         O           -0.760971468706     2.558744903608     0.208233914511    15.994914619570
         O            1.978267531294     1.992060903608    -0.335693085489    15.994914619570
         O            2.903519531294    -0.661285096392     0.176503914511    15.994914619570
         O            0.907564531294    -2.713105096392    -0.060092085489    15.994914619570
         O           -3.421973468706    -0.874580096392     0.196864914511    15.994914619570
         C           -0.328629468706     1.265275903608    -0.231236085489    12.000000000000
         C            1.109355531294     1.016505903608     0.208253914511    12.000000000000
         C           -1.235452468706     0.138308903608     0.238285914511    12.000000000000
         C            1.574116531294    -0.368470096392    -0.215643085489    12.000000000000
         C            0.576093531294    -1.414699096392     0.293282914511    12.000000000000
         C           -2.701115068706     0.217437803608    -0.306849085489    12.000000000000
         H           -0.350244468706     1.315431903608    -1.325551085489     1.007825032230
         H            1.130907531294     1.057023903608     1.318631914511     1.007825032230
         H           -1.269530468706     0.115985903608     1.343514914511     1.007825032230
         H            1.574078531294    -0.413070096392    -1.312552085489     1.007825032230
         H            0.518267531294    -1.402000096392     1.393326914511     1.007825032230
         H           -2.616976468706     0.230675903608    -1.388984085489     1.007825032230
         H           -3.136312468706     1.133256903608     0.052559914511     1.007825032230
         H           -0.834324468706     2.524341903608     1.180832914511     1.007825032230
         H            1.498993531294     2.838454903608    -0.243883085489     1.007825032230
         H            2.995089531294    -0.440146096392     1.120379914511     1.007825032230
         H            1.246285531294    -2.699084096392    -0.973162085489     1.007825032230
         H           -2.899477468706    -1.669493096392    -0.017058085489     1.007825032230

  Basis Set: AUG-CC-PVTZ
    Blend: AUG-CC-PVTZ
  Basis Set: (AUG-CC-PVTZ AUX)
    Blend: AUG-CC-PVTZ-JKFIT
	 Reference Energy          =    -683.6024471997350247 [Eh]
	 Singles Energy            =      -0.0000000000000000 [Eh]
	 Same-Spin Energy          =      -0.6651864898073758 [Eh]
	 Opposite-Spin Energy      =      -2.0443871142319576 [Eh]
	 Correlation Energy        =      -2.7095736040393334 [Eh]
	 Total Energy              =    -686.3120208037743168 [Eh]

	 ================> DF-SCS-MP2 Energies <==================
	-----------------------------------------------------------
	 SCS Same-Spin Scale       =       0.3333333333333333 [-]
	 SCS Opposite-Spin Scale   =       1.2000000000000000 [-]
	 SCS Same-Spin Energy      =      -0.2217288299357919 [Eh]
	 SCS Opposite-Spin Energy  =      -2.4532645370783492 [Eh]
	 SCS Correlation Energy    =      -2.6749933670141410 [Eh]
	 SCS Total Energy          =    -686.2774405667491919 [Eh]
	-----------------------------------------------------------

  Dipole Moment: [D]
     X:     0.1157      Y:     1.5586      Z:     1.3518     Total:     2.0663

*** Psi4 exiting successfully. Buy a developer a beer!
