                               Psi4 1.3.2 release

  ==> Input File <==

--------------------------------------------------------------------------
#psi4
#
memory 32 gb

molecule  {
0 1
  O       -0.7087550    -1.1193400    -0.2546710
  O       -0.7529000     2.5454980     0.2011280
  O        1.9863450     1.9788980    -0.3426730
  O        2.9116540    -0.6744470     0.1695670
  O        0.9157630    -2.7262860    -0.0672430
  O       -3.4138550    -0.8877920     0.1899090
  C       -0.3005534     1.2414604    -0.2243439
  C        1.1174580     1.0033160     0.2012620
  C       -1.2273170     0.1250620     0.2312770
  C        1.5822600    -0.3816350    -0.2226430
  C        0.5842790    -1.4279170     0.2862350
  C       -2.6461720     0.2016390    -0.2964840
  H       -0.3421210     1.3021240    -1.3326030
  H        1.1389810     1.0438400     1.3116400
  H       -1.2614020     0.1027960     1.3365120
  H        1.5823060    -0.4261990    -1.3195550
  H        0.5265370    -1.4152780     1.3862880
  H       -2.6088310     0.2173240    -1.3960300
  H       -3.1281770     1.1200080     0.0454480
  H       -0.8264260     2.5110960     1.1737150
  H        1.5069660     2.8252470    -0.2509780
  H        3.0031740    -0.4532420     1.1134330
  H        1.2543330    -2.7122130    -0.9803670
  H       -2.8912910    -1.6827110    -0.0238270
units angstrom
no_reorient  #important for SAPT in psi4, default
symmetry c1  #important for SAPT in psi4, default
}

set PROPERTIES_ORIGIN ["COM"]
properties('MP2/aug-cc-pvtz', properties = ['dipole'])
--------------------------------------------------------------------------

    Molecular point group: c1
  Charge       = 0
  Multiplicity = 1
  Basis Set: AUG-CC-PVTZ
    Blend: AUG-CC-PVTZ
  Basis Set: (AUG-CC-PVTZ AUX)
    Blend: AUG-CC-PVTZ-JKFIT

    Orbital Energies [Eh]
    ---------------------

    Doubly Occupied:

       1A    -20.597580     2A    -20.588490     3A    -20.584095
       4A    -20.579755     5A    -20.578100     6A    -20.563242
       7A    -11.357296     8A    -11.310991     9A    -11.309716
      10A    -11.308603    11A    -11.305844    12A    -11.287835
      13A     -1.440506    14A     -1.403534    15A     -1.387511
      16A     -1.372446    17A     -1.366050    18A     -1.353458
      19A     -1.084567    20A     -1.051147    21A     -0.947740
      22A     -0.890728    23A     -0.855985    24A     -0.840988
      25A     -0.754370    26A     -0.729916    27A     -0.722563
      28A     -0.708133    29A     -0.693610    30A     -0.675987
      31A     -0.660764    32A     -0.655462    33A     -0.618820
      34A     -0.613844    35A     -0.597135    36A     -0.587609
      37A     -0.571385    38A     -0.562204    39A     -0.555658
      40A     -0.541283    41A     -0.527257    42A     -0.516920
      43A     -0.502611    44A     -0.487513    45A     -0.474241
      46A     -0.464232    47A     -0.448770    48A     -0.432418

  @DF-RHF Final Energy:  -683.60246132831674

   => Energetics <=

    Nuclear Repulsion Energy =            824.9406936628189442
    One-Electron Energy =               -2578.1484918222458873
    Two-Electron Energy =                1069.6053368311102076
    Total Energy =                       -683.6024613283168492
  Basis Set: (AUG-CC-PVTZ AUX)
    Blend: AUG-CC-PVTZ-RI
    Molecular point group: c1

    Geometry (in Angstrom), charge = 0, multiplicity = 1:

       Center              X                  Y                   Z               Mass
    ------------   -----------------  -----------------  -----------------  -----------------
         O           -0.721332544069    -1.105255639071    -0.249741831904    15.994914619570
         O           -0.765477544069     2.559582360929     0.206057168096    15.994914619570
         O            1.973767455931     1.992982360929    -0.337743831904    15.994914619570
         O            2.899076455931    -0.660362639071     0.174496168096    15.994914619570
         O            0.903185455931    -2.712201639071    -0.062313831904    15.994914619570
         O           -3.426432544069    -0.873707639071     0.194838168096    15.994914619570
         C           -0.313130944069     1.255544760929    -0.219414731904    12.000000000000
         C            1.104880455931     1.017400360929     0.206191168096    12.000000000000
         C           -1.239894544069     0.139146360929     0.236206168096    12.000000000000
         C            1.569682455931    -0.367550639071    -0.217713831904    12.000000000000
         C            0.571701455931    -1.413832639071     0.291164168096    12.000000000000
         C           -2.658749544069     0.215723360929    -0.291554831904    12.000000000000
         H           -0.354698544069     1.316208360929    -1.327673831904     1.007825032230
         H            1.126403455931     1.057924360929     1.316569168096     1.007825032230
         H           -1.273979544069     0.116880360929     1.341441168096     1.007825032230
         H            1.569728455931    -0.412114639071    -1.314625831904     1.007825032230
         H            0.513959455931    -1.401193639071     1.391217168096     1.007825032230
         H           -2.621408544069     0.231408360929    -1.391100831904     1.007825032230
         H           -3.140754544069     1.134092360929     0.050377168096     1.007825032230
         H           -0.839003544069     2.525180360929     1.178644168096     1.007825032230
         H            1.494388455931     2.839331360929    -0.246048831904     1.007825032230
         H            2.990596455931    -0.439157639071     1.118362168096     1.007825032230
         H            1.241755455931    -2.698128639071    -0.975437831904     1.007825032230
         H           -2.903868544069    -1.668626639071    -0.018897831904     1.007825032230

  Basis Set: AUG-CC-PVTZ
    Blend: AUG-CC-PVTZ
  Basis Set: (AUG-CC-PVTZ AUX)
    Blend: AUG-CC-PVTZ-JKFIT
	 Reference Energy          =    -683.6024613283167355 [Eh]
	 Singles Energy            =      -0.0000000000000000 [Eh]
	 Same-Spin Energy          =      -0.6657023768127941 [Eh]
	 Opposite-Spin Energy      =      -2.0453293116946174 [Eh]
	 Correlation Energy        =      -2.7110316885074113 [Eh]
	 Total Energy              =    -686.3134930168241681 [Eh]

	 ================> DF-SCS-MP2 Energies <==================
	-----------------------------------------------------------
	 SCS Same-Spin Scale       =       0.3333333333333333 [-]
	 SCS Opposite-Spin Scale   =       1.2000000000000000 [-]
	 SCS Same-Spin Energy      =      -0.2219007922709313 [Eh]
	 SCS Opposite-Spin Energy  =      -2.4543951740335408 [Eh]
	 SCS Correlation Energy    =      -2.6762959663044721 [Eh]
	 SCS Total Energy          =    -686.2787572946211867 [Eh]
	-----------------------------------------------------------

  Dipole Moment: [D]
     X:     0.2420      Y:     1.5552      Z:     1.3741     Total:     2.0893

*** Psi4 exiting successfully. Buy a developer a beer!
