                               Psi4 1.3.2 release

  ==> Input File <==

--------------------------------------------------------------------------
#psi4
#
memory 32 gb

molecule  {
0 1
  O       -0.7087550    -1.1193400    -0.2546710
  O       -0.7529000     2.5454980     0.2011280
  O        1.9863450     1.9788980    -0.3426730
  O        2.9116540    -0.6744470     0.1695670
  O        0.9157630    -2.7262860    -0.0672430
  O       -3.4138550    -0.8877920     0.1899090
  C       -0.4458804     1.3081263    -0.3187614
  C        1.1174580     1.0033160     0.2012620
  C       -1.2273170     0.1250620     0.2312770
  C        1.5822600    -0.3816350    -0.2226430
  C        0.5842790    -1.4279170     0.2862350
  C       -2.6461720     0.2016390    -0.2964840
  H       -0.3421210     1.3021240    -1.3326030
  H        1.1389810     1.0438400     1.3116400
  H       -1.2614020     0.1027960     1.3365120
  H        1.5823060    -0.4261990    -1.3195550
  H        0.5265370    -1.4152780     1.3862880
  H       -2.6088310     0.2173240    -1.3960300
  H       -3.1281770     1.1200080     0.0454480
  H       -0.8264260     2.5110960     1.1737150
  H        1.5069660     2.8252470    -0.2509780
  H        3.0031740    -0.4532420     1.1134330
  H        1.2543330    -2.7122130    -0.9803670
  H       -2.8912910    -1.6827110    -0.0238270
units angstrom
no_reorient  #important for SAPT in psi4, default
symmetry c1  #important for SAPT in psi4, default
}

set PROPERTIES_ORIGIN ["COM"]
properties('MP2/aug-cc-pvtz', properties = ['dipole'])
--------------------------------------------------------------------------

    Molecular point group: c1
  Charge       = 0
  Multiplicity = 1
  Basis Set: AUG-CC-PVTZ
    Blend: AUG-CC-PVTZ
  Basis Set: (AUG-CC-PVTZ AUX)
    Blend: AUG-CC-PVTZ-JKFIT

    Orbital Energies [Eh]
    ---------------------

    Doubly Occupied:

       1A    -20.602924     2A    -20.589399     3A    -20.582194
       4A    -20.575844     5A    -20.573865     6A    -20.560012
       7A    -11.354833     8A    -11.311129     9A    -11.307112
      10A    -11.307033    11A    -11.300630    12A    -11.284927
      13A     -1.439161    14A     -1.418957    15A     -1.386120
      16A     -1.372503    17A     -1.363055    18A     -1.351285
      19A     -1.067927    20A     -1.048219    21A     -0.938425
      22A     -0.895401    23A     -0.848629    24A     -0.846383
      25A     -0.752255    26A     -0.729451    27A     -0.725740
      28A     -0.708413    29A     -0.694738    30A     -0.669171
      31A     -0.657583    32A     -0.651701    33A     -0.638223
      34A     -0.618043    35A     -0.599185    36A     -0.586227
      37A     -0.569404    38A     -0.562218    39A     -0.553316
      40A     -0.550745    41A     -0.529069    42A     -0.516134
      43A     -0.501574    44A     -0.486756    45A     -0.472588
      46A     -0.455772    47A     -0.436573    48A     -0.406286

  @DF-RHF Final Energy:  -683.58368970863967

   => Energetics <=

    Nuclear Repulsion Energy =            823.0826554404175113
    One-Electron Energy =               -2574.5384288415425544
    Two-Electron Energy =                1067.8720836924853756
    Total Energy =                       -683.5836897086396675
  Basis Set: (AUG-CC-PVTZ AUX)
    Blend: AUG-CC-PVTZ-RI
    Molecular point group: c1

    Geometry (in Angstrom), charge = 0, multiplicity = 1:

       Center              X                  Y                   Z               Mass
    ------------   -----------------  -----------------  -----------------  -----------------
         O           -0.711647488054    -1.109698467835    -0.243449547770    15.994914619570
         O           -0.755792488054     2.555139532165     0.212349452230    15.994914619570
         O            1.983452511946     1.988539532165    -0.331451547770    15.994914619570
         O            2.908761511946    -0.664805467835     0.180788452230    15.994914619570
         O            0.912870511946    -2.716644467835    -0.056021547770    15.994914619570
         O           -3.416747488054    -0.878150467835     0.201130452230    15.994914619570
         C           -0.448772888054     1.317767832165    -0.307539947770    12.000000000000
         C            1.114565511946     1.012957532165     0.212483452230    12.000000000000
         C           -1.230209488054     0.134703532165     0.242498452230    12.000000000000
         C            1.579367511946    -0.371993467835    -0.211421547770    12.000000000000
         C            0.581386511946    -1.418275467835     0.297456452230    12.000000000000
         C           -2.649064488054     0.211280532165    -0.285262547770    12.000000000000
         H           -0.345013488054     1.311765532165    -1.321381547770     1.007825032230
         H            1.136088511946     1.053481532165     1.322861452230     1.007825032230
         H           -1.264294488054     0.112437532165     1.347733452230     1.007825032230
         H            1.579413511946    -0.416557467835    -1.308333547770     1.007825032230
         H            0.523644511946    -1.405636467835     1.397509452230     1.007825032230
         H           -2.611723488054     0.226965532165    -1.384808547770     1.007825032230
         H           -3.131069488054     1.129649532165     0.056669452230     1.007825032230
         H           -0.829318488054     2.520737532165     1.184936452230     1.007825032230
         H            1.504073511946     2.834888532165    -0.239756547770     1.007825032230
         H            3.000281511946    -0.443600467835     1.124654452230     1.007825032230
         H            1.251440511946    -2.702571467835    -0.969145547770     1.007825032230
         H           -2.894183488054    -1.673069467835    -0.012605547770     1.007825032230

  Basis Set: AUG-CC-PVTZ
    Blend: AUG-CC-PVTZ
  Basis Set: (AUG-CC-PVTZ AUX)
    Blend: AUG-CC-PVTZ-JKFIT
	 Reference Energy          =    -683.5836897086396675 [Eh]
	 Singles Energy            =      -0.0000000000000000 [Eh]
	 Same-Spin Energy          =      -0.6654804060550366 [Eh]
	 Opposite-Spin Energy      =      -2.0449262326199698 [Eh]
	 Correlation Energy        =      -2.7104066386750061 [Eh]
	 Total Energy              =    -686.2940963473146212 [Eh]

	 ================> DF-SCS-MP2 Energies <==================
	-----------------------------------------------------------
	 SCS Same-Spin Scale       =       0.3333333333333333 [-]
	 SCS Opposite-Spin Scale   =       1.2000000000000000 [-]
	 SCS Same-Spin Energy      =      -0.2218268020183455 [Eh]
	 SCS Opposite-Spin Energy  =      -2.4539114791439638 [Eh]
	 SCS Correlation Energy    =      -2.6757382811623094 [Eh]
	 SCS Total Energy          =    -686.2594279898020204 [Eh]
	-----------------------------------------------------------

  Dipole Moment: [D]
     X:     0.0488      Y:     1.8537      Z:     1.3462     Total:     2.2915

*** Psi4 exiting successfully. Buy a developer a beer!
