                               Psi4 1.3.2 release

  ==> Input File <==

--------------------------------------------------------------------------
#psi4
#
memory 32 gb

molecule  {
0 1
  O       -0.7087550    -1.1193400    -0.2546710
  O       -0.7529000     2.5454980     0.2011280
  O        1.9863450     1.9788980    -0.3426730
  O        2.9116540    -0.6744470     0.1695670
  O        0.9157630    -2.7262860    -0.0672430
  O       -3.4138550    -0.8877920     0.1899090
  C       -0.3205170     1.2520290    -0.2382820
  C        1.1174580     1.0033160     0.2012620
  C       -1.2183130     0.1250247     0.2064017
  C        1.5822600    -0.3816350    -0.2226430
  C        0.5842790    -1.4279170     0.2862350
  C       -2.6461720     0.2016390    -0.2964840
  H       -0.3421210     1.3021240    -1.3326030
  H        1.1389810     1.0438400     1.3116400
  H       -1.2614020     0.1027960     1.3365120
  H        1.5823060    -0.4261990    -1.3195550
  H        0.5265370    -1.4152780     1.3862880
  H       -2.6088310     0.2173240    -1.3960300
  H       -3.1281770     1.1200080     0.0454480
  H       -0.8264260     2.5110960     1.1737150
  H        1.5069660     2.8252470    -0.2509780
  H        3.0031740    -0.4532420     1.1134330
  H        1.2543330    -2.7122130    -0.9803670
  H       -2.8912910    -1.6827110    -0.0238270
units angstrom
no_reorient  #important for SAPT in psi4, default
symmetry c1  #important for SAPT in psi4, default
}

set PROPERTIES_ORIGIN ["COM"]
properties('MP2/aug-cc-pvtz', properties = ['dipole'])
--------------------------------------------------------------------------

    Molecular point group: c1
  Charge       = 0
  Multiplicity = 1
  Basis Set: AUG-CC-PVTZ
    Blend: AUG-CC-PVTZ
  Basis Set: (AUG-CC-PVTZ AUX)
    Blend: AUG-CC-PVTZ-JKFIT

    Orbital Energies [Eh]
    ---------------------

    Doubly Occupied:

       1A    -20.598919     2A    -20.589882     3A    -20.584471
       4A    -20.579669     5A    -20.577588     6A    -20.563113
       7A    -11.357765     8A    -11.310393     9A    -11.309784
      10A    -11.308887    11A    -11.305632    12A    -11.287231
      13A     -1.442635    14A     -1.405436    15A     -1.388540
      16A     -1.373593    17A     -1.366154    18A     -1.354422
      19A     -1.082494    20A     -1.051953    21A     -0.946349
      22A     -0.892871    23A     -0.855134    24A     -0.840218
      25A     -0.755109    26A     -0.730204    27A     -0.721917
      28A     -0.710336    29A     -0.694757    30A     -0.674580
      31A     -0.661280    32A     -0.655244    33A     -0.620806
      34A     -0.615838    35A     -0.598289    36A     -0.586213
      37A     -0.570821    38A     -0.562519    39A     -0.555996
      40A     -0.543025    41A     -0.528982    42A     -0.517118
      43A     -0.502602    44A     -0.487282    45A     -0.474467
      46A     -0.461724    47A     -0.445456    48A     -0.432223

  @DF-RHF Final Energy:  -683.60311457134912

   => Energetics <=

    Nuclear Repulsion Energy =            824.9763758012989001
    One-Electron Energy =               -2578.1991408179405880
    Two-Electron Energy =                1069.6196504452925637
    Total Energy =                       -683.6031145713491242
  Basis Set: (AUG-CC-PVTZ AUX)
    Blend: AUG-CC-PVTZ-RI
    Molecular point group: c1

    Geometry (in Angstrom), charge = 0, multiplicity = 1:

       Center              X                  Y                   Z               Mass
    ------------   -----------------  -----------------  -----------------  -----------------
         O           -0.720602161278    -1.105957478580    -0.247155182808    15.994914619570
         O           -0.764747161278     2.558880521420     0.208643817192    15.994914619570
         O            1.974497838722     1.992280521420    -0.335157182808    15.994914619570
         O            2.899806838722    -0.661064478580     0.177082817192    15.994914619570
         O            0.903915838722    -2.712903478580    -0.059727182808    15.994914619570
         O           -3.425702161278    -0.874409478580     0.197424817192    15.994914619570
         C           -0.332364161278     1.265411521420    -0.230766182808    12.000000000000
         C            1.105610838722     1.016698521420     0.208777817192    12.000000000000
         C           -1.230160161278     0.138407221420     0.213917517192    12.000000000000
         C            1.570412838722    -0.368252478580    -0.215127182808    12.000000000000
         C            0.572431838722    -1.414534478580     0.293750817192    12.000000000000
         C           -2.658019161278     0.215021521420    -0.288968182808    12.000000000000
         H           -0.353968161278     1.315506521420    -1.325087182808     1.007825032230
         H            1.127133838722     1.057222521420     1.319155817192     1.007825032230
         H           -1.273249161278     0.116178521420     1.344027817192     1.007825032230
         H            1.570458838722    -0.412816478580    -1.312039182808     1.007825032230
         H            0.514689838722    -1.401895478580     1.393803817192     1.007825032230
         H           -2.620678161278     0.230706521420    -1.388514182808     1.007825032230
         H           -3.140024161278     1.133390521420     0.052963817192     1.007825032230
         H           -0.838273161278     2.524478521420     1.181230817192     1.007825032230
         H            1.495118838722     2.838629521420    -0.243462182808     1.007825032230
         H            2.991326838722    -0.439859478580     1.120948817192     1.007825032230
         H            1.242485838722    -2.698830478580    -0.972851182808     1.007825032230
         H           -2.903138161278    -1.669328478580    -0.016311182808     1.007825032230

  Basis Set: AUG-CC-PVTZ
    Blend: AUG-CC-PVTZ
  Basis Set: (AUG-CC-PVTZ AUX)
    Blend: AUG-CC-PVTZ-JKFIT
	 Reference Energy          =    -683.6031145713491242 [Eh]
	 Singles Energy            =      -0.0000000000000000 [Eh]
	 Same-Spin Energy          =      -0.6655992327736718 [Eh]
	 Opposite-Spin Energy      =      -2.0448652289924518 [Eh]
	 Correlation Energy        =      -2.7104644617661235 [Eh]
	 Total Energy              =    -686.3135790331152748 [Eh]

	 ================> DF-SCS-MP2 Energies <==================
	-----------------------------------------------------------
	 SCS Same-Spin Scale       =       0.3333333333333333 [-]
	 SCS Opposite-Spin Scale   =       1.2000000000000000 [-]
	 SCS Same-Spin Energy      =      -0.2218664109245573 [Eh]
	 SCS Opposite-Spin Energy  =      -2.4538382747909422 [Eh]
	 SCS Correlation Energy    =      -2.6757046857154996 [Eh]
	 SCS Total Energy          =    -686.2788192570645833 [Eh]
	-----------------------------------------------------------

  Dipole Moment: [D]
     X:     0.2504      Y:     1.5764      Z:     1.3303     Total:     2.0779

*** Psi4 exiting successfully. Buy a developer a beer!
