                               Psi4 1.3.2 release

  ==> Input File <==

--------------------------------------------------------------------------
#psi4
#
memory 32 gb

molecule  {
0 1
  O       -0.7087550    -1.1193400    -0.2546710
  O       -0.7529000     2.5454980     0.2011280
  O        1.9863450     1.9788980    -0.3426730
  O        2.9116540    -0.6744470     0.1695670
  O        0.9157630    -2.7262860    -0.0672430
  O       -3.4138550    -0.8877920     0.1899090
  C       -0.2808722     1.2305517    -0.2102670
  C        1.1174580     1.0033160     0.2012620
  C       -1.2273170     0.1250620     0.2312770
  C        1.5822600    -0.3816350    -0.2226430
  C        0.5842790    -1.4279170     0.2862350
  C       -2.6461720     0.2016390    -0.2964840
  H       -0.3421210     1.3021240    -1.3326030
  H        1.1389810     1.0438400     1.3116400
  H       -1.2614020     0.1027960     1.3365120
  H        1.5823060    -0.4261990    -1.3195550
  H        0.5265370    -1.4152780     1.3862880
  H       -2.6088310     0.2173240    -1.3960300
  H       -3.1281770     1.1200080     0.0454480
  H       -0.8264260     2.5110960     1.1737150
  H        1.5069660     2.8252470    -0.2509780
  H        3.0031740    -0.4532420     1.1134330
  H        1.2543330    -2.7122130    -0.9803670
  H       -2.8912910    -1.6827110    -0.0238270
units angstrom
no_reorient  #important for SAPT in psi4, default
symmetry c1  #important for SAPT in psi4, default
}

set PROPERTIES_ORIGIN ["COM"]
properties('MP2/aug-cc-pvtz', properties = ['dipole'])
--------------------------------------------------------------------------

    Molecular point group: c1
  Charge       = 0
  Multiplicity = 1
  Basis Set: AUG-CC-PVTZ
    Blend: AUG-CC-PVTZ
  Basis Set: (AUG-CC-PVTZ AUX)
    Blend: AUG-CC-PVTZ-JKFIT

    Orbital Energies [Eh]
    ---------------------

    Doubly Occupied:

       1A    -20.596811     2A    -20.588437     3A    -20.584394
       4A    -20.580235     5A    -20.578734     6A    -20.563784
       7A    -11.357677     8A    -11.311604     9A    -11.309640
      10A    -11.309303    11A    -11.306586    12A    -11.288406
      13A     -1.440835    14A     -1.402423    15A     -1.387096
      16A     -1.372111    17A     -1.365944    18A     -1.353832
      19A     -1.088622    20A     -1.051207    21A     -0.949578
      22A     -0.890295    23A     -0.857588    24A     -0.839539
      25A     -0.754693    26A     -0.730258    27A     -0.724159
      28A     -0.706161    29A     -0.694031    30A     -0.677180
      31A     -0.661380    32A     -0.655940    33A     -0.618189
      34A     -0.611976    35A     -0.595969    36A     -0.587836
      37A     -0.572791    38A     -0.562301    39A     -0.554987
      40A     -0.538846    41A     -0.527207    42A     -0.516886
      43A     -0.502281    44A     -0.487850    45A     -0.473968
      46A     -0.466586    47A     -0.450750    48A     -0.433325

  @DF-RHF Final Energy:  -683.59947834205173

   => Energetics <=

    Nuclear Repulsion Energy =            825.2147519419983155
    One-Electron Energy =               -2578.6680003141218549
    Two-Electron Energy =                1069.8537700300719280
    Total Energy =                       -683.5994783420517251
  Basis Set: (AUG-CC-PVTZ AUX)
    Blend: AUG-CC-PVTZ-RI
    Molecular point group: c1

    Geometry (in Angstrom), charge = 0, multiplicity = 1:

       Center              X                  Y                   Z               Mass
    ------------   -----------------  -----------------  -----------------  -----------------
         O           -0.722644162175    -1.104528648418    -0.250679961536    15.994914619570
         O           -0.766789162175     2.560309351582     0.205119038464    15.994914619570
         O            1.972455837825     1.993709351582    -0.338681961536    15.994914619570
         O            2.897764837825    -0.659635648418     0.173558038464    15.994914619570
         O            0.901873837825    -2.711474648418    -0.063251961536    15.994914619570
         O           -3.427744162175    -0.872980648418     0.193900038464    15.994914619570
         C           -0.294761362175     1.245363051582    -0.206275961536    12.000000000000
         C            1.103568837825     1.018127351582     0.205253038464    12.000000000000
         C           -1.241206162175     0.139873351582     0.235268038464    12.000000000000
         C            1.568370837825    -0.366823648418    -0.218651961536    12.000000000000
         C            0.570389837825    -1.413105648418     0.290226038464    12.000000000000
         C           -2.660061162175     0.216450351582    -0.292492961536    12.000000000000
         H           -0.356010162175     1.316935351582    -1.328611961536     1.007825032230
         H            1.125091837825     1.058651351582     1.315631038464     1.007825032230
         H           -1.275291162175     0.117607351582     1.340503038464     1.007825032230
         H            1.568416837825    -0.411387648418    -1.315563961536     1.007825032230
         H            0.512647837825    -1.400466648418     1.390279038464     1.007825032230
         H           -2.622720162175     0.232135351582    -1.392038961536     1.007825032230
         H           -3.142066162175     1.134819351582     0.049439038464     1.007825032230
         H           -0.840315162175     2.525907351582     1.177706038464     1.007825032230
         H            1.493076837825     2.840058351582    -0.246986961536     1.007825032230
         H            2.989284837825    -0.438430648418     1.117424038464     1.007825032230
         H            1.240443837825    -2.697401648418    -0.976375961536     1.007825032230
         H           -2.905180162175    -1.667899648418    -0.019835961536     1.007825032230

  Basis Set: AUG-CC-PVTZ
    Blend: AUG-CC-PVTZ
  Basis Set: (AUG-CC-PVTZ AUX)
    Blend: AUG-CC-PVTZ-JKFIT
	 Reference Energy          =    -683.5994783420517251 [Eh]
	 Singles Energy            =      -0.0000000000000000 [Eh]
	 Same-Spin Energy          =      -0.6660209719816974 [Eh]
	 Opposite-Spin Energy      =      -2.0459286174770552 [Eh]
	 Correlation Energy        =      -2.7119495894587526 [Eh]
	 Total Energy              =    -686.3114279315104795 [Eh]

	 ================> DF-SCS-MP2 Energies <==================
	-----------------------------------------------------------
	 SCS Same-Spin Scale       =       0.3333333333333333 [-]
	 SCS Opposite-Spin Scale   =       1.2000000000000000 [-]
	 SCS Same-Spin Energy      =      -0.2220069906605658 [Eh]
	 SCS Opposite-Spin Energy  =      -2.4551143409724663 [Eh]
	 SCS Correlation Energy    =      -2.6771213316330322 [Eh]
	 SCS Total Energy          =    -686.2765996736848138 [Eh]
	-----------------------------------------------------------

  Dipole Moment: [D]
     X:     0.2655      Y:     1.5099      Z:     1.3795     Total:     2.0624

*** Psi4 exiting successfully. Buy a developer a beer!
