                               Psi4 1.3.2 release

  ==> Input File <==

--------------------------------------------------------------------------
#psi4
#
memory 32 gb

molecule  {
0 1
  O       -0.7087550    -1.1193400    -0.2546710
  O       -0.7529000     2.5454980     0.2011280
  O        1.9863450     1.9788980    -0.3426730
  O        2.9116540    -0.6744470     0.1695670
  O        0.9157630    -2.7262860    -0.0672430
  O       -3.4138550    -0.8877920     0.1899090
  C       -0.3205170     1.2520290    -0.2382820
  C        1.1174580     1.0033160     0.2012620
  C       -1.2273170     0.1250620     0.2312770
  C        1.5822600    -0.3816350    -0.2226430
  C        0.5842790    -1.4279170     0.2862350
  C       -2.6637601     0.2013712    -0.2465862
  H       -0.3421210     1.3021240    -1.3326030
  H        1.1389810     1.0438400     1.3116400
  H       -1.2614020     0.1027960     1.3365120
  H        1.5823060    -0.4261990    -1.3195550
  H        0.5265370    -1.4152780     1.3862880
  H       -2.6088310     0.2173240    -1.3960300
  H       -3.1281770     1.1200080     0.0454480
  H       -0.8264260     2.5110960     1.1737150
  H        1.5069660     2.8252470    -0.2509780
  H        3.0031740    -0.4532420     1.1134330
  H        1.2543330    -2.7122130    -0.9803670
  H       -2.8912910    -1.6827110    -0.0238270
units angstrom
no_reorient  #important for SAPT in psi4, default
symmetry c1  #important for SAPT in psi4, default
}

set PROPERTIES_ORIGIN ["COM"]
properties('MP2/aug-cc-pvtz', properties = ['dipole'])
--------------------------------------------------------------------------

    Molecular point group: c1
  Charge       = 0
  Multiplicity = 1
  Basis Set: AUG-CC-PVTZ
    Blend: AUG-CC-PVTZ
  Basis Set: (AUG-CC-PVTZ AUX)
    Blend: AUG-CC-PVTZ-JKFIT

    Orbital Energies [Eh]
    ---------------------

    Doubly Occupied:

       1A    -20.598219     2A    -20.588908     3A    -20.583888
       4A    -20.579199     5A    -20.577398     6A    -20.564949
       7A    -11.357060     8A    -11.310579     9A    -11.309640
      10A    -11.307713    11A    -11.305025    12A    -11.289089
      13A     -1.440333    14A     -1.404964    15A     -1.388565
      16A     -1.377469    17A     -1.366432    18A     -1.357230
      19A     -1.080612    20A     -1.050425    21A     -0.946229
      22A     -0.890993    23A     -0.854858    24A     -0.841664
      25A     -0.755114    26A     -0.728728    27A     -0.721186
      28A     -0.709483    29A     -0.696412    30A     -0.676467
      31A     -0.660698    32A     -0.653528    33A     -0.621458
      34A     -0.615352    35A     -0.606851    36A     -0.586432
      37A     -0.571115    38A     -0.562362    39A     -0.556160
      40A     -0.543204    41A     -0.528595    42A     -0.516775
      43A     -0.502944    44A     -0.486889    45A     -0.474198
      46A     -0.457594    47A     -0.441727    48A     -0.431474

  @DF-RHF Final Energy:  -683.60152190811550

   => Energetics <=

    Nuclear Repulsion Energy =            824.7428767184715070
    One-Electron Energy =               -2577.7364121445270939
    Two-Electron Energy =                1069.3920135179400859
    Total Energy =                       -683.6015219081155010
  Basis Set: (AUG-CC-PVTZ AUX)
    Blend: AUG-CC-PVTZ-RI
    Molecular point group: c1

    Geometry (in Angstrom), charge = 0, multiplicity = 1:

       Center              X                  Y                   Z               Mass
    ------------   -----------------  -----------------  -----------------  -----------------
         O           -0.718829978696    -1.105942117323    -0.252138301306    15.994914619570
         O           -0.762974978696     2.558895882677     0.203660698694    15.994914619570
         O            1.976270021304     1.992295882677    -0.340140301306    15.994914619570
         O            2.901579021304    -0.661049117323     0.172099698694    15.994914619570
         O            0.905688021304    -2.712888117323    -0.064710301306    15.994914619570
         O           -3.423929978696    -0.874394117323     0.192441698694    15.994914619570
         C           -0.330591978696     1.265426882677    -0.235749301306    12.000000000000
         C            1.107383021304     1.016713882677     0.203794698694    12.000000000000
         C           -1.237391978696     0.138459882677     0.233809698694    12.000000000000
         C            1.572185021304    -0.368237117323    -0.220110301306    12.000000000000
         C            0.574204021304    -1.414519117323     0.288767698694    12.000000000000
         C           -2.673835078696     0.214769082677    -0.244053501306    12.000000000000
         H           -0.352195978696     1.315521882677    -1.330070301306     1.007825032230
         H            1.128906021304     1.057237882677     1.314172698694     1.007825032230
         H           -1.271476978696     0.116193882677     1.339044698694     1.007825032230
         H            1.572231021304    -0.412801117323    -1.317022301306     1.007825032230
         H            0.516462021304    -1.401880117323     1.388820698694     1.007825032230
         H           -2.618905978696     0.230721882677    -1.393497301306     1.007825032230
         H           -3.138251978696     1.133405882677     0.047980698694     1.007825032230
         H           -0.836500978696     2.524493882677     1.176247698694     1.007825032230
         H            1.496891021304     2.838644882677    -0.248445301306     1.007825032230
         H            2.993099021304    -0.439844117323     1.115965698694     1.007825032230
         H            1.244258021304    -2.698815117323    -0.977834301306     1.007825032230
         H           -2.901365978696    -1.669313117323    -0.021294301306     1.007825032230

  Basis Set: AUG-CC-PVTZ
    Blend: AUG-CC-PVTZ
  Basis Set: (AUG-CC-PVTZ AUX)
    Blend: AUG-CC-PVTZ-JKFIT
	 Reference Energy          =    -683.6015219081155010 [Eh]
	 Singles Energy            =      -0.0000000000000000 [Eh]
	 Same-Spin Energy          =      -0.6654507252340580 [Eh]
	 Opposite-Spin Energy      =      -2.0444438277328691 [Eh]
	 Correlation Energy        =      -2.7098945529669272 [Eh]
	 Total Energy              =    -686.3114164610824446 [Eh]

	 ================> DF-SCS-MP2 Energies <==================
	-----------------------------------------------------------
	 SCS Same-Spin Scale       =       0.3333333333333333 [-]
	 SCS Opposite-Spin Scale   =       1.2000000000000000 [-]
	 SCS Same-Spin Energy      =      -0.2218169084113527 [Eh]
	 SCS Opposite-Spin Energy  =      -2.4533325932794430 [Eh]
	 SCS Correlation Energy    =      -2.6751495016907958 [Eh]
	 SCS Total Energy          =    -686.2766714098063403 [Eh]
	-----------------------------------------------------------

  Dipole Moment: [D]
     X:     0.1631      Y:     1.5479      Z:     1.4626     Total:     2.1359

*** Psi4 exiting successfully. Buy a developer a beer!
