                               Psi4 1.3.2 release

  ==> Input File <==

--------------------------------------------------------------------------
#psi4
#
memory 32 gb

molecule  {
0 1
  O       -0.7087550    -1.1193400    -0.2546710
  O       -0.7529000     2.5454980     0.2011280
  O        1.9863450     1.9788980    -0.3426730
  O        2.9116540    -0.6744470     0.1695670
  O        0.9157630    -2.7262860    -0.0672430
  O       -3.4138550    -0.8877920     0.1899090
  C       -0.3205170     1.2520290    -0.2382820
  C        1.1174580     1.0033160     0.2012620
  C       -1.1435585     0.1349462     0.2850514
  C        1.5822600    -0.3816350    -0.2226430
  C        0.5842790    -1.4279170     0.2862350
  C       -2.6461720     0.2016390    -0.2964840
  H       -0.3421210     1.3021240    -1.3326030
  H        1.1389810     1.0438400     1.3116400
  H       -1.2614020     0.1027960     1.3365120
  H        1.5823060    -0.4261990    -1.3195550
  H        0.5265370    -1.4152780     1.3862880
  H       -2.6088310     0.2173240    -1.3960300
  H       -3.1281770     1.1200080     0.0454480
  H       -0.8264260     2.5110960     1.1737150
  H        1.5069660     2.8252470    -0.2509780
  H        3.0031740    -0.4532420     1.1134330
  H        1.2543330    -2.7122130    -0.9803670
  H       -2.8912910    -1.6827110    -0.0238270
units angstrom
no_reorient  #important for SAPT in psi4, default
symmetry c1  #important for SAPT in psi4, default
}

set PROPERTIES_ORIGIN ["COM"]
properties('MP2/aug-cc-pvtz', properties = ['dipole'])
--------------------------------------------------------------------------

    Molecular point group: c1
  Charge       = 0
  Multiplicity = 1
  Basis Set: AUG-CC-PVTZ
    Blend: AUG-CC-PVTZ
  Basis Set: (AUG-CC-PVTZ AUX)
    Blend: AUG-CC-PVTZ-JKFIT

    Orbital Energies [Eh]
    ---------------------

    Doubly Occupied:

       1A    -20.599473     2A    -20.592036     3A    -20.583211
       4A    -20.579652     5A    -20.576219     6A    -20.561864
       7A    -11.356057     8A    -11.309427     9A    -11.308269
      10A    -11.305443    11A    -11.304704    12A    -11.289243
      13A     -1.441940    14A     -1.405800    15A     -1.387867
      16A     -1.371468    17A     -1.365373    18A     -1.352947
      19A     -1.085979    20A     -1.043431    21A     -0.937144
      22A     -0.891774    23A     -0.855598    24A     -0.848413
      25A     -0.754032    26A     -0.729599    27A     -0.721288
      28A     -0.713287    29A     -0.692319    30A     -0.673126
      31A     -0.659548    32A     -0.654762    33A     -0.620894
      34A     -0.613578    35A     -0.596014    36A     -0.586205
      37A     -0.569415    38A     -0.562140    39A     -0.557589
      40A     -0.545615    41A     -0.527636    42A     -0.517339
      43A     -0.510559    44A     -0.483675    45A     -0.476805
      46A     -0.461865    47A     -0.441574    48A     -0.423519

  @DF-RHF Final Energy:  -683.59291606843692

   => Energetics <=

    Nuclear Repulsion Energy =            825.0341757190784620
    One-Electron Energy =               -2578.3627528417423491
    Two-Electron Energy =                1069.7356610542267390
    Total Energy =                       -683.5929160684370345
  Basis Set: (AUG-CC-PVTZ AUX)
    Blend: AUG-CC-PVTZ-RI
    Molecular point group: c1

    Geometry (in Angstrom), charge = 0, multiplicity = 1:

       Center              X                  Y                   Z               Mass
    ------------   -----------------  -----------------  -----------------  -----------------
         O           -0.725584040212    -1.106618679068    -0.252396650327    15.994914619570
         O           -0.769729040212     2.558219320932     0.203402349673    15.994914619570
         O            1.969515959788     1.991619320932    -0.340398650327    15.994914619570
         O            2.894824959788    -0.661725679068     0.171841349673    15.994914619570
         O            0.898933959788    -2.713564679068    -0.064968650327    15.994914619570
         O           -3.430684040212    -0.875070679068     0.192183349673    15.994914619570
         C           -0.337346040212     1.264750320932    -0.236007650327    12.000000000000
         C            1.100628959788     1.016037320932     0.203536349673    12.000000000000
         C           -1.160387540212     0.147667520932     0.287325749673    12.000000000000
         C            1.565430959788    -0.368913679068    -0.220368650327    12.000000000000
         C            0.567449959788    -1.415195679068     0.288509349673    12.000000000000
         C           -2.663001040212     0.214360320932    -0.294209650327    12.000000000000
         H           -0.358950040212     1.314845320932    -1.330328650327     1.007825032230
         H            1.122151959788     1.056561320932     1.313914349673     1.007825032230
         H           -1.278231040212     0.115517320932     1.338786349673     1.007825032230
         H            1.565476959788    -0.413477679068    -1.317280650327     1.007825032230
         H            0.509707959788    -1.402556679068     1.388562349673     1.007825032230
         H           -2.625660040212     0.230045320932    -1.393755650327     1.007825032230
         H           -3.145006040212     1.132729320932     0.047722349673     1.007825032230
         H           -0.843255040212     2.523817320932     1.175989349673     1.007825032230
         H            1.490136959788     2.837968320932    -0.248703650327     1.007825032230
         H            2.986344959788    -0.440520679068     1.115707349673     1.007825032230
         H            1.237503959788    -2.699491679068    -0.978092650327     1.007825032230
         H           -2.908120040212    -1.669989679068    -0.021552650327     1.007825032230

  Basis Set: AUG-CC-PVTZ
    Blend: AUG-CC-PVTZ
  Basis Set: (AUG-CC-PVTZ AUX)
    Blend: AUG-CC-PVTZ-JKFIT
	 Reference Energy          =    -683.5929160684369208 [Eh]
	 Singles Energy            =      -0.0000000000000000 [Eh]
	 Same-Spin Energy          =      -0.6660073801397821 [Eh]
	 Opposite-Spin Energy      =      -2.0463135715513876 [Eh]
	 Correlation Energy        =      -2.7123209516911695 [Eh]
	 Total Energy              =    -686.3052370201280610 [Eh]

	 ================> DF-SCS-MP2 Energies <==================
	-----------------------------------------------------------
	 SCS Same-Spin Scale       =       0.3333333333333333 [-]
	 SCS Opposite-Spin Scale   =       1.2000000000000000 [-]
	 SCS Same-Spin Energy      =      -0.2220024600465940 [Eh]
	 SCS Opposite-Spin Energy  =      -2.4555762858616652 [Eh]
	 SCS Correlation Energy    =      -2.6775787459082592 [Eh]
	 SCS Total Energy          =    -686.2704948143451702 [Eh]
	-----------------------------------------------------------

  Dipole Moment: [D]
     X:     0.2517      Y:     1.5733      Z:     1.4246     Total:     2.1374

*** Psi4 exiting successfully. Buy a developer a beer!
