                               Psi4 1.3.2 release

  ==> Input File <==

--------------------------------------------------------------------------
#psi4
#
memory 32 gb

molecule  {
0 1
  O       -0.7087550    -1.1193400    -0.2546710
  O       -0.7529000     2.5454980     0.2011280
  O        2.0963359     1.9088798    -0.2723861
  O        2.9116540    -0.6744470     0.1695670
  O        0.9157630    -2.7262860    -0.0672430
  O       -3.4138550    -0.8877920     0.1899090
  C       -0.3205170     1.2520290    -0.2382820
  C        1.1174580     1.0033160     0.2012620
  C       -1.2273170     0.1250620     0.2312770
  C        1.5822600    -0.3816350    -0.2226430
  C        0.5842790    -1.4279170     0.2862350
  C       -2.6461720     0.2016390    -0.2964840
  H       -0.3421210     1.3021240    -1.3326030
  H        1.1389810     1.0438400     1.3116400
  H       -1.2614020     0.1027960     1.3365120
  H        1.5823060    -0.4261990    -1.3195550
  H        0.5265370    -1.4152780     1.3862880
  H       -2.6088310     0.2173240    -1.3960300
  H       -3.1281770     1.1200080     0.0454480
  H       -0.8264260     2.5110960     1.1737150
  H        1.5069660     2.8252470    -0.2509780
  H        3.0031740    -0.4532420     1.1134330
  H        1.2543330    -2.7122130    -0.9803670
  H       -2.8912910    -1.6827110    -0.0238270
units angstrom
no_reorient  #important for SAPT in psi4, default
symmetry c1  #important for SAPT in psi4, default
}

set PROPERTIES_ORIGIN ["COM"]
properties('MP2/aug-cc-pvtz', properties = ['dipole'])
--------------------------------------------------------------------------

    Molecular point group: c1
  Charge       = 0
  Multiplicity = 1
  Basis Set: AUG-CC-PVTZ
    Blend: AUG-CC-PVTZ
  Basis Set: (AUG-CC-PVTZ AUX)
    Blend: AUG-CC-PVTZ-JKFIT

    Orbital Energies [Eh]
    ---------------------

    Doubly Occupied:

       1A    -20.600941     2A    -20.588732     3A    -20.588420
       4A    -20.582324     5A    -20.577164     6A    -20.563858
       7A    -11.355030     8A    -11.314194     9A    -11.310331
      10A    -11.307901    11A    -11.302165    12A    -11.288802
      13A     -1.439626    14A     -1.403091    15A     -1.386033
      16A     -1.372312    17A     -1.355889    18A     -1.351950
      19A     -1.079330    20A     -1.049851    21A     -0.946446
      22A     -0.887645    23A     -0.852215    24A     -0.842704
      25A     -0.750354    26A     -0.726959    27A     -0.717547
      28A     -0.711106    29A     -0.693789    30A     -0.674077
      31A     -0.659024    32A     -0.635857    33A     -0.620263
      34A     -0.615651    35A     -0.598881    36A     -0.586769
      37A     -0.571247    38A     -0.560476    39A     -0.556630
      40A     -0.545022    41A     -0.527698    42A     -0.515967
      43A     -0.501748    44A     -0.486926    45A     -0.469557
      46A     -0.462592    47A     -0.447692    48A     -0.430696

  @DF-RHF Final Energy:  -683.58376671024371

   => Energetics <=

    Nuclear Repulsion Energy =            823.9963436272897752
    One-Electron Energy =               -2576.3332521005236231
    Two-Electron Energy =                1068.7531417629902535
    Total Energy =                       -683.5837667102437081
  Basis Set: (AUG-CC-PVTZ AUX)
    Blend: AUG-CC-PVTZ-RI
    Molecular point group: c1

    Geometry (in Angstrom), charge = 0, multiplicity = 1:

       Center              X                  Y                   Z               Mass
    ------------   -----------------  -----------------  -----------------  -----------------
         O           -0.729772526624    -1.099740292829    -0.255056492338    15.994914619570
         O           -0.773917526624     2.565097707171     0.200742507662    15.994914619570
         O            2.075318373376     1.928479507171    -0.272771592338    15.994914619570
         O            2.890636473376    -0.654847292829     0.169181507662    15.994914619570
         O            0.894745473376    -2.706686292829    -0.067628492338    15.994914619570
         O           -3.434872526624    -0.868192292829     0.189523507662    15.994914619570
         C           -0.341534526624     1.271628707171    -0.238667492338    12.000000000000
         C            1.096440473376     1.022915707171     0.200876507662    12.000000000000
         C           -1.248334526624     0.144661707171     0.230891507662    12.000000000000
         C            1.561242473376    -0.362035292829    -0.223028492338    12.000000000000
         C            0.563261473376    -1.408317292829     0.285849507662    12.000000000000
         C           -2.667189526624     0.221238707171    -0.296869492338    12.000000000000
         H           -0.363138526624     1.321723707171    -1.332988492338     1.007825032230
         H            1.117963473376     1.063439707171     1.311254507662     1.007825032230
         H           -1.282419526624     0.122395707171     1.336126507662     1.007825032230
         H            1.561288473376    -0.406599292829    -1.319940492338     1.007825032230
         H            0.505519473376    -1.395678292829     1.385902507662     1.007825032230
         H           -2.629848526624     0.236923707171    -1.396415492338     1.007825032230
         H           -3.149194526624     1.139607707171     0.045062507662     1.007825032230
         H           -0.847443526624     2.530695707171     1.173329507662     1.007825032230
         H            1.485948473376     2.844846707171    -0.251363492338     1.007825032230
         H            2.982156473376    -0.433642292829     1.113047507662     1.007825032230
         H            1.233315473376    -2.692613292829    -0.980752492338     1.007825032230
         H           -2.912308526624    -1.663111292829    -0.024212492338     1.007825032230

  Basis Set: AUG-CC-PVTZ
    Blend: AUG-CC-PVTZ
  Basis Set: (AUG-CC-PVTZ AUX)
    Blend: AUG-CC-PVTZ-JKFIT
	 Reference Energy          =    -683.5837667102437081 [Eh]
	 Singles Energy            =      -0.0000000000000000 [Eh]
	 Same-Spin Energy          =      -0.6673903839214115 [Eh]
	 Opposite-Spin Energy      =      -2.0496023446158658 [Eh]
	 Correlation Energy        =      -2.7169927285372770 [Eh]
	 Total Energy              =    -686.3007594387810286 [Eh]

	 ================> DF-SCS-MP2 Energies <==================
	-----------------------------------------------------------
	 SCS Same-Spin Scale       =       0.3333333333333333 [-]
	 SCS Opposite-Spin Scale   =       1.2000000000000000 [-]
	 SCS Same-Spin Energy      =      -0.2224634613071372 [Eh]
	 SCS Opposite-Spin Energy  =      -2.4595228135390390 [Eh]
	 SCS Correlation Energy    =      -2.6819862748461762 [Eh]
	 SCS Total Energy          =    -686.2657529850898754 [Eh]
	-----------------------------------------------------------

  Dipole Moment: [D]
     X:     0.0126      Y:     1.7094      Z:     1.2121     Total:     2.0956

*** Psi4 exiting successfully. Buy a developer a beer!
