                               Psi4 1.4a3.dev225

  ==> Input File <==

--------------------------------------------------------------------------
#psi4
#
memory 32 gb

molecule  {
0 1
  O       -0.7087730    -1.1193010    -0.2547420
  O       -0.7528450     2.5455330     0.2012150
  O        1.9863940     1.9788490    -0.3427120
  O        2.9116460    -0.6744970     0.1694850
  O        0.9156910    -2.7263170    -0.0671110
  O       -3.4138470    -0.8877920     0.1898460
  C       -0.3205030     1.2520640    -0.2382550
  C        1.1174820     1.0032940     0.2012350
  C       -1.2200889     0.1077299     0.2244841
  C        1.5822430    -0.3816820    -0.2226620
  C        0.5842200    -1.4279110     0.2862640
  C       -2.6461850     0.2016990    -0.2964600
  H       -0.3421180     1.3022200    -1.3325700
  H        1.1390340     1.0438120     1.3116130
  H       -1.2614040     0.1027740     1.3364960
  H        1.5822050    -0.4262820    -1.3195710
  H        0.5263940    -1.4152120     1.3863080
  H       -2.6088500     0.2174640    -1.3960030
  H       -3.1281860     1.1200450     0.0455410
  H       -0.8261980     2.5111300     1.1738140
  H        1.5071200     2.8252430    -0.2509020
  H        3.0032160    -0.4533580     1.1133610
  H        1.2544120    -2.7122960    -0.9801810
  H       -2.8913510    -1.6827050    -0.0240770
units angstrom
no_reorient  #important for SAPT in psi4, default
symmetry c1  #important for SAPT in psi4, default
}

set PROPERTIES_ORIGIN ["COM"]
properties('MP2/aug-cc-pvtz', properties = ['dipole'])
--------------------------------------------------------------------------

    Molecular point group: c1
  Charge       = 0
  Multiplicity = 1
  Basis Set: AUG-CC-PVTZ
    Blend: AUG-CC-PVTZ
  Basis Set: (AUG-CC-PVTZ AUX)
    Blend: AUG-CC-PVTZ-JKFIT

    Orbital Energies [Eh]
    ---------------------

    Doubly Occupied:

       1A    -20.598264     2A    -20.590534     3A    -20.584689
       4A    -20.579667     5A    -20.577066     6A    -20.562260
       7A    -11.358160     8A    -11.309924     9A    -11.309243
      10A    -11.307801    11A    -11.305616    12A    -11.286886
      13A     -1.444178    14A     -1.404710    15A     -1.388647
      16A     -1.373874    17A     -1.365837    18A     -1.354852
      19A     -1.080132    20A     -1.050578    21A     -0.945191
      22A     -0.892113    23A     -0.854631    24A     -0.841996
      25A     -0.755063    26A     -0.730861    27A     -0.721058
      28A     -0.710303    29A     -0.694200    30A     -0.674177
      31A     -0.661314    32A     -0.655453    33A     -0.620254
      34A     -0.615655    35A     -0.597974    36A     -0.587157
      37A     -0.570958    38A     -0.562592    39A     -0.556218
      40A     -0.543311    41A     -0.529476    42A     -0.518242
      43A     -0.502104    44A     -0.487341    45A     -0.473898
      46A     -0.461239    47A     -0.445653    48A     -0.429939

  @DF-RHF Final Energy:  -683.60401947855723

   => Energetics <=

    Nuclear Repulsion Energy =            824.8723736176650618
    One-Electron Energy =               -2578.0102197661258288
    Two-Electron Energy =                1069.5338266699036467
    Total Energy =                       -683.6040194785571202
  Basis Set: (AUG-CC-PVTZ AUX)
    Blend: AUG-CC-PVTZ-RI
    Molecular point group: c1

    Geometry (in Angstrom), charge = 0, multiplicity = 1:

       Center              X                  Y                   Z               Mass
    ------------   -----------------  -----------------  -----------------  -----------------
         O           -0.720500913769    -1.104763296614    -0.248431176131    15.994914619570
         O           -0.764572913769     2.560070703386     0.207525823869    15.994914619570
         O            1.974666086231     1.993386703386    -0.336401176131    15.994914619570
         O            2.899918086231    -0.659959296614     0.175795823869    15.994914619570
         O            0.903963086231    -2.711779296614    -0.060800176131    15.994914619570
         O           -3.425574913769    -0.873254296614     0.196156823869    15.994914619570
         C           -0.332230913769     1.266601703386    -0.231944176131    12.000000000000
         C            1.105754086231     1.017831703386     0.207545823869    12.000000000000
         C           -1.231816813769     0.122267603386     0.230794923869    12.000000000000
         C            1.570515086231    -0.367144296614    -0.216351176131    12.000000000000
         C            0.572492086231    -1.413373296614     0.292574823869    12.000000000000
         C           -2.657912913769     0.216236703386    -0.290149176131    12.000000000000
         H           -0.353845913769     1.316757703386    -1.326259176131     1.007825032230
         H            1.127306086231     1.058349703386     1.317923823869     1.007825032230
         H           -1.273131913769     0.117311703386     1.342806823869     1.007825032230
         H            1.570477086231    -0.411744296614    -1.313260176131     1.007825032230
         H            0.514666086231    -1.400674296614     1.392618823869     1.007825032230
         H           -2.620577913769     0.232001703386    -1.389692176131     1.007825032230
         H           -3.139913913769     1.134582703386     0.051851823869     1.007825032230
         H           -0.837925913769     2.525667703386     1.180124823869     1.007825032230
         H            1.495392086231     2.839780703386    -0.244591176131     1.007825032230
         H            2.991488086231    -0.438820296614     1.119671823869     1.007825032230
         H            1.242684086231    -2.697758296614    -0.973870176131     1.007825032230
         H           -2.903078913769    -1.668167296614    -0.017766176131     1.007825032230

  Basis Set: AUG-CC-PVTZ
    Blend: AUG-CC-PVTZ
  Basis Set: (AUG-CC-PVTZ AUX)
    Blend: AUG-CC-PVTZ-JKFIT
	 Reference Energy          =    -683.6040194785572339 [Eh]
	 Singles Energy            =      -0.0000000000000000 [Eh]
	 Same-Spin Energy          =      -0.6654048732561532 [Eh]
	 Opposite-Spin Energy      =      -2.0445622276005571 [Eh]
	 Correlation Energy        =      -2.7099671008567103 [Eh]
	 Total Energy              =    -686.3139865794139496 [Eh]

	 ================> DF-SCS-MP2 Energies <==================
	-----------------------------------------------------------
	 SCS Same-Spin Scale       =       0.3333333333333333 [-]
	 SCS Opposite-Spin Scale   =       1.2000000000000000 [-]
	 SCS Same-Spin Energy      =      -0.2218016244187177 [Eh]
	 SCS Opposite-Spin Energy  =      -2.4534746731206685 [Eh]
	 SCS Correlation Energy    =      -2.6752762975393862 [Eh]
	 SCS Total Energy          =    -686.2792957760966601 [Eh]
	-----------------------------------------------------------

  Dipole Moment: [D]
     X:     0.2492      Y:     1.5475      Z:     1.3526     Total:     2.0704

*** Psi4 exiting successfully. Buy a developer a beer!
