                               Psi4 1.3.2 release

  ==> Input File <==

--------------------------------------------------------------------------
#psi4
#
memory 32 gb

molecule  {
0 1
  O       -0.7087550    -1.1193400    -0.2546710
  O       -0.7529000     2.5454980     0.2011280
  O        1.9863450     1.9788980    -0.3426730
  O        2.9116540    -0.6744470     0.1695670
  O        0.9157630    -2.7262860    -0.0672430
  O       -3.4138550    -0.8877920     0.1899090
  C       -0.3205170     1.2520290    -0.2382820
  C        1.1860445     0.9354497     0.1801318
  C       -1.2273170     0.1250620     0.2312770
  C        1.5822600    -0.3816350    -0.2226430
  C        0.5842790    -1.4279170     0.2862350
  C       -2.6461720     0.2016390    -0.2964840
  H       -0.3421210     1.3021240    -1.3326030
  H        1.1389810     1.0438400     1.3116400
  H       -1.2614020     0.1027960     1.3365120
  H        1.5823060    -0.4261990    -1.3195550
  H        0.5265370    -1.4152780     1.3862880
  H       -2.6088310     0.2173240    -1.3960300
  H       -3.1281770     1.1200080     0.0454480
  H       -0.8264260     2.5110960     1.1737150
  H        1.5069660     2.8252470    -0.2509780
  H        3.0031740    -0.4532420     1.1134330
  H        1.2543330    -2.7122130    -0.9803670
  H       -2.8912910    -1.6827110    -0.0238270
units angstrom
no_reorient  #important for SAPT in psi4, default
symmetry c1  #important for SAPT in psi4, default
}

set PROPERTIES_ORIGIN ["COM"]
properties('MP2/aug-cc-pvtz', properties = ['dipole'])
--------------------------------------------------------------------------

    Molecular point group: c1
  Charge       = 0
  Multiplicity = 1
  Basis Set: AUG-CC-PVTZ
    Blend: AUG-CC-PVTZ
  Basis Set: (AUG-CC-PVTZ AUX)
    Blend: AUG-CC-PVTZ-JKFIT

    Orbital Energies [Eh]
    ---------------------

    Doubly Occupied:

       1A    -20.600727     2A    -20.588916     3A    -20.585761
       4A    -20.578506     5A    -20.575205     6A    -20.562051
       7A    -11.359732     8A    -11.312952     9A    -11.312448
      10A    -11.306708    11A    -11.302726    12A    -11.286404
      13A     -1.441400    14A     -1.403404    15A     -1.389834
      16A     -1.373200    17A     -1.364747    18A     -1.353233
      19A     -1.084303    20A     -1.055632    21A     -0.940354
      22A     -0.899665    23A     -0.851597    24A     -0.841213
      25A     -0.756627    26A     -0.732550    27A     -0.716831
      28A     -0.710518    29A     -0.691397    30A     -0.675463
      31A     -0.670118    32A     -0.657847    33A     -0.619195
      34A     -0.614446    35A     -0.597973    36A     -0.586299
      37A     -0.568230    38A     -0.559279    39A     -0.556566
      40A     -0.544417    41A     -0.527489    42A     -0.517990
      43A     -0.504628    44A     -0.486573    45A     -0.478868
      46A     -0.457474    47A     -0.445961    48A     -0.424565

  @DF-RHF Final Energy:  -683.59331849093917

   => Energetics <=

    Nuclear Repulsion Energy =            824.8800908049026930
    One-Electron Energy =               -2578.0027732933176594
    Two-Electron Energy =                1069.5293639974759117
    Total Energy =                       -683.5933184909390548
  Basis Set: (AUG-CC-PVTZ AUX)
    Blend: AUG-CC-PVTZ-RI
    Molecular point group: c1

    Geometry (in Angstrom), charge = 0, multiplicity = 1:

       Center              X                  Y                   Z               Mass
    ------------   -----------------  -----------------  -----------------  -----------------
         O           -0.724572929614    -1.101437137113    -0.247404768249    15.994914619570
         O           -0.768717929614     2.563400862887     0.208394231751    15.994914619570
         O            1.970527070386     1.996800862887    -0.335406768249    15.994914619570
         O            2.895836070386    -0.656544137113     0.176833231751    15.994914619570
         O            0.899945070386    -2.708383137113    -0.059976768249    15.994914619570
         O           -3.429672929614    -0.869889137113     0.197175231751    15.994914619570
         C           -0.336334929614     1.269931862887    -0.231015768249    12.000000000000
         C            1.170226570386     0.953352562887     0.187398031751    12.000000000000
         C           -1.243134929614     0.142964862887     0.238543231751    12.000000000000
         C            1.566442070386    -0.363732137113    -0.215376768249    12.000000000000
         C            0.568461070386    -1.410014137113     0.293501231751    12.000000000000
         C           -2.661989929614     0.219541862887    -0.289217768249    12.000000000000
         H           -0.357938929614     1.320026862887    -1.325336768249     1.007825032230
         H            1.123163070386     1.061742862887     1.318906231751     1.007825032230
         H           -1.277219929614     0.120698862887     1.343778231751     1.007825032230
         H            1.566488070386    -0.408296137113    -1.312288768249     1.007825032230
         H            0.510719070386    -1.397375137113     1.393554231751     1.007825032230
         H           -2.624648929614     0.235226862887    -1.388763768249     1.007825032230
         H           -3.143994929614     1.137910862887     0.052714231751     1.007825032230
         H           -0.842243929614     2.528998862887     1.180981231751     1.007825032230
         H            1.491148070386     2.843149862887    -0.243711768249     1.007825032230
         H            2.987356070386    -0.435339137113     1.120699231751     1.007825032230
         H            1.238515070386    -2.694310137113    -0.973100768249     1.007825032230
         H           -2.907108929614    -1.664808137113    -0.016560768249     1.007825032230

  Basis Set: AUG-CC-PVTZ
    Blend: AUG-CC-PVTZ
  Basis Set: (AUG-CC-PVTZ AUX)
    Blend: AUG-CC-PVTZ-JKFIT
	 Reference Energy          =    -683.5933184909391684 [Eh]
	 Singles Energy            =      -0.0000000000000000 [Eh]
	 Same-Spin Energy          =      -0.6660409474733087 [Eh]
	 Opposite-Spin Energy      =      -2.0455957355637038 [Eh]
	 Correlation Energy        =      -2.7116366830370122 [Eh]
	 Total Energy              =    -686.3049551739761682 [Eh]

	 ================> DF-SCS-MP2 Energies <==================
	-----------------------------------------------------------
	 SCS Same-Spin Scale       =       0.3333333333333333 [-]
	 SCS Opposite-Spin Scale   =       1.2000000000000000 [-]
	 SCS Same-Spin Energy      =      -0.2220136491577696 [Eh]
	 SCS Opposite-Spin Energy  =      -2.4547148826764444 [Eh]
	 SCS Correlation Energy    =      -2.6767285318342138 [Eh]
	 SCS Total Energy          =    -686.2700470227733831 [Eh]
	-----------------------------------------------------------

  Dipole Moment: [D]
     X:     0.2074      Y:     1.5600      Z:     1.3402     Total:     2.0670

*** Psi4 exiting successfully. Buy a developer a beer!
