                               Psi4 1.3.2 release

  ==> Input File <==

--------------------------------------------------------------------------
#psi4
#
memory 32 gb

molecule  {
0 1
  O       -0.7087550    -1.1193400    -0.2546710
  O       -0.7529000     2.5454980     0.2011280
  O        1.9863450     1.9788980    -0.3426730
  O        2.9116540    -0.6744470     0.1695670
  O        0.9157630    -2.7262860    -0.0672430
  O       -3.4138550    -0.8877920     0.1899090
  C       -0.3205170     1.2520290    -0.2382820
  C        1.0963832     0.9923591     0.2131201
  C       -1.2273170     0.1250620     0.2312770
  C        1.5822600    -0.3816350    -0.2226430
  C        0.5842790    -1.4279170     0.2862350
  C       -2.6461720     0.2016390    -0.2964840
  H       -0.3421210     1.3021240    -1.3326030
  H        1.1389810     1.0438400     1.3116400
  H       -1.2614020     0.1027960     1.3365120
  H        1.5823060    -0.4261990    -1.3195550
  H        0.5265370    -1.4152780     1.3862880
  H       -2.6088310     0.2173240    -1.3960300
  H       -3.1281770     1.1200080     0.0454480
  H       -0.8264260     2.5110960     1.1737150
  H        1.5069660     2.8252470    -0.2509780
  H        3.0031740    -0.4532420     1.1134330
  H        1.2543330    -2.7122130    -0.9803670
  H       -2.8912910    -1.6827110    -0.0238270
units angstrom
no_reorient  #important for SAPT in psi4, default
symmetry c1  #important for SAPT in psi4, default
}

set PROPERTIES_ORIGIN ["COM"]
properties('MP2/aug-cc-pvtz', properties = ['dipole'])
--------------------------------------------------------------------------

    Molecular point group: c1
  Charge       = 0
  Multiplicity = 1
  Basis Set: AUG-CC-PVTZ
    Blend: AUG-CC-PVTZ
  Basis Set: (AUG-CC-PVTZ AUX)
    Blend: AUG-CC-PVTZ-JKFIT

    Orbital Energies [Eh]
    ---------------------

    Doubly Occupied:

       1A    -20.598681     2A    -20.589062     3A    -20.583740
       4A    -20.580084     5A    -20.574941     6A    -20.562914
       7A    -11.356864     8A    -11.310868     9A    -11.309296
      10A    -11.308289    11A    -11.305873    12A    -11.287500
      13A     -1.440515    14A     -1.403403    15A     -1.386766
      16A     -1.372250    17A     -1.360570    18A     -1.353211
      19A     -1.084121    20A     -1.051699    21A     -0.947529
      22A     -0.890650    23A     -0.855146    24A     -0.843464
      25A     -0.753176    26A     -0.729178    27A     -0.720520
      28A     -0.710921    29A     -0.694211    30A     -0.674567
      31A     -0.659427    32A     -0.650811    33A     -0.620195
      34A     -0.615871    35A     -0.597916    36A     -0.587511
      37A     -0.567681    38A     -0.561722    39A     -0.556131
      40A     -0.542071    41A     -0.527624    42A     -0.517092
      43A     -0.504480    44A     -0.487680    45A     -0.476326
      46A     -0.463903    47A     -0.447786    48A     -0.430977

  @DF-RHF Final Energy:  -683.60263788395127

   => Energetics <=

    Nuclear Repulsion Energy =            824.7838832645589946
    One-Electron Energy =               -2577.8626155833776465
    Two-Electron Energy =                1069.4760944348674911
    Total Energy =                       -683.6026378839512745
  Basis Set: (AUG-CC-PVTZ AUX)
    Blend: AUG-CC-PVTZ-RI
    Molecular point group: c1

    Geometry (in Angstrom), charge = 0, multiplicity = 1:

       Center              X                  Y                   Z               Mass
    ------------   -----------------  -----------------  -----------------  -----------------
         O           -0.718597613858    -1.105229761517    -0.249603214052    15.994914619570
         O           -0.762742613858     2.559608238483     0.206195785948    15.994914619570
         O            1.976502386142     1.993008238483    -0.337605214052    15.994914619570
         O            2.901811386142    -0.660336761517     0.174634785948    15.994914619570
         O            0.905920386142    -2.712175761517    -0.062175214052    15.994914619570
         O           -3.423697613858    -0.873681761517     0.194976785948    15.994914619570
         C           -0.330359613858     1.266139238483    -0.233214214052    12.000000000000
         C            1.086540586142     1.006469338483     0.218187885948    12.000000000000
         C           -1.237159613858     0.139172238483     0.236344785948    12.000000000000
         C            1.572417386142    -0.367524761517    -0.217575214052    12.000000000000
         C            0.574436386142    -1.413806761517     0.291302785948    12.000000000000
         C           -2.656014613858     0.215749238483    -0.291416214052    12.000000000000
         H           -0.351963613858     1.316234238483    -1.327535214052     1.007825032230
         H            1.129138386142     1.057950238483     1.316707785948     1.007825032230
         H           -1.271244613858     0.116906238483     1.341579785948     1.007825032230
         H            1.572463386142    -0.412088761517    -1.314487214052     1.007825032230
         H            0.516694386142    -1.401167761517     1.391355785948     1.007825032230
         H           -2.618673613858     0.231434238483    -1.390962214052     1.007825032230
         H           -3.138019613858     1.134118238483     0.050515785948     1.007825032230
         H           -0.836268613858     2.525206238483     1.178782785948     1.007825032230
         H            1.497123386142     2.839357238483    -0.245910214052     1.007825032230
         H            2.993331386142    -0.439131761517     1.118500785948     1.007825032230
         H            1.244490386142    -2.698102761517    -0.975299214052     1.007825032230
         H           -2.901133613858    -1.668600761517    -0.018759214052     1.007825032230

  Basis Set: AUG-CC-PVTZ
    Blend: AUG-CC-PVTZ
  Basis Set: (AUG-CC-PVTZ AUX)
    Blend: AUG-CC-PVTZ-JKFIT
	 Reference Energy          =    -683.6026378839512745 [Eh]
	 Singles Energy            =      -0.0000000000000000 [Eh]
	 Same-Spin Energy          =      -0.6656110228433456 [Eh]
	 Opposite-Spin Energy      =      -2.0454159902429314 [Eh]
	 Correlation Energy        =      -2.7110270130862770 [Eh]
	 Total Energy              =    -686.3136648970375973 [Eh]

	 ================> DF-SCS-MP2 Energies <==================
	-----------------------------------------------------------
	 SCS Same-Spin Scale       =       0.3333333333333333 [-]
	 SCS Opposite-Spin Scale   =       1.2000000000000000 [-]
	 SCS Same-Spin Energy      =      -0.2218703409477819 [Eh]
	 SCS Opposite-Spin Energy  =      -2.4544991882915177 [Eh]
	 SCS Correlation Energy    =      -2.6763695292392997 [Eh]
	 SCS Total Energy          =    -686.2790074131905840 [Eh]
	-----------------------------------------------------------

  Dipole Moment: [D]
     X:     0.1732      Y:     1.5408      Z:     1.4072     Total:     2.0939

*** Psi4 exiting successfully. Buy a developer a beer!
