                               Psi4 1.3.2 release

  ==> Input File <==

--------------------------------------------------------------------------
#psi4
#
memory 32 gb

molecule  {
0 1
  O       -0.7087550    -1.1193400    -0.2546710
  O       -0.7529000     2.5454980     0.2011280
  O        1.9863450     1.9788980    -0.3426730
  O        2.9116540    -0.6744470     0.1695670
  O        0.9157630    -2.7262860    -0.0672430
  O       -3.4138550    -0.8877920     0.1899090
  C       -0.3205170     1.2520290    -0.2382820
  C        1.2466525     1.0600901     0.1275311
  C       -1.2273170     0.1250620     0.2312770
  C        1.5822600    -0.3816350    -0.2226430
  C        0.5842790    -1.4279170     0.2862350
  C       -2.6461720     0.2016390    -0.2964840
  H       -0.3421210     1.3021240    -1.3326030
  H        1.1389810     1.0438400     1.3116400
  H       -1.2614020     0.1027960     1.3365120
  H        1.5823060    -0.4261990    -1.3195550
  H        0.5265370    -1.4152780     1.3862880
  H       -2.6088310     0.2173240    -1.3960300
  H       -3.1281770     1.1200080     0.0454480
  H       -0.8264260     2.5110960     1.1737150
  H        1.5069660     2.8252470    -0.2509780
  H        3.0031740    -0.4532420     1.1134330
  H        1.2543330    -2.7122130    -0.9803670
  H       -2.8912910    -1.6827110    -0.0238270
units angstrom
no_reorient  #important for SAPT in psi4, default
symmetry c1  #important for SAPT in psi4, default
}

set PROPERTIES_ORIGIN ["COM"]
properties('MP2/aug-cc-pvtz', properties = ['dipole'])
--------------------------------------------------------------------------

    Molecular point group: c1
  Charge       = 0
  Multiplicity = 1
  Basis Set: AUG-CC-PVTZ
    Blend: AUG-CC-PVTZ
  Basis Set: (AUG-CC-PVTZ AUX)
    Blend: AUG-CC-PVTZ-JKFIT

    Orbital Energies [Eh]
    ---------------------

    Doubly Occupied:

       1A    -20.596319     2A    -20.593752     3A    -20.585694
       4A    -20.584466     5A    -20.574569     6A    -20.561237
       7A    -11.357780     8A    -11.317414     9A    -11.306703
      10A    -11.305914    11A    -11.302296    12A    -11.285715
      13A     -1.459204    14A     -1.436214    15A     -1.391444
      16A     -1.377917    17A     -1.369516    18A     -1.351561
      19A     -1.063907    20A     -1.047273    21A     -0.936876
      22A     -0.897858    23A     -0.852762    24A     -0.837457
      25A     -0.768468    26A     -0.736858    27A     -0.719323
      28A     -0.705499    29A     -0.696938    30A     -0.690131
      31A     -0.673654    32A     -0.657079    33A     -0.622618
      34A     -0.614663    35A     -0.599379    36A     -0.588457
      37A     -0.581687    38A     -0.563319    39A     -0.554275
      40A     -0.550608    41A     -0.525614    42A     -0.515460
      43A     -0.496131    44A     -0.483746    45A     -0.459360
      46A     -0.451304    47A     -0.438650    48A     -0.414171

  @DF-RHF Final Energy:  -683.57856926773832

   => Energetics <=

    Nuclear Repulsion Energy =            824.1852876091421649
    One-Electron Energy =               -2576.5252329953300432
    Two-Electron Energy =                1068.7613761184495615
    Total Energy =                       -683.5785692677384304
  Basis Set: (AUG-CC-PVTZ AUX)
    Blend: AUG-CC-PVTZ-RI
    Molecular point group: c1

    Geometry (in Angstrom), charge = 0, multiplicity = 1:

       Center              X                  Y                   Z               Mass
    ------------   -----------------  -----------------  -----------------  -----------------
         O           -0.728612040550    -1.109743571951    -0.243899289391    15.994914619570
         O           -0.772757040550     2.555094428049     0.211899710609    15.994914619570
         O            1.966487959450     1.988494428049    -0.331901289391    15.994914619570
         O            2.891796959450    -0.664850571951     0.180338710609    15.994914619570
         O            0.895905959450    -2.716689571951    -0.056471289391    15.994914619570
         O           -3.433712040550    -0.878195571951     0.200680710609    15.994914619570
         C           -0.340374040550     1.261625428049    -0.227510289391    12.000000000000
         C            1.226795459450     1.069686528049     0.138302810609    12.000000000000
         C           -1.247174040550     0.134658428049     0.242048710609    12.000000000000
         C            1.562402959450    -0.372038571951    -0.211871289391    12.000000000000
         C            0.564421959450    -1.418320571951     0.297006710609    12.000000000000
         C           -2.666029040550     0.211235428049    -0.285712289391    12.000000000000
         H           -0.361978040550     1.311720428049    -1.321831289391     1.007825032230
         H            1.119123959450     1.053436428049     1.322411710609     1.007825032230
         H           -1.281259040550     0.112392428049     1.347283710609     1.007825032230
         H            1.562448959450    -0.416602571951    -1.308783289391     1.007825032230
         H            0.506679959450    -1.405681571951     1.397059710609     1.007825032230
         H           -2.628688040550     0.226920428049    -1.385258289391     1.007825032230
         H           -3.148034040550     1.129604428049     0.056219710609     1.007825032230
         H           -0.846283040550     2.520692428049     1.184486710609     1.007825032230
         H            1.487108959450     2.834843428049    -0.240206289391     1.007825032230
         H            2.983316959450    -0.443645571951     1.124204710609     1.007825032230
         H            1.234475959450    -2.702616571951    -0.969595289391     1.007825032230
         H           -2.911148040550    -1.673114571951    -0.013055289391     1.007825032230

  Basis Set: AUG-CC-PVTZ
    Blend: AUG-CC-PVTZ
  Basis Set: (AUG-CC-PVTZ AUX)
    Blend: AUG-CC-PVTZ-JKFIT
	 Reference Energy          =    -683.5785692677383167 [Eh]
	 Singles Energy            =      -0.0000000000000000 [Eh]
	 Same-Spin Energy          =      -0.6659208382235531 [Eh]
	 Opposite-Spin Energy      =      -2.0440110820224788 [Eh]
	 Correlation Energy        =      -2.7099319202460319 [Eh]
	 Total Energy              =    -686.2885011879843660 [Eh]

	 ================> DF-SCS-MP2 Energies <==================
	-----------------------------------------------------------
	 SCS Same-Spin Scale       =       0.3333333333333333 [-]
	 SCS Opposite-Spin Scale   =       1.2000000000000000 [-]
	 SCS Same-Spin Energy      =      -0.2219736127411844 [Eh]
	 SCS Opposite-Spin Energy  =      -2.4528132984269746 [Eh]
	 SCS Correlation Energy    =      -2.6747869111681588 [Eh]
	 SCS Total Energy          =    -686.2533561789065288 [Eh]
	-----------------------------------------------------------

  Dipole Moment: [D]
     X:     0.5461      Y:     1.9924      Z:     1.0534     Total:     2.3190

*** Psi4 exiting successfully. Buy a developer a beer!
