                               Psi4 1.3.2 release

  ==> Input File <==

--------------------------------------------------------------------------
#psi4
#
memory 32 gb

molecule  {
0 1
  O       -0.7971246    -1.1348825    -0.2988765
  O       -0.7529000     2.5454980     0.2011280
  O        1.9863450     1.9788980    -0.3426730
  O        2.9116540    -0.6744470     0.1695670
  O        0.9157630    -2.7262860    -0.0672430
  O       -3.4138550    -0.8877920     0.1899090
  C       -0.3205170     1.2520290    -0.2382820
  C        1.1174580     1.0033160     0.2012620
  C       -1.2273170     0.1250620     0.2312770
  C        1.5822600    -0.3816350    -0.2226430
  C        0.5842790    -1.4279170     0.2862350
  C       -2.6461720     0.2016390    -0.2964840
  H       -0.3421210     1.3021240    -1.3326030
  H        1.1389810     1.0438400     1.3116400
  H       -1.2614020     0.1027960     1.3365120
  H        1.5823060    -0.4261990    -1.3195550
  H        0.5265370    -1.4152780     1.3862880
  H       -2.6088310     0.2173240    -1.3960300
  H       -3.1281770     1.1200080     0.0454480
  H       -0.8264260     2.5110960     1.1737150
  H        1.5069660     2.8252470    -0.2509780
  H        3.0031740    -0.4532420     1.1134330
  H        1.2543330    -2.7122130    -0.9803670
  H       -2.8912910    -1.6827110    -0.0238270
units angstrom
no_reorient  #important for SAPT in psi4, default
symmetry c1  #important for SAPT in psi4, default
}

set PROPERTIES_ORIGIN ["COM"]
properties('MP2/aug-cc-pvtz', properties = ['dipole'])
--------------------------------------------------------------------------

    Molecular point group: c1
  Charge       = 0
  Multiplicity = 1
  Basis Set: AUG-CC-PVTZ
    Blend: AUG-CC-PVTZ
  Basis Set: (AUG-CC-PVTZ AUX)
    Blend: AUG-CC-PVTZ-JKFIT

    Orbital Energies [Eh]
    ---------------------

    Doubly Occupied:

       1A    -20.598510     2A    -20.589781     3A    -20.589124
       4A    -20.584457     5A    -20.578522     6A    -20.557604
       7A    -11.366317     8A    -11.311667     9A    -11.310997
      10A    -11.310050    11A    -11.302804    12A    -11.281402
      13A     -1.428701    14A     -1.405150    15A     -1.389231
      16A     -1.371764    17A     -1.368069    18A     -1.344215
      19A     -1.082147    20A     -1.044155    21A     -0.946007
      22A     -0.894166    23A     -0.851757    24A     -0.838804
      25A     -0.751873    26A     -0.725574    27A     -0.721733
      28A     -0.708429    29A     -0.688604    30A     -0.674974
      31A     -0.657784    32A     -0.650723    33A     -0.621727
      34A     -0.614211    35A     -0.595369    36A     -0.587944
      37A     -0.569413    38A     -0.560569    39A     -0.556871
      40A     -0.545011    41A     -0.525794    42A     -0.520415
      43A     -0.502141    44A     -0.480554    45A     -0.474367
      46A     -0.461341    47A     -0.447361    48A     -0.433351

  @DF-RHF Final Energy:  -683.59193081199976

   => Energetics <=

    Nuclear Repulsion Energy =            822.6073957807717534
    One-Electron Energy =               -2573.5555826576255640
    Two-Electron Energy =                1067.3562560648540511
    Total Energy =                       -683.5919308119998732
  Basis Set: (AUG-CC-PVTZ AUX)
    Blend: AUG-CC-PVTZ-RI
    Molecular point group: c1

    Geometry (in Angstrom), charge = 0, multiplicity = 1:

       Center              X                  Y                   Z               Mass
    ------------   -----------------  -----------------  -----------------  -----------------
         O           -0.800521891357    -1.120121834122    -0.289091706297    15.994914619570
         O           -0.756297291357     2.560258665878     0.210912793703    15.994914619570
         O            1.982947708643     1.993658665878    -0.332888206297    15.994914619570
         O            2.908256708643    -0.659686334122     0.179351793703    15.994914619570
         O            0.912365708643    -2.711525334122    -0.057458206297    15.994914619570
         O           -3.417252291357    -0.873031334122     0.199693793703    15.994914619570
         C           -0.323914291357     1.266789665878    -0.228497206297    12.000000000000
         C            1.114060708643     1.018076665878     0.211046793703    12.000000000000
         C           -1.230714291357     0.139822665878     0.241061793703    12.000000000000
         C            1.578862708643    -0.366874334122    -0.212858206297    12.000000000000
         C            0.580881708643    -1.413156334122     0.296019793703    12.000000000000
         C           -2.649569291357     0.216399665878    -0.286699206297    12.000000000000
         H           -0.345518291357     1.316884665878    -1.322818206297     1.007825032230
         H            1.135583708643     1.058600665878     1.321424793703     1.007825032230
         H           -1.264799291357     0.117556665878     1.346296793703     1.007825032230
         H            1.578908708643    -0.411438334122    -1.309770206297     1.007825032230
         H            0.523139708643    -1.400517334122     1.396072793703     1.007825032230
         H           -2.612228291357     0.232084665878    -1.386245206297     1.007825032230
         H           -3.131574291357     1.134768665878     0.055232793703     1.007825032230
         H           -0.829823291357     2.525856665878     1.183499793703     1.007825032230
         H            1.503568708643     2.840007665878    -0.241193206297     1.007825032230
         H            2.999776708643    -0.438481334122     1.123217793703     1.007825032230
         H            1.250935708643    -2.697452334122    -0.970582206297     1.007825032230
         H           -2.894688291357    -1.667950334122    -0.014042206297     1.007825032230

  Basis Set: AUG-CC-PVTZ
    Blend: AUG-CC-PVTZ
  Basis Set: (AUG-CC-PVTZ AUX)
    Blend: AUG-CC-PVTZ-JKFIT
	 Reference Energy          =    -683.5919308119997595 [Eh]
	 Singles Energy            =      -0.0000000000000000 [Eh]
	 Same-Spin Energy          =      -0.6667634428734723 [Eh]
	 Opposite-Spin Energy      =      -2.0488207658573780 [Eh]
	 Correlation Energy        =      -2.7155842087308502 [Eh]
	 Total Energy              =    -686.3075150207306478 [Eh]

	 ================> DF-SCS-MP2 Energies <==================
	-----------------------------------------------------------
	 SCS Same-Spin Scale       =       0.3333333333333333 [-]
	 SCS Opposite-Spin Scale   =       1.2000000000000000 [-]
	 SCS Same-Spin Energy      =      -0.2222544809578241 [Eh]
	 SCS Opposite-Spin Energy  =      -2.4585849190288536 [Eh]
	 SCS Correlation Energy    =      -2.6808393999866778 [Eh]
	 SCS Total Energy          =    -686.2727702119864261 [Eh]
	-----------------------------------------------------------

  Dipole Moment: [D]
     X:     0.6836      Y:     1.5027      Z:     1.4664     Total:     2.2081

*** Psi4 exiting successfully. Buy a developer a beer!
