                               Psi4 1.3.2 release

  ==> Input File <==

--------------------------------------------------------------------------
#psi4
#
memory 32 gb

molecule  {
0 1
  O       -0.7087550    -1.1193400    -0.2546710
  O       -0.7529000     2.5454980     0.2011280
  O        1.9863450     1.9788980    -0.3426730
  O        2.9116540    -0.6744470     0.1695670
  O        0.9157630    -2.7262860    -0.0672430
  O       -3.4138550    -0.8877920     0.1899090
  C       -0.3205170     1.2520290    -0.2382820
  C        1.1174580     1.0033160     0.2012620
  C       -1.2273170     0.1250620     0.2312770
  C        1.5985485    -0.4144428    -0.0676943
  C        0.5842790    -1.4279170     0.2862350
  C       -2.6461720     0.2016390    -0.2964840
  H       -0.3421210     1.3021240    -1.3326030
  H        1.1389810     1.0438400     1.3116400
  H       -1.2614020     0.1027960     1.3365120
  H        1.5823060    -0.4261990    -1.3195550
  H        0.5265370    -1.4152780     1.3862880
  H       -2.6088310     0.2173240    -1.3960300
  H       -3.1281770     1.1200080     0.0454480
  H       -0.8264260     2.5110960     1.1737150
  H        1.5069660     2.8252470    -0.2509780
  H        3.0031740    -0.4532420     1.1134330
  H        1.2543330    -2.7122130    -0.9803670
  H       -2.8912910    -1.6827110    -0.0238270
units angstrom
no_reorient  #important for SAPT in psi4, default
symmetry c1  #important for SAPT in psi4, default
}

set PROPERTIES_ORIGIN ["COM"]
properties('MP2/aug-cc-pvtz', properties = ['dipole'])
--------------------------------------------------------------------------

    Molecular point group: c1
  Charge       = 0
  Multiplicity = 1
  Basis Set: AUG-CC-PVTZ
    Blend: AUG-CC-PVTZ
  Basis Set: (AUG-CC-PVTZ AUX)
    Blend: AUG-CC-PVTZ-JKFIT

    Orbital Energies [Eh]
    ---------------------

    Doubly Occupied:

       1A    -20.598587     2A    -20.594113     3A    -20.592066
       4A    -20.584470     5A    -20.579482     6A    -20.562895
       7A    -11.356671     8A    -11.314610     9A    -11.312058
      10A    -11.311283    11A    -11.308418    12A    -11.287390
      13A     -1.444563    14A     -1.414565    15A     -1.404107
      16A     -1.373844    17A     -1.372165    18A     -1.353838
      19A     -1.082127    20A     -1.055921    21A     -0.951677
      22A     -0.893807    23A     -0.852672    24A     -0.838105
      25A     -0.756166    26A     -0.738259    27A     -0.725827
      28A     -0.712076    29A     -0.692091    30A     -0.681403
      31A     -0.661947    32A     -0.658743    33A     -0.627796
      34A     -0.616383    35A     -0.600190    36A     -0.595885
      37A     -0.571761    38A     -0.563906    39A     -0.554733
      40A     -0.535925    41A     -0.529232    42A     -0.520699
      43A     -0.494461    44A     -0.484393    45A     -0.467242
      46A     -0.450947    47A     -0.446067    48A     -0.436264

  @DF-RHF Final Energy:  -683.57539971860979

   => Energetics <=

    Nuclear Repulsion Energy =            825.4375510524363335
    One-Electron Energy =               -2578.9022445742871241
    Two-Electron Energy =                1069.8892938032408892
    Total Energy =                       -683.5753997186097877
  Basis Set: (AUG-CC-PVTZ AUX)
    Blend: AUG-CC-PVTZ-RI
    Molecular point group: c1

    Geometry (in Angstrom), charge = 0, multiplicity = 1:

       Center              X                  Y                   Z               Mass
    ------------   -----------------  -----------------  -----------------  -----------------
         O           -0.721087623653    -1.103773547665    -0.259139229220    15.994914619570
         O           -0.765232623653     2.561064452335     0.196659770780    15.994914619570
         O            1.974012376347     1.994464452335    -0.347141229220    15.994914619570
         O            2.899321376347    -0.658880547665     0.165098770780    15.994914619570
         O            0.903430376347    -2.710719547665    -0.071711229220    15.994914619570
         O           -3.426187623653    -0.872225547665     0.185440770780    15.994914619570
         C           -0.332849623653     1.267595452335    -0.242750229220    12.000000000000
         C            1.105125376347     1.018882452335     0.196793770780    12.000000000000
         C           -1.239649623653     0.140628452335     0.226808770780    12.000000000000
         C            1.586215876347    -0.398876347665    -0.072162529220    12.000000000000
         C            0.571946376347    -1.412350547665     0.281766770780    12.000000000000
         C           -2.658504623653     0.217205452335    -0.300952229220    12.000000000000
         H           -0.354453623653     1.317690452335    -1.337071229220     1.007825032230
         H            1.126648376347     1.059406452335     1.307171770780     1.007825032230
         H           -1.273734623653     0.118362452335     1.332043770780     1.007825032230
         H            1.569973376347    -0.410632547665    -1.324023229220     1.007825032230
         H            0.514204376347    -1.399711547665     1.381819770780     1.007825032230
         H           -2.621163623653     0.232890452335    -1.400498229220     1.007825032230
         H           -3.140509623653     1.135574452335     0.040979770780     1.007825032230
         H           -0.838758623653     2.526662452335     1.169246770780     1.007825032230
         H            1.494633376347     2.840813452335    -0.255446229220     1.007825032230
         H            2.990841376347    -0.437675547665     1.108964770780     1.007825032230
         H            1.242000376347    -2.696646547665    -0.984835229220     1.007825032230
         H           -2.903623623653    -1.667144547665    -0.028295229220     1.007825032230

  Basis Set: AUG-CC-PVTZ
    Blend: AUG-CC-PVTZ
  Basis Set: (AUG-CC-PVTZ AUX)
    Blend: AUG-CC-PVTZ-JKFIT
	 Reference Energy          =    -683.5753997186097877 [Eh]
	 Singles Energy            =      -0.0000000000000000 [Eh]
	 Same-Spin Energy          =      -0.6671230211747201 [Eh]
	 Opposite-Spin Energy      =      -2.0472520460926633 [Eh]
	 Correlation Energy        =      -2.7143750672673832 [Eh]
	 Total Energy              =    -686.2897747858771709 [Eh]

	 ================> DF-SCS-MP2 Energies <==================
	-----------------------------------------------------------
	 SCS Same-Spin Scale       =       0.3333333333333333 [-]
	 SCS Opposite-Spin Scale   =       1.2000000000000000 [-]
	 SCS Same-Spin Energy      =      -0.2223743403915734 [Eh]
	 SCS Opposite-Spin Energy  =      -2.4567024553111958 [Eh]
	 SCS Correlation Energy    =      -2.6790767957027692 [Eh]
	 SCS Total Energy          =    -686.2544765143125005 [Eh]
	-----------------------------------------------------------

  Dipole Moment: [D]
     X:     0.4213      Y:     1.5985      Z:     1.5798     Total:     2.2866

*** Psi4 exiting successfully. Buy a developer a beer!
