                               Psi4 1.3.2 release

  ==> Input File <==

--------------------------------------------------------------------------
#psi4
#
memory 32 gb

molecule  {
0 1
  O       -0.7087550    -1.1193400    -0.2546710
  O       -0.7529000     2.5454980     0.2011280
  O        1.9863450     1.9788980    -0.3426730
  O        2.9116540    -0.6744470     0.1695670
  O        0.9157630    -2.7262860    -0.0672430
  O       -3.4138550    -0.8877920     0.1899090
  C       -0.3205170     1.2520290    -0.2382820
  C        1.1174580     1.0033160     0.2012620
  C       -1.2273170     0.1250620     0.2312770
  C        1.5822600    -0.3816350    -0.2226430
  C        0.5842790    -1.4279170     0.2862350
  C       -2.6795982     0.2010105    -0.1961062
  H       -0.3421210     1.3021240    -1.3326030
  H        1.1389810     1.0438400     1.3116400
  H       -1.2614020     0.1027960     1.3365120
  H        1.5823060    -0.4261990    -1.3195550
  H        0.5265370    -1.4152780     1.3862880
  H       -2.6088310     0.2173240    -1.3960300
  H       -3.1281770     1.1200080     0.0454480
  H       -0.8264260     2.5110960     1.1737150
  H        1.5069660     2.8252470    -0.2509780
  H        3.0031740    -0.4532420     1.1134330
  H        1.2543330    -2.7122130    -0.9803670
  H       -2.8912910    -1.6827110    -0.0238270
units angstrom
no_reorient  #important for SAPT in psi4, default
symmetry c1  #important for SAPT in psi4, default
}

set PROPERTIES_ORIGIN ["COM"]
properties('MP2/aug-cc-pvtz', properties = ['dipole'])
--------------------------------------------------------------------------

    Molecular point group: c1
  Charge       = 0
  Multiplicity = 1
  Basis Set: AUG-CC-PVTZ
    Blend: AUG-CC-PVTZ
  Basis Set: (AUG-CC-PVTZ AUX)
    Blend: AUG-CC-PVTZ-JKFIT

    Orbital Energies [Eh]
    ---------------------

    Doubly Occupied:

       1A    -20.598160     2A    -20.589379     3A    -20.584024
       4A    -20.579180     5A    -20.577370     6A    -20.567564
       7A    -11.357259     8A    -11.310729     9A    -11.309661
      10A    -11.307955    11A    -11.304992    12A    -11.291817
      13A     -1.440621    14A     -1.404904    15A     -1.391573
      16A     -1.382547    17A     -1.366772    18A     -1.359308
      19A     -1.080459    20A     -1.050095    21A     -0.946935
      22A     -0.890846    23A     -0.855917    24A     -0.841566
      25A     -0.756260    26A     -0.727904    27A     -0.721406
      28A     -0.709124    29A     -0.700132    30A     -0.678316
      31A     -0.661638    32A     -0.652723    33A     -0.626438
      34A     -0.616885    35A     -0.610221    36A     -0.585924
      37A     -0.571633    38A     -0.562800    39A     -0.556145
      40A     -0.542966    41A     -0.529879    42A     -0.516675
      43A     -0.503425    44A     -0.486325    45A     -0.474141
      46A     -0.455506    47A     -0.434293    48A     -0.429568

  @DF-RHF Final Energy:  -683.59379233100344

   => Energetics <=

    Nuclear Repulsion Energy =            824.8157468753925059
    One-Electron Energy =               -2577.8191589512916835
    Two-Electron Energy =                1069.4096197448957355
    Total Energy =                       -683.5937923310034421
  Basis Set: (AUG-CC-PVTZ AUX)
    Blend: AUG-CC-PVTZ-RI
    Molecular point group: c1

    Geometry (in Angstrom), charge = 0, multiplicity = 1:

       Center              X                  Y                   Z               Mass
    ------------   -----------------  -----------------  -----------------  -----------------
         O           -0.717774477064    -1.105918079122    -0.255502449934    15.994914619570
         O           -0.761919477064     2.558919920878     0.200296550066    15.994914619570
         O            1.977325522936     1.992319920878    -0.343504449934    15.994914619570
         O            2.902634522936    -0.661025079122     0.168735550066    15.994914619570
         O            0.906743522936    -2.712864079122    -0.068074449934    15.994914619570
         O           -3.422874477064    -0.874370079122     0.189077550066    15.994914619570
         C           -0.329536477064     1.265450920878    -0.239113449934    12.000000000000
         C            1.108438522936     1.016737920878     0.200430550066    12.000000000000
         C           -1.236336477064     0.138483920878     0.230445550066    12.000000000000
         C            1.573240522936    -0.368213079122    -0.223474449934    12.000000000000
         C            0.575259522936    -1.414495079122     0.285403550066    12.000000000000
         C           -2.688617677064     0.214432420878    -0.196937649934    12.000000000000
         H           -0.351140477064     1.315545920878    -1.333434449934     1.007825032230
         H            1.129961522936     1.057261920878     1.310808550066     1.007825032230
         H           -1.270421477064     0.116217920878     1.335680550066     1.007825032230
         H            1.573286522936    -0.412777079122    -1.320386449934     1.007825032230
         H            0.517517522936    -1.401856079122     1.385456550066     1.007825032230
         H           -2.617850477064     0.230745920878    -1.396861449934     1.007825032230
         H           -3.137196477064     1.133429920878     0.044616550066     1.007825032230
         H           -0.835445477064     2.524517920878     1.172883550066     1.007825032230
         H            1.497946522936     2.838668920878    -0.251809449934     1.007825032230
         H            2.994154522936    -0.439820079122     1.112601550066     1.007825032230
         H            1.245313522936    -2.698791079122    -0.981198449934     1.007825032230
         H           -2.900310477064    -1.669289079122    -0.024658449934     1.007825032230

  Basis Set: AUG-CC-PVTZ
    Blend: AUG-CC-PVTZ
  Basis Set: (AUG-CC-PVTZ AUX)
    Blend: AUG-CC-PVTZ-JKFIT
	 Reference Energy          =    -683.5937923310034421 [Eh]
	 Singles Energy            =      -0.0000000000000000 [Eh]
	 Same-Spin Energy          =      -0.6655684269551561 [Eh]
	 Opposite-Spin Energy      =      -2.0443717065525338 [Eh]
	 Correlation Energy        =      -2.7099401335076898 [Eh]
	 Total Energy              =    -686.3037324645110857 [Eh]

	 ================> DF-SCS-MP2 Energies <==================
	-----------------------------------------------------------
	 SCS Same-Spin Scale       =       0.3333333333333333 [-]
	 SCS Opposite-Spin Scale   =       1.2000000000000000 [-]
	 SCS Same-Spin Energy      =      -0.2218561423183854 [Eh]
	 SCS Opposite-Spin Energy  =      -2.4532460478630402 [Eh]
	 SCS Correlation Energy    =      -2.6751021901814256 [Eh]
	 SCS Total Energy          =    -686.2688945211848477 [Eh]
	-----------------------------------------------------------

  Dipole Moment: [D]
     X:     0.1118      Y:     1.4888      Z:     1.5743     Total:     2.1697

*** Psi4 exiting successfully. Buy a developer a beer!
