                               Psi4 1.3.2 release

  ==> Input File <==

--------------------------------------------------------------------------
#psi4
#
memory 32 gb

molecule  {
0 1
  O       -0.7087550    -1.1193400    -0.2546710
  O       -0.7529000     2.5454980     0.2011280
  O        1.9475032     1.9998967    -0.3648139
  O        2.9116540    -0.6744470     0.1695670
  O        0.9157630    -2.7262860    -0.0672430
  O       -3.4138550    -0.8877920     0.1899090
  C       -0.3205170     1.2520290    -0.2382820
  C        1.1174580     1.0033160     0.2012620
  C       -1.2273170     0.1250620     0.2312770
  C        1.5822600    -0.3816350    -0.2226430
  C        0.5842790    -1.4279170     0.2862350
  C       -2.6461720     0.2016390    -0.2964840
  H       -0.3421210     1.3021240    -1.3326030
  H        1.1389810     1.0438400     1.3116400
  H       -1.2614020     0.1027960     1.3365120
  H        1.5823060    -0.4261990    -1.3195550
  H        0.5265370    -1.4152780     1.3862880
  H       -2.6088310     0.2173240    -1.3960300
  H       -3.1281770     1.1200080     0.0454480
  H       -0.8264260     2.5110960     1.1737150
  H        1.5069660     2.8252470    -0.2509780
  H        3.0031740    -0.4532420     1.1134330
  H        1.2543330    -2.7122130    -0.9803670
  H       -2.8912910    -1.6827110    -0.0238270
units angstrom
no_reorient  #important for SAPT in psi4, default
symmetry c1  #important for SAPT in psi4, default
}

set PROPERTIES_ORIGIN ["COM"]
properties('MP2/aug-cc-pvtz', properties = ['dipole'])
--------------------------------------------------------------------------

    Molecular point group: c1
  Charge       = 0
  Multiplicity = 1
  Basis Set: AUG-CC-PVTZ
    Blend: AUG-CC-PVTZ
  Basis Set: (AUG-CC-PVTZ AUX)
    Blend: AUG-CC-PVTZ-JKFIT

    Orbital Energies [Eh]
    ---------------------

    Doubly Occupied:

       1A    -20.597407     2A    -20.588481     3A    -20.584296
       4A    -20.579976     5A    -20.573454     6A    -20.562296
       7A    -11.357558     8A    -11.310722     9A    -11.309043
      10A    -11.307149    11A    -11.306154    12A    -11.286747
      13A     -1.440428    14A     -1.407080    15A     -1.388349
      16A     -1.373232    17A     -1.368864    18A     -1.353013
      19A     -1.081784    20A     -1.051336    21A     -0.946007
      22A     -0.892537    23A     -0.855544    24A     -0.842102
      25A     -0.756111    26A     -0.730942    27A     -0.721904
      28A     -0.709559    29A     -0.693205    30A     -0.676057
      31A     -0.662878    32A     -0.657703    33A     -0.619713
      34A     -0.615401    35A     -0.597657    36A     -0.587585
      37A     -0.570085    38A     -0.562539    39A     -0.555628
      40A     -0.542091    41A     -0.527184    42A     -0.517127
      43A     -0.502950    44A     -0.487406    45A     -0.476196
      46A     -0.461820    47A     -0.446155    48A     -0.430790

  @DF-RHF Final Energy:  -683.60495486500349

   => Energetics <=

    Nuclear Repulsion Energy =            824.9747992517936837
    One-Electron Energy =               -2578.2150184527654346
    Two-Electron Energy =                1069.6352643359682588
    Total Energy =                       -683.6049548650034922
  Basis Set: (AUG-CC-PVTZ AUX)
    Blend: AUG-CC-PVTZ-RI
    Molecular point group: c1

    Geometry (in Angstrom), charge = 0, multiplicity = 1:

       Center              X                  Y                   Z               Mass
    ------------   -----------------  -----------------  -----------------  -----------------
         O           -0.716551813884    -1.107825265348    -0.246846190482    15.994914619570
         O           -0.760696813884     2.557012734652     0.208952809518    15.994914619570
         O            1.939706386116     2.011411434652    -0.356989090482    15.994914619570
         O            2.903857186116    -0.662932265348     0.177391809518    15.994914619570
         O            0.907966186116    -2.714771265348    -0.059418190482    15.994914619570
         O           -3.421651813884    -0.876277265348     0.197733809518    15.994914619570
         C           -0.328313813884     1.263543734652    -0.230457190482    12.000000000000
         C            1.109661186116     1.014830734652     0.209086809518    12.000000000000
         C           -1.235113813884     0.136576734652     0.239101809518    12.000000000000
         C            1.574463186116    -0.370120265348    -0.214818190482    12.000000000000
         C            0.576482186116    -1.416402265348     0.294059809518    12.000000000000
         C           -2.653968813884     0.213153734652    -0.288659190482    12.000000000000
         H           -0.349917813884     1.313638734652    -1.324778190482     1.007825032230
         H            1.131184186116     1.055354734652     1.319464809518     1.007825032230
         H           -1.269198813884     0.114310734652     1.344336809518     1.007825032230
         H            1.574509186116    -0.414684265348    -1.311730190482     1.007825032230
         H            0.518740186116    -1.403763265348     1.394112809518     1.007825032230
         H           -2.616627813884     0.228838734652    -1.388205190482     1.007825032230
         H           -3.135973813884     1.131522734652     0.053272809518     1.007825032230
         H           -0.834222813884     2.522610734652     1.181539809518     1.007825032230
         H            1.499169186116     2.836761734652    -0.243153190482     1.007825032230
         H            2.995377186116    -0.441727265348     1.121257809518     1.007825032230
         H            1.246536186116    -2.700698265348    -0.972542190482     1.007825032230
         H           -2.899087813884    -1.671196265348    -0.016002190482     1.007825032230

  Basis Set: AUG-CC-PVTZ
    Blend: AUG-CC-PVTZ
  Basis Set: (AUG-CC-PVTZ AUX)
    Blend: AUG-CC-PVTZ-JKFIT
	 Reference Energy          =    -683.6049548650034922 [Eh]
	 Singles Energy            =      -0.0000000000000000 [Eh]
	 Same-Spin Energy          =      -0.6649336307988044 [Eh]
	 Opposite-Spin Energy      =      -2.0436254326858432 [Eh]
	 Correlation Energy        =      -2.7085590634846475 [Eh]
	 Total Energy              =    -686.3135139284881916 [Eh]

	 ================> DF-SCS-MP2 Energies <==================
	-----------------------------------------------------------
	 SCS Same-Spin Scale       =       0.3333333333333333 [-]
	 SCS Opposite-Spin Scale   =       1.2000000000000000 [-]
	 SCS Same-Spin Energy      =      -0.2216445435996015 [Eh]
	 SCS Opposite-Spin Energy  =      -2.4523505192230117 [Eh]
	 SCS Correlation Energy    =      -2.6739950628226130 [Eh]
	 SCS Total Energy          =    -686.2789499278261474 [Eh]
	-----------------------------------------------------------

  Dipole Moment: [D]
     X:     0.2959      Y:     1.5619      Z:     1.4239     Total:     2.1341

*** Psi4 exiting successfully. Buy a developer a beer!
