                               Psi4 1.3.2 release

  ==> Input File <==

--------------------------------------------------------------------------
#psi4
#
memory 32 gb

molecule  {
0 1
  O       -0.6993696    -1.1215523    -0.2777889
  O       -0.7529000     2.5454980     0.2011280
  O        1.9863450     1.9788980    -0.3426730
  O        2.9116540    -0.6744470     0.1695670
  O        0.9157630    -2.7262860    -0.0672430
  O       -3.4138550    -0.8877920     0.1899090
  C       -0.3205170     1.2520290    -0.2382820
  C        1.1174580     1.0033160     0.2012620
  C       -1.2273170     0.1250620     0.2312770
  C        1.5822600    -0.3816350    -0.2226430
  C        0.5842790    -1.4279170     0.2862350
  C       -2.6461720     0.2016390    -0.2964840
  H       -0.3421210     1.3021240    -1.3326030
  H        1.1389810     1.0438400     1.3116400
  H       -1.2614020     0.1027960     1.3365120
  H        1.5823060    -0.4261990    -1.3195550
  H        0.5265370    -1.4152780     1.3862880
  H       -2.6088310     0.2173240    -1.3960300
  H       -3.1281770     1.1200080     0.0454480
  H       -0.8264260     2.5110960     1.1737150
  H        1.5069660     2.8252470    -0.2509780
  H        3.0031740    -0.4532420     1.1134330
  H        1.2543330    -2.7122130    -0.9803670
  H       -2.8912910    -1.6827110    -0.0238270
units angstrom
no_reorient  #important for SAPT in psi4, default
symmetry c1  #important for SAPT in psi4, default
}

set PROPERTIES_ORIGIN ["COM"]
properties('MP2/aug-cc-pvtz', properties = ['dipole'])
--------------------------------------------------------------------------

    Molecular point group: c1
  Charge       = 0
  Multiplicity = 1
  Basis Set: AUG-CC-PVTZ
    Blend: AUG-CC-PVTZ
  Basis Set: (AUG-CC-PVTZ AUX)
    Blend: AUG-CC-PVTZ-JKFIT

    Orbital Energies [Eh]
    ---------------------

    Doubly Occupied:

       1A    -20.598489     2A    -20.589020     3A    -20.582796
       4A    -20.578766     5A    -20.577443     6A    -20.563131
       7A    -11.356326     8A    -11.310766     9A    -11.309663
      10A    -11.309207    11A    -11.304440    12A    -11.287797
      13A     -1.438598    14A     -1.405138    15A     -1.387079
      16A     -1.371902    17A     -1.365734    18A     -1.352005
      19A     -1.081068    20A     -1.050440    21A     -0.946196
      22A     -0.890503    23A     -0.853782    24A     -0.842719
      25A     -0.753604    26A     -0.729060    27A     -0.720579
      28A     -0.709410    29A     -0.692843    30A     -0.674771
      31A     -0.659205    32A     -0.654569    33A     -0.620077
      34A     -0.615000    35A     -0.598273    36A     -0.587137
      37A     -0.569753    38A     -0.561484    39A     -0.555957
      40A     -0.543165    41A     -0.527152    42A     -0.516972
      43A     -0.503097    44A     -0.487078    45A     -0.474579
      46A     -0.462549    47A     -0.446936    48A     -0.431120

  @DF-RHF Final Energy:  -683.60300765105285

   => Energetics <=

    Nuclear Repulsion Energy =            824.4665999488528314
    One-Electron Energy =               -2577.2444596456643922
    Two-Electron Energy =                1069.1748520457585983
    Total Energy =                       -683.6030076510528488
  Basis Set: (AUG-CC-PVTZ AUX)
    Blend: AUG-CC-PVTZ-RI
    Molecular point group: c1

    Geometry (in Angstrom), charge = 0, multiplicity = 1:

       Center              X                  Y                   Z               Mass
    ------------   -----------------  -----------------  -----------------  -----------------
         O           -0.711450404953    -1.107975747189    -0.269877304203    15.994914619570
         O           -0.764980804953     2.559074552811     0.209039595797    15.994914619570
         O            1.974264195047     1.992474552811    -0.334761404203    15.994914619570
         O            2.899573195047    -0.660870447189     0.177478595797    15.994914619570
         O            0.903682195047    -2.712709447189    -0.059331404203    15.994914619570
         O           -3.425935804953    -0.874215447189     0.197820595797    15.994914619570
         C           -0.332597804953     1.265605552811    -0.230370404203    12.000000000000
         C            1.105377195047     1.016892552811     0.209173595797    12.000000000000
         C           -1.239397804953     0.138638552811     0.239188595797    12.000000000000
         C            1.570179195047    -0.368058447189    -0.214731404203    12.000000000000
         C            0.572198195047    -1.414340447189     0.294146595797    12.000000000000
         C           -2.658252804953     0.215215552811    -0.288572404203    12.000000000000
         H           -0.354201804953     1.315700552811    -1.324691404203     1.007825032230
         H            1.126900195047     1.057416552811     1.319551595797     1.007825032230
         H           -1.273482804953     0.116372552811     1.344423595797     1.007825032230
         H            1.570225195047    -0.412622447189    -1.311643404203     1.007825032230
         H            0.514456195047    -1.401701447189     1.394199595797     1.007825032230
         H           -2.620911804953     0.230900552811    -1.388118404203     1.007825032230
         H           -3.140257804953     1.133584552811     0.053359595797     1.007825032230
         H           -0.838506804953     2.524672552811     1.181626595797     1.007825032230
         H            1.494885195047     2.838823552811    -0.243066404203     1.007825032230
         H            2.991093195047    -0.439665447189     1.121344595797     1.007825032230
         H            1.242252195047    -2.698636447189    -0.972455404203     1.007825032230
         H           -2.903371804953    -1.669134447189    -0.015915404203     1.007825032230

  Basis Set: AUG-CC-PVTZ
    Blend: AUG-CC-PVTZ
  Basis Set: (AUG-CC-PVTZ AUX)
    Blend: AUG-CC-PVTZ-JKFIT
	 Reference Energy          =    -683.6030076510528488 [Eh]
	 Singles Energy            =      -0.0000000000000000 [Eh]
	 Same-Spin Energy          =      -0.6655483965989274 [Eh]
	 Opposite-Spin Energy      =      -2.0452861126926152 [Eh]
	 Correlation Energy        =      -2.7108345092915425 [Eh]
	 Total Energy              =    -686.3138421603443931 [Eh]

	 ================> DF-SCS-MP2 Energies <==================
	-----------------------------------------------------------
	 SCS Same-Spin Scale       =       0.3333333333333333 [-]
	 SCS Opposite-Spin Scale   =       1.2000000000000000 [-]
	 SCS Same-Spin Energy      =      -0.2218494655329758 [Eh]
	 SCS Opposite-Spin Energy  =      -2.4543433352311381 [Eh]
	 SCS Correlation Energy    =      -2.6761928007641140 [Eh]
	 SCS Total Energy          =    -686.2792004518170188 [Eh]
	-----------------------------------------------------------

  Dipole Moment: [D]
     X:     0.1759      Y:     1.6235      Z:     1.4125     Total:     2.1591

*** Psi4 exiting successfully. Buy a developer a beer!
