                               Psi4 1.3.2 release

  ==> Input File <==

--------------------------------------------------------------------------
#psi4
#
memory 32 gb

molecule  {
0 1
  O       -0.7087550    -1.1193400    -0.2546710
  O       -0.7529000     2.5454980     0.2011280
  O        1.9863450     1.9788980    -0.3426730
  O        2.9116540    -0.6744470     0.1695670
  O        0.9157630    -2.7262860    -0.0672430
  O       -3.4138550    -0.8877920     0.1899090
  C       -0.3205170     1.2520290    -0.2382820
  C        1.1600259     1.0239609     0.1771622
  C       -1.2273170     0.1250620     0.2312770
  C        1.5822600    -0.3816350    -0.2226430
  C        0.5842790    -1.4279170     0.2862350
  C       -2.6461720     0.2016390    -0.2964840
  H       -0.3421210     1.3021240    -1.3326030
  H        1.1389810     1.0438400     1.3116400
  H       -1.2614020     0.1027960     1.3365120
  H        1.5823060    -0.4261990    -1.3195550
  H        0.5265370    -1.4152780     1.3862880
  H       -2.6088310     0.2173240    -1.3960300
  H       -3.1281770     1.1200080     0.0454480
  H       -0.8264260     2.5110960     1.1737150
  H        1.5069660     2.8252470    -0.2509780
  H        3.0031740    -0.4532420     1.1134330
  H        1.2543330    -2.7122130    -0.9803670
  H       -2.8912910    -1.6827110    -0.0238270
units angstrom
no_reorient  #important for SAPT in psi4, default
symmetry c1  #important for SAPT in psi4, default
}

set PROPERTIES_ORIGIN ["COM"]
properties('MP2/aug-cc-pvtz', properties = ['dipole'])
--------------------------------------------------------------------------

    Molecular point group: c1
  Charge       = 0
  Multiplicity = 1
  Basis Set: AUG-CC-PVTZ
    Blend: AUG-CC-PVTZ
  Basis Set: (AUG-CC-PVTZ AUX)
    Blend: AUG-CC-PVTZ-JKFIT

    Orbital Energies [Eh]
    ---------------------

    Doubly Occupied:

       1A    -20.597642     2A    -20.587605     3A    -20.583983
       4A    -20.582554     5A    -20.577644     6A    -20.562299
       7A    -11.357131     8A    -11.311456     9A    -11.309417
      10A    -11.307448    11A    -11.303809    12A    -11.286864
      13A     -1.439894    14A     -1.414108    15A     -1.390485
      16A     -1.375828    17A     -1.369654    18A     -1.352646
      19A     -1.074770    20A     -1.049799    21A     -0.942942
      22A     -0.892774    23A     -0.853318    24A     -0.840278
      25A     -0.756999    26A     -0.732075    27A     -0.720899
      28A     -0.708289    29A     -0.691948    30A     -0.676963
      31A     -0.666934    32A     -0.657234    33A     -0.620446
      34A     -0.615029    35A     -0.598262    36A     -0.587421
      37A     -0.575399    38A     -0.562401    39A     -0.555609
      40A     -0.546319    41A     -0.526825    42A     -0.516471
      43A     -0.499957    44A     -0.486135    45A     -0.469560
      46A     -0.458632    47A     -0.443039    48A     -0.429823

  @DF-RHF Final Energy:  -683.60201621988028

   => Energetics <=

    Nuclear Repulsion Energy =            824.4682679060398414
    One-Electron Energy =               -2577.2065291334715766
    Two-Electron Energy =                1069.1362450075514516
    Total Energy =                       -683.6020162198803973
  Basis Set: (AUG-CC-PVTZ AUX)
    Blend: AUG-CC-PVTZ-RI
    Molecular point group: c1

    Geometry (in Angstrom), charge = 0, multiplicity = 1:

       Center              X                  Y                   Z               Mass
    ------------   -----------------  -----------------  -----------------  -----------------
         O           -0.722838966906    -1.107335806527    -0.247206864608    15.994914619570
         O           -0.766983966906     2.557502193473     0.208592135392    15.994914619570
         O            1.972261033094     1.990902193473    -0.335208864608    15.994914619570
         O            2.897570033094    -0.662442806527     0.177031135392    15.994914619570
         O            0.901679033094    -2.714281806527    -0.059778864608    15.994914619570
         O           -3.427938966906    -0.875787806527     0.197373135392    15.994914619570
         C           -0.334600966906     1.264033193473    -0.230817864608    12.000000000000
         C            1.145941933094     1.035965093473     0.184626335392    12.000000000000
         C           -1.241400966906     0.137066193473     0.238741135392    12.000000000000
         C            1.568176033094    -0.369630806527    -0.215178864608    12.000000000000
         C            0.570195033094    -1.415912806527     0.293699135392    12.000000000000
         C           -2.660255966906     0.213643193473    -0.289019864608    12.000000000000
         H           -0.356204966906     1.314128193473    -1.325138864608     1.007825032230
         H            1.124897033094     1.055844193473     1.319104135392     1.007825032230
         H           -1.275485966906     0.114800193473     1.343976135392     1.007825032230
         H            1.568222033094    -0.414194806527    -1.312090864608     1.007825032230
         H            0.512453033094    -1.403273806527     1.393752135392     1.007825032230
         H           -2.622914966906     0.229328193473    -1.388565864608     1.007825032230
         H           -3.142260966906     1.132012193473     0.052912135392     1.007825032230
         H           -0.840509966906     2.523100193473     1.181179135392     1.007825032230
         H            1.492882033094     2.837251193473    -0.243513864608     1.007825032230
         H            2.989090033094    -0.441237806527     1.120897135392     1.007825032230
         H            1.240249033094    -2.700208806527    -0.972902864608     1.007825032230
         H           -2.905374966906    -1.670706806527    -0.016362864608     1.007825032230

  Basis Set: AUG-CC-PVTZ
    Blend: AUG-CC-PVTZ
  Basis Set: (AUG-CC-PVTZ AUX)
    Blend: AUG-CC-PVTZ-JKFIT
	 Reference Energy          =    -683.6020162198802836 [Eh]
	 Singles Energy            =      -0.0000000000000000 [Eh]
	 Same-Spin Energy          =      -0.6653494660445574 [Eh]
	 Opposite-Spin Energy      =      -2.0441123675863144 [Eh]
	 Correlation Energy        =      -2.7094618336308720 [Eh]
	 Total Energy              =    -686.3114780535111095 [Eh]

	 ================> DF-SCS-MP2 Energies <==================
	-----------------------------------------------------------
	 SCS Same-Spin Scale       =       0.3333333333333333 [-]
	 SCS Opposite-Spin Scale   =       1.2000000000000000 [-]
	 SCS Same-Spin Energy      =      -0.2217831553481858 [Eh]
	 SCS Opposite-Spin Energy  =      -2.4529348411035774 [Eh]
	 SCS Correlation Energy    =      -2.6747179964517631 [Eh]
	 SCS Total Energy          =    -686.2767342163321018 [Eh]
	-----------------------------------------------------------

  Dipole Moment: [D]
     X:     0.3133      Y:     1.7221      Z:     1.2819     Total:     2.1696

*** Psi4 exiting successfully. Buy a developer a beer!
