                               Psi4 1.3.2 release

  ==> Input File <==

--------------------------------------------------------------------------
#psi4
#
memory 32 gb

molecule  {
0 1
  O       -0.7087550    -1.1193400    -0.2546710
  O       -0.7529000     2.5454980     0.2011280
  O        1.9863450     1.9788980    -0.3426730
  O        2.9116540    -0.6744470     0.1695670
  O        0.9157630    -2.7262860    -0.0672430
  O       -3.4138550    -0.8877920     0.1899090
  C       -0.3205170     1.2520290    -0.2382820
  C        1.1009602     1.0210387     0.2061342
  C       -1.2273170     0.1250620     0.2312770
  C        1.5822600    -0.3816350    -0.2226430
  C        0.5842790    -1.4279170     0.2862350
  C       -2.6461720     0.2016390    -0.2964840
  H       -0.3421210     1.3021240    -1.3326030
  H        1.1389810     1.0438400     1.3116400
  H       -1.2614020     0.1027960     1.3365120
  H        1.5823060    -0.4261990    -1.3195550
  H        0.5265370    -1.4152780     1.3862880
  H       -2.6088310     0.2173240    -1.3960300
  H       -3.1281770     1.1200080     0.0454480
  H       -0.8264260     2.5110960     1.1737150
  H        1.5069660     2.8252470    -0.2509780
  H        3.0031740    -0.4532420     1.1134330
  H        1.2543330    -2.7122130    -0.9803670
  H       -2.8912910    -1.6827110    -0.0238270
units angstrom
no_reorient  #important for SAPT in psi4, default
symmetry c1  #important for SAPT in psi4, default
}

set PROPERTIES_ORIGIN ["COM"]
properties('MP2/aug-cc-pvtz', properties = ['dipole'])
--------------------------------------------------------------------------

    Molecular point group: c1
  Charge       = 0
  Multiplicity = 1
  Basis Set: AUG-CC-PVTZ
    Blend: AUG-CC-PVTZ
  Basis Set: (AUG-CC-PVTZ AUX)
    Blend: AUG-CC-PVTZ-JKFIT

    Orbital Energies [Eh]
    ---------------------

    Doubly Occupied:

       1A    -20.597712     2A    -20.588460     3A    -20.583330
       4A    -20.579421     5A    -20.578150     6A    -20.562893
       7A    -11.356273     8A    -11.309988     9A    -11.309200
      10A    -11.308344    11A    -11.305523    12A    -11.287533
      13A     -1.439925    14A     -1.405650    15A     -1.387361
      16A     -1.372639    17A     -1.366176    18A     -1.353049
      19A     -1.081180    20A     -1.049472    21A     -0.947348
      22A     -0.889242    23A     -0.855103    24A     -0.842661
      25A     -0.753467    26A     -0.728986    27A     -0.722099
      28A     -0.709884    29A     -0.693901    30A     -0.675040
      31A     -0.659515    32A     -0.652441    33A     -0.620501
      34A     -0.615779    35A     -0.598045    36A     -0.587565
      37A     -0.571291    38A     -0.562583    39A     -0.556053
      40A     -0.543142    41A     -0.527340    42A     -0.516648
      43A     -0.502187    44A     -0.487273    45A     -0.473362
      46A     -0.463001    47A     -0.446738    48A     -0.431094

  @DF-RHF Final Energy:  -683.60315546646791

   => Energetics <=

    Nuclear Repulsion Energy =            824.6184921436387185
    One-Electron Energy =               -2577.5341573679147587
    Two-Electron Energy =                1069.3125097578079021
    Total Energy =                       -683.6031554664680243
  Basis Set: (AUG-CC-PVTZ AUX)
    Blend: AUG-CC-PVTZ-RI
    Molecular point group: c1

    Geometry (in Angstrom), charge = 0, multiplicity = 1:

       Center              X                  Y                   Z               Mass
    ------------   -----------------  -----------------  -----------------  -----------------
         O           -0.718902639775    -1.107141061774    -0.249137651337    15.994914619570
         O           -0.763047639775     2.557696938226     0.206661348663    15.994914619570
         O            1.976197360225     1.991096938226    -0.337139651337    15.994914619570
         O            2.901506360225    -0.662248061774     0.175100348663    15.994914619570
         O            0.905615360225    -2.714087061774    -0.061709651337    15.994914619570
         O           -3.424002639775    -0.875593061774     0.195442348663    15.994914619570
         C           -0.330664639775     1.264227938226    -0.232748651337    12.000000000000
         C            1.090812560225     1.033237638226     0.211667548663    12.000000000000
         C           -1.237464639775     0.137260938226     0.236810348663    12.000000000000
         C            1.572112360225    -0.369436061774    -0.217109651337    12.000000000000
         C            0.574131360225    -1.415718061774     0.291768348663    12.000000000000
         C           -2.656319639775     0.213837938226    -0.290950651337    12.000000000000
         H           -0.352268639775     1.314322938226    -1.327069651337     1.007825032230
         H            1.128833360225     1.056038938226     1.317173348663     1.007825032230
         H           -1.271549639775     0.114994938226     1.342045348663     1.007825032230
         H            1.572158360225    -0.414000061774    -1.314021651337     1.007825032230
         H            0.516389360225    -1.403079061774     1.391821348663     1.007825032230
         H           -2.618978639775     0.229522938226    -1.390496651337     1.007825032230
         H           -3.138324639775     1.132206938226     0.050981348663     1.007825032230
         H           -0.836573639775     2.523294938226     1.179248348663     1.007825032230
         H            1.496818360225     2.837445938226    -0.245444651337     1.007825032230
         H            2.993026360225    -0.441043061774     1.118966348663     1.007825032230
         H            1.244185360225    -2.700014061774    -0.974833651337     1.007825032230
         H           -2.901438639775    -1.670512061774    -0.018293651337     1.007825032230

  Basis Set: AUG-CC-PVTZ
    Blend: AUG-CC-PVTZ
  Basis Set: (AUG-CC-PVTZ AUX)
    Blend: AUG-CC-PVTZ-JKFIT
	 Reference Energy          =    -683.6031554664679106 [Eh]
	 Singles Energy            =      -0.0000000000000000 [Eh]
	 Same-Spin Energy          =      -0.6654907647446793 [Eh]
	 Opposite-Spin Energy      =      -2.0449942878186569 [Eh]
	 Correlation Energy        =      -2.7104850525633362 [Eh]
	 Total Energy              =    -686.3136405190311962 [Eh]

	 ================> DF-SCS-MP2 Energies <==================
	-----------------------------------------------------------
	 SCS Same-Spin Scale       =       0.3333333333333333 [-]
	 SCS Opposite-Spin Scale   =       1.2000000000000000 [-]
	 SCS Same-Spin Energy      =      -0.2218302549148931 [Eh]
	 SCS Opposite-Spin Energy  =      -2.4539931453823880 [Eh]
	 SCS Correlation Energy    =      -2.6758234002972809 [Eh]
	 SCS Total Energy          =    -686.2789788667652147 [Eh]
	-----------------------------------------------------------

  Dipole Moment: [D]
     X:     0.2197      Y:     1.6095      Z:     1.3732     Total:     2.1271

*** Psi4 exiting successfully. Buy a developer a beer!
