                               Psi4 1.3.2 release

  ==> Input File <==

--------------------------------------------------------------------------
#psi4
#
memory 32 gb

molecule  {
0 1
  O       -0.7087550    -1.1193400    -0.2546710
  O       -0.7529000     2.5454980     0.2011280
  O        1.9863450     1.9788980    -0.3426730
  O        2.9116540    -0.6744470     0.1695670
  O        0.9157630    -2.7262860    -0.0672430
  O       -3.4138550    -0.8877920     0.1899090
  C       -0.3205170     1.2520290    -0.2382820
  C        1.1174580     1.0033160     0.2012620
  C       -1.2903122     0.1257746     0.3768911
  C        1.5822600    -0.3816350    -0.2226430
  C        0.5842790    -1.4279170     0.2862350
  C       -2.6461720     0.2016390    -0.2964840
  H       -0.3421210     1.3021240    -1.3326030
  H        1.1389810     1.0438400     1.3116400
  H       -1.2614020     0.1027960     1.3365120
  H        1.5823060    -0.4261990    -1.3195550
  H        0.5265370    -1.4152780     1.3862880
  H       -2.6088310     0.2173240    -1.3960300
  H       -3.1281770     1.1200080     0.0454480
  H       -0.8264260     2.5110960     1.1737150
  H        1.5069660     2.8252470    -0.2509780
  H        3.0031740    -0.4532420     1.1134330
  H        1.2543330    -2.7122130    -0.9803670
  H       -2.8912910    -1.6827110    -0.0238270
units angstrom
no_reorient  #important for SAPT in psi4, default
symmetry c1  #important for SAPT in psi4, default
}

set PROPERTIES_ORIGIN ["COM"]
properties('MP2/aug-cc-pvtz', properties = ['dipole'])
--------------------------------------------------------------------------

    Molecular point group: c1
  Charge       = 0
  Multiplicity = 1
  Basis Set: AUG-CC-PVTZ
    Blend: AUG-CC-PVTZ
  Basis Set: (AUG-CC-PVTZ AUX)
    Blend: AUG-CC-PVTZ-JKFIT

    Orbital Energies [Eh]
    ---------------------

    Doubly Occupied:

       1A    -20.595122     2A    -20.580967     3A    -20.579738
       4A    -20.576980     5A    -20.576884     6A    -20.560809
       7A    -11.351873     8A    -11.314807     9A    -11.308334
      10A    -11.306116    11A    -11.302099    12A    -11.290167
      13A     -1.427733    14A     -1.403042    15A     -1.383950
      16A     -1.369208    17A     -1.364472    18A     -1.341377
      19A     -1.073118    20A     -1.047936    21A     -0.944795
      22A     -0.883549    23A     -0.867163    24A     -0.845812
      25A     -0.748451    26A     -0.732404    27A     -0.715476
      28A     -0.704910    29A     -0.685253    30A     -0.674006
      31A     -0.654888    32A     -0.653061    33A     -0.619256
      34A     -0.615215    35A     -0.599577    36A     -0.596663
      37A     -0.566925    38A     -0.559641    39A     -0.557525
      40A     -0.545149    41A     -0.518802    42A     -0.516103
      43A     -0.497008    44A     -0.482549    45A     -0.471379
      46A     -0.465712    47A     -0.445185    48A     -0.422272

  @DF-RHF Final Energy:  -683.57258226028353

   => Energetics <=

    Nuclear Repulsion Energy =            822.6086901445153217
    One-Electron Energy =               -2573.6756240802460525
    Two-Electron Energy =                1067.4943516754472057
    Total Energy =                       -683.5725822602835251
  Basis Set: (AUG-CC-PVTZ AUX)
    Blend: AUG-CC-PVTZ-RI
    Molecular point group: c1

    Geometry (in Angstrom), charge = 0, multiplicity = 1:

       Center              X                  Y                   Z               Mass
    ------------   -----------------  -----------------  -----------------  -----------------
         O           -0.715803904347    -1.106007454314    -0.258517141625    15.994914619570
         O           -0.759948904347     2.558830545686     0.197281858375    15.994914619570
         O            1.979296095653     1.992230545686    -0.346519141625    15.994914619570
         O            2.904605095653    -0.661114454314     0.165720858375    15.994914619570
         O            0.908714095653    -2.712953454314    -0.071089141625    15.994914619570
         O           -3.420903904347    -0.874459454314     0.186062858375    15.994914619570
         C           -0.327565904347     1.265361545686    -0.242128141625    12.000000000000
         C            1.110409095653     1.016648545686     0.197415858375    12.000000000000
         C           -1.297361104347     0.139107145686     0.373044958375    12.000000000000
         C            1.575211095653    -0.368302454314    -0.226489141625    12.000000000000
         C            0.577230095653    -1.414584454314     0.282388858375    12.000000000000
         C           -2.653220904347     0.214971545686    -0.300330141625    12.000000000000
         H           -0.349169904347     1.315456545686    -1.336449141625     1.007825032230
         H            1.131932095653     1.057172545686     1.307793858375     1.007825032230
         H           -1.268450904347     0.116128545686     1.332665858375     1.007825032230
         H            1.575257095653    -0.412866454314    -1.323401141625     1.007825032230
         H            0.519488095653    -1.401945454314     1.382441858375     1.007825032230
         H           -2.615879904347     0.230656545686    -1.399876141625     1.007825032230
         H           -3.135225904347     1.133340545686     0.041601858375     1.007825032230
         H           -0.833474904347     2.524428545686     1.169868858375     1.007825032230
         H            1.499917095653     2.838579545686    -0.254824141625     1.007825032230
         H            2.996125095653    -0.439909454314     1.109586858375     1.007825032230
         H            1.247284095653    -2.698880454314    -0.984213141625     1.007825032230
         H           -2.898339904347    -1.669378454314    -0.027673141625     1.007825032230

  Basis Set: AUG-CC-PVTZ
    Blend: AUG-CC-PVTZ
  Basis Set: (AUG-CC-PVTZ AUX)
    Blend: AUG-CC-PVTZ-JKFIT
	 Reference Energy          =    -683.5725822602835251 [Eh]
	 Singles Energy            =      -0.0000000000000000 [Eh]
	 Same-Spin Energy          =      -0.6654294062143722 [Eh]
	 Opposite-Spin Energy      =      -2.0470169092168278 [Eh]
	 Correlation Energy        =      -2.7124463154312002 [Eh]
	 Total Energy              =    -686.2850285757147049 [Eh]

	 ================> DF-SCS-MP2 Energies <==================
	-----------------------------------------------------------
	 SCS Same-Spin Scale       =       0.3333333333333333 [-]
	 SCS Opposite-Spin Scale   =       1.2000000000000000 [-]
	 SCS Same-Spin Energy      =      -0.2218098020714574 [Eh]
	 SCS Opposite-Spin Energy  =      -2.4564202910601933 [Eh]
	 SCS Correlation Energy    =      -2.6782300931316509 [Eh]
	 SCS Total Energy          =    -686.2508123534151991 [Eh]
	-----------------------------------------------------------

  Dipole Moment: [D]
     X:     0.0225      Y:     1.7319      Z:     1.5309     Total:     2.3116

*** Psi4 exiting successfully. Buy a developer a beer!
