                               Psi4 1.3.2 release

  ==> Input File <==

--------------------------------------------------------------------------
#psi4
#
memory 32 gb

molecule  {
0 1
  O       -0.7087550    -1.1193400    -0.2546710
  O       -0.7529000     2.5454980     0.2011280
  O        1.9863450     1.9788980    -0.3426730
  O        2.9116540    -0.6744470     0.1695670
  O        0.9157630    -2.7262860    -0.0672430
  O       -3.4138550    -0.8877920     0.1899090
  C       -0.3205170     1.2520290    -0.2382820
  C        1.1174580     1.0033160     0.2012620
  C       -1.2478776     0.1216411     0.2174530
  C        1.5822600    -0.3816350    -0.2226430
  C        0.5842790    -1.4279170     0.2862350
  C       -2.6461720     0.2016390    -0.2964840
  H       -0.3421210     1.3021240    -1.3326030
  H        1.1389810     1.0438400     1.3116400
  H       -1.2614020     0.1027960     1.3365120
  H        1.5823060    -0.4261990    -1.3195550
  H        0.5265370    -1.4152780     1.3862880
  H       -2.6088310     0.2173240    -1.3960300
  H       -3.1281770     1.1200080     0.0454480
  H       -0.8264260     2.5110960     1.1737150
  H        1.5069660     2.8252470    -0.2509780
  H        3.0031740    -0.4532420     1.1134330
  H        1.2543330    -2.7122130    -0.9803670
  H       -2.8912910    -1.6827110    -0.0238270
units angstrom
no_reorient  #important for SAPT in psi4, default
symmetry c1  #important for SAPT in psi4, default
}

set PROPERTIES_ORIGIN ["COM"]
properties('MP2/aug-cc-pvtz', properties = ['dipole'])
--------------------------------------------------------------------------

    Molecular point group: c1
  Charge       = 0
  Multiplicity = 1
  Basis Set: AUG-CC-PVTZ
    Blend: AUG-CC-PVTZ
  Basis Set: (AUG-CC-PVTZ AUX)
    Blend: AUG-CC-PVTZ-JKFIT

    Orbital Energies [Eh]
    ---------------------

    Doubly Occupied:

       1A    -20.598029     2A    -20.587771     3A    -20.583974
       4A    -20.579186     5A    -20.577751     6A    -20.563006
       7A    -11.357225     8A    -11.310928     9A    -11.310040
      10A    -11.309093    11A    -11.305049    12A    -11.286701
      13A     -1.439851    14A     -1.404880    15A     -1.387775
      16A     -1.373163    17A     -1.366006    18A     -1.353131
      19A     -1.079887    20A     -1.053492    21A     -0.948313
      22A     -0.891073    23A     -0.854330    24A     -0.840583
      25A     -0.754154    26A     -0.729768    27A     -0.721017
      28A     -0.709294    29A     -0.693850    30A     -0.675578
      31A     -0.660418    32A     -0.655040    33A     -0.620100
      34A     -0.615862    35A     -0.598638    36A     -0.587488
      37A     -0.570494    38A     -0.562079    39A     -0.555900
      40A     -0.543136    41A     -0.527909    42A     -0.516001
      43A     -0.501103    44A     -0.487842    45A     -0.473459
      46A     -0.462054    47A     -0.448368    48A     -0.430901

  @DF-RHF Final Energy:  -683.60323427343894

   => Energetics <=

    Nuclear Repulsion Energy =            824.5896605702707802
    One-Electron Energy =               -2577.4624168577615819
    Two-Electron Energy =                1069.2695220140519723
    Total Energy =                       -683.6032342734388294
  Basis Set: (AUG-CC-PVTZ AUX)
    Blend: AUG-CC-PVTZ-RI
    Molecular point group: c1

    Geometry (in Angstrom), charge = 0, multiplicity = 1:

       Center              X                  Y                   Z               Mass
    ------------   -----------------  -----------------  -----------------  -----------------
         O           -0.718631881791    -1.105731984656    -0.247891676781    15.994914619570
         O           -0.762776881791     2.559106015344     0.207907323219    15.994914619570
         O            1.976468118209     1.992506015344    -0.335893676781    15.994914619570
         O            2.901777118209    -0.660838984656     0.176346323219    15.994914619570
         O            0.905886118209    -2.712677984656    -0.060463676781    15.994914619570
         O           -3.423731881791    -0.874183984656     0.196688323219    15.994914619570
         C           -0.330393881791     1.265637015344    -0.231502676781    12.000000000000
         C            1.107581118209     1.016924015344     0.208041323219    12.000000000000
         C           -1.257754481791     0.135249115344     0.224232323219    12.000000000000
         C            1.572383118209    -0.368026984656    -0.215863676781    12.000000000000
         C            0.574402118209    -1.414308984656     0.293014323219    12.000000000000
         C           -2.656048881791     0.215247015344    -0.289704676781    12.000000000000
         H           -0.351997881791     1.315732015344    -1.325823676781     1.007825032230
         H            1.129104118209     1.057448015344     1.318419323219     1.007825032230
         H           -1.271278881791     0.116404015344     1.343291323219     1.007825032230
         H            1.572429118209    -0.412590984656    -1.312775676781     1.007825032230
         H            0.516660118209    -1.401669984656     1.393067323219     1.007825032230
         H           -2.618707881791     0.230932015344    -1.389250676781     1.007825032230
         H           -3.138053881791     1.133616015344     0.052227323219     1.007825032230
         H           -0.836302881791     2.524704015344     1.180494323219     1.007825032230
         H            1.497089118209     2.838855015344    -0.244198676781     1.007825032230
         H            2.993297118209    -0.439633984656     1.120212323219     1.007825032230
         H            1.244456118209    -2.698604984656    -0.973587676781     1.007825032230
         H           -2.901167881791    -1.669102984656    -0.017047676781     1.007825032230

  Basis Set: AUG-CC-PVTZ
    Blend: AUG-CC-PVTZ
  Basis Set: (AUG-CC-PVTZ AUX)
    Blend: AUG-CC-PVTZ-JKFIT
	 Reference Energy          =    -683.6032342734389431 [Eh]
	 Singles Energy            =      -0.0000000000000000 [Eh]
	 Same-Spin Energy          =      -0.6654874749469841 [Eh]
	 Opposite-Spin Energy      =      -2.0448082850855114 [Eh]
	 Correlation Energy        =      -2.7102957600324955 [Eh]
	 Total Energy              =    -686.3135300334714657 [Eh]

	 ================> DF-SCS-MP2 Energies <==================
	-----------------------------------------------------------
	 SCS Same-Spin Scale       =       0.3333333333333333 [-]
	 SCS Opposite-Spin Scale   =       1.2000000000000000 [-]
	 SCS Same-Spin Energy      =      -0.2218291583156614 [Eh]
	 SCS Opposite-Spin Energy  =      -2.4537699421026136 [Eh]
	 SCS Correlation Energy    =      -2.6755991004182751 [Eh]
	 SCS Total Energy          =    -686.2788333738571964 [Eh]
	-----------------------------------------------------------

  Dipole Moment: [D]
     X:     0.2051      Y:     1.6037      Z:     1.3510     Total:     2.1069

*** Psi4 exiting successfully. Buy a developer a beer!
