                               Psi4 1.3.2 release

  ==> Input File <==

--------------------------------------------------------------------------
#psi4
#
memory 32 gb

molecule  {
0 1
  O       -0.7106031    -1.1654242    -0.2742236
  O       -0.7529000     2.5454980     0.2011280
  O        1.9863450     1.9788980    -0.3426730
  O        2.9116540    -0.6744470     0.1695670
  O        0.9157630    -2.7262860    -0.0672430
  O       -3.4138550    -0.8877920     0.1899090
  C       -0.3205170     1.2520290    -0.2382820
  C        1.1174580     1.0033160     0.2012620
  C       -1.2273170     0.1250620     0.2312770
  C        1.5822600    -0.3816350    -0.2226430
  C        0.5842790    -1.4279170     0.2862350
  C       -2.6461720     0.2016390    -0.2964840
  H       -0.3421210     1.3021240    -1.3326030
  H        1.1389810     1.0438400     1.3116400
  H       -1.2614020     0.1027960     1.3365120
  H        1.5823060    -0.4261990    -1.3195550
  H        0.5265370    -1.4152780     1.3862880
  H       -2.6088310     0.2173240    -1.3960300
  H       -3.1281770     1.1200080     0.0454480
  H       -0.8264260     2.5110960     1.1737150
  H        1.5069660     2.8252470    -0.2509780
  H        3.0031740    -0.4532420     1.1134330
  H        1.2543330    -2.7122130    -0.9803670
  H       -2.8912910    -1.6827110    -0.0238270
units angstrom
no_reorient  #important for SAPT in psi4, default
symmetry c1  #important for SAPT in psi4, default
}

set PROPERTIES_ORIGIN ["COM"]
properties('MP2/aug-cc-pvtz', properties = ['dipole'])
--------------------------------------------------------------------------

    Molecular point group: c1
  Charge       = 0
  Multiplicity = 1
  Basis Set: AUG-CC-PVTZ
    Blend: AUG-CC-PVTZ
  Basis Set: (AUG-CC-PVTZ AUX)
    Blend: AUG-CC-PVTZ-JKFIT

    Orbital Energies [Eh]
    ---------------------

    Doubly Occupied:

       1A    -20.600579     2A    -20.589900     3A    -20.579987
       4A    -20.579562     5A    -20.578047     6A    -20.562804
       7A    -11.354808     8A    -11.313095     9A    -11.311768
      10A    -11.310451    11A    -11.305180    12A    -11.288550
      13A     -1.434772    14A     -1.406451    15A     -1.387017
      16A     -1.370228    17A     -1.366257    18A     -1.347004
      19A     -1.083604    20A     -1.048501    21A     -0.946731
      22A     -0.890010    23A     -0.853474    24A     -0.842602
      25A     -0.751738    26A     -0.727884    27A     -0.720827
      28A     -0.709026    29A     -0.691344    30A     -0.674245
      31A     -0.657170    32A     -0.654109    33A     -0.621389
      34A     -0.614801    35A     -0.598363    36A     -0.586920
      37A     -0.569897    38A     -0.560817    39A     -0.556617
      40A     -0.543440    41A     -0.525341    42A     -0.514573
      43A     -0.503505    44A     -0.486901    45A     -0.475785
      46A     -0.463353    47A     -0.446859    48A     -0.433454

  @DF-RHF Final Energy:  -683.60006574883369

   => Energetics <=

    Nuclear Repulsion Energy =            823.4533897128538911
    One-Electron Energy =               -2575.2274296446175867
    Two-Electron Energy =                1068.1739741829298964
    Total Energy =                       -683.6000657488336856
  Basis Set: (AUG-CC-PVTZ AUX)
    Blend: AUG-CC-PVTZ-RI
    Molecular point group: c1

    Geometry (in Angstrom), charge = 0, multiplicity = 1:

       Center              X                  Y                   Z               Mass
    ------------   -----------------  -----------------  -----------------  -----------------
         O           -0.721686040394    -1.147950534611    -0.266628707502    15.994914619570
         O           -0.763982940394     2.562971665389     0.208722892498    15.994914619570
         O            1.975262059606     1.996371665389    -0.335078107502    15.994914619570
         O            2.900571059606    -0.656973334611     0.177161892498    15.994914619570
         O            0.904680059606    -2.708812334611    -0.059648107502    15.994914619570
         O           -3.424937940394    -0.870318334611     0.197503892498    15.994914619570
         C           -0.331599940394     1.269502665389    -0.230687107502    12.000000000000
         C            1.106375059606     1.020789665389     0.208856892498    12.000000000000
         C           -1.238399940394     0.142535665389     0.238871892498    12.000000000000
         C            1.571177059606    -0.364161334611    -0.215048107502    12.000000000000
         C            0.573196059606    -1.410443334611     0.293829892498    12.000000000000
         C           -2.657254940394     0.219112665389    -0.288889107502    12.000000000000
         H           -0.353203940394     1.319597665389    -1.325008107502     1.007825032230
         H            1.127898059606     1.061313665389     1.319234892498     1.007825032230
         H           -1.272484940394     0.120269665389     1.344106892498     1.007825032230
         H            1.571223059606    -0.408725334611    -1.311960107502     1.007825032230
         H            0.515454059606    -1.397804334611     1.393882892498     1.007825032230
         H           -2.619913940394     0.234797665389    -1.388435107502     1.007825032230
         H           -3.139259940394     1.137481665389     0.053042892498     1.007825032230
         H           -0.837508940394     2.528569665389     1.181309892498     1.007825032230
         H            1.495883059606     2.842720665389    -0.243383107502     1.007825032230
         H            2.992091059606    -0.435768334611     1.121027892498     1.007825032230
         H            1.243250059606    -2.694739334611    -0.972772107502     1.007825032230
         H           -2.902373940394    -1.665237334611    -0.016232107502     1.007825032230

  Basis Set: AUG-CC-PVTZ
    Blend: AUG-CC-PVTZ
  Basis Set: (AUG-CC-PVTZ AUX)
    Blend: AUG-CC-PVTZ-JKFIT
	 Reference Energy          =    -683.6000657488336856 [Eh]
	 Singles Energy            =      -0.0000000000000000 [Eh]
	 Same-Spin Energy          =      -0.6657938814776444 [Eh]
	 Opposite-Spin Energy      =      -2.0463662744438604 [Eh]
	 Correlation Energy        =      -2.7121601559215049 [Eh]
	 Total Energy              =    -686.3122259047552234 [Eh]

	 ================> DF-SCS-MP2 Energies <==================
	-----------------------------------------------------------
	 SCS Same-Spin Scale       =       0.3333333333333333 [-]
	 SCS Opposite-Spin Scale   =       1.2000000000000000 [-]
	 SCS Same-Spin Energy      =      -0.2219312938258814 [Eh]
	 SCS Opposite-Spin Energy  =      -2.4556395293326325 [Eh]
	 SCS Correlation Energy    =      -2.6775708231585140 [Eh]
	 SCS Total Energy          =    -686.2776365719921614 [Eh]
	-----------------------------------------------------------

  Dipole Moment: [D]
     X:     0.1834      Y:     1.7691      Z:     1.4190     Total:     2.2752

*** Psi4 exiting successfully. Buy a developer a beer!
