                               Psi4 1.3.2 release

  ==> Input File <==

--------------------------------------------------------------------------
#psi4
#
memory 32 gb

molecule  {
0 1
  O       -0.7087550    -1.1193400    -0.2546710
  O       -0.7529000     2.5454980     0.2011280
  O        1.9863450     1.9788980    -0.3426730
  O        2.9116540    -0.6744470     0.1695670
  O        0.9157630    -2.7262860    -0.0672430
  O       -3.4138550    -0.8877920     0.1899090
  C       -0.3205170     1.2520290    -0.2382820
  C        1.1174580     1.0033160     0.2012620
  C       -1.2273170     0.1250620     0.2312770
  C        1.5822600    -0.3816350    -0.2226430
  C        0.5842790    -1.4279170     0.2862350
  C       -2.6058333     0.2018944    -0.3942906
  H       -0.3421210     1.3021240    -1.3326030
  H        1.1389810     1.0438400     1.3116400
  H       -1.2614020     0.1027960     1.3365120
  H        1.5823060    -0.4261990    -1.3195550
  H        0.5265370    -1.4152780     1.3862880
  H       -2.6088310     0.2173240    -1.3960300
  H       -3.1281770     1.1200080     0.0454480
  H       -0.8264260     2.5110960     1.1737150
  H        1.5069660     2.8252470    -0.2509780
  H        3.0031740    -0.4532420     1.1134330
  H        1.2543330    -2.7122130    -0.9803670
  H       -2.8912910    -1.6827110    -0.0238270
units angstrom
no_reorient  #important for SAPT in psi4, default
symmetry c1  #important for SAPT in psi4, default
}

set PROPERTIES_ORIGIN ["COM"]
properties('MP2/aug-cc-pvtz', properties = ['dipole'])
--------------------------------------------------------------------------

    Molecular point group: c1
  Charge       = 0
  Multiplicity = 1
  Basis Set: AUG-CC-PVTZ
    Blend: AUG-CC-PVTZ
  Basis Set: (AUG-CC-PVTZ AUX)
    Blend: AUG-CC-PVTZ-JKFIT

    Orbital Energies [Eh]
    ---------------------

    Doubly Occupied:

       1A    -20.598690     2A    -20.588239     3A    -20.583801
       4A    -20.579514     5A    -20.577767     6A    -20.559104
       7A    -11.356833     8A    -11.310838     9A    -11.310206
      10A    -11.309842    11A    -11.305421    12A    -11.286295
      13A     -1.440365    14A     -1.405461    15A     -1.387596
      16A     -1.369595    17A     -1.364796    18A     -1.338312
      19A     -1.081935    20A     -1.053174    21A     -0.947391
      22A     -0.892067    23A     -0.856972    24A     -0.845027
      25A     -0.752584    26A     -0.731226    27A     -0.721011
      28A     -0.711104    29A     -0.688937    30A     -0.674746
      31A     -0.660832    32A     -0.656010    33A     -0.619935
      34A     -0.619034    35A     -0.591654    36A     -0.580067
      37A     -0.565465    38A     -0.561776    39A     -0.553848
      40A     -0.543744    41A     -0.524553    42A     -0.517124
      43A     -0.503402    44A     -0.486588    45A     -0.474961
      46A     -0.471245    47A     -0.448287    48A     -0.430095

  @DF-RHF Final Energy:  -683.58890508326431

   => Energetics <=

    Nuclear Repulsion Energy =            824.5482998657734015
    One-Electron Energy =               -2577.3994704824581277
    Two-Electron Energy =                1069.2622655334203046
    Total Energy =                       -683.5889050832643079
  Basis Set: (AUG-CC-PVTZ AUX)
    Blend: AUG-CC-PVTZ-RI
    Molecular point group: c1

    Geometry (in Angstrom), charge = 0, multiplicity = 1:

       Center              X                  Y                   Z               Mass
    ------------   -----------------  -----------------  -----------------  -----------------
         O           -0.722690405890    -1.105976985044    -0.242294807753    15.994914619570
         O           -0.766835405890     2.558861014956     0.213504192247    15.994914619570
         O            1.972409594110     1.992261014956    -0.330296807753    15.994914619570
         O            2.897718594110    -0.661083985044     0.181943192247    15.994914619570
         O            0.901827594110    -2.712922985044    -0.054866807753    15.994914619570
         O           -3.427790405890    -0.874428985044     0.202285192247    15.994914619570
         C           -0.334452405890     1.265392014956    -0.225905807753    12.000000000000
         C            1.103522594110     1.016679014956     0.213638192247    12.000000000000
         C           -1.241252405890     0.138425014956     0.243653192247    12.000000000000
         C            1.568324594110    -0.368271985044    -0.210266807753    12.000000000000
         C            0.570343594110    -1.414553985044     0.298611192247    12.000000000000
         C           -2.619768705890     0.215257414956    -0.381914407753    12.000000000000
         H           -0.356056405890     1.315487014956    -1.320226807753     1.007825032230
         H            1.125045594110     1.057203014956     1.324016192247     1.007825032230
         H           -1.275337405890     0.116159014956     1.348888192247     1.007825032230
         H            1.568370594110    -0.412835985044    -1.307178807753     1.007825032230
         H            0.512601594110    -1.401914985044     1.398664192247     1.007825032230
         H           -2.622766405890     0.230687014956    -1.383653807753     1.007825032230
         H           -3.142112405890     1.133371014956     0.057824192247     1.007825032230
         H           -0.840361405890     2.524459014956     1.186091192247     1.007825032230
         H            1.493030594110     2.838610014956    -0.238601807753     1.007825032230
         H            2.989238594110    -0.439878985044     1.125809192247     1.007825032230
         H            1.240397594110    -2.698849985044    -0.967990807753     1.007825032230
         H           -2.905226405890    -1.669347985044    -0.011450807753     1.007825032230

  Basis Set: AUG-CC-PVTZ
    Blend: AUG-CC-PVTZ
  Basis Set: (AUG-CC-PVTZ AUX)
    Blend: AUG-CC-PVTZ-JKFIT
	 Reference Energy          =    -683.5889050832643079 [Eh]
	 Singles Energy            =      -0.0000000000000000 [Eh]
	 Same-Spin Energy          =      -0.6658786363197509 [Eh]
	 Opposite-Spin Energy      =      -2.0468548660587427 [Eh]
	 Correlation Energy        =      -2.7127335023784935 [Eh]
	 Total Energy              =    -686.3016385856427632 [Eh]

	 ================> DF-SCS-MP2 Energies <==================
	-----------------------------------------------------------
	 SCS Same-Spin Scale       =       0.3333333333333333 [-]
	 SCS Opposite-Spin Scale   =       1.2000000000000000 [-]
	 SCS Same-Spin Energy      =      -0.2219595454399169 [Eh]
	 SCS Opposite-Spin Energy  =      -2.4562258392704912 [Eh]
	 SCS Correlation Energy    =      -2.6781853847104080 [Eh]
	 SCS Total Energy          =    -686.2670904679747537 [Eh]
	-----------------------------------------------------------

  Dipole Moment: [D]
     X:     0.3360      Y:     1.6814      Z:     1.2347     Total:     2.1129

*** Psi4 exiting successfully. Buy a developer a beer!
