                               Psi4 1.3.2 release

  ==> Input File <==

--------------------------------------------------------------------------
#psi4
#
memory 32 gb

molecule  {
0 1
  O       -0.7087550    -1.1193400    -0.2546710
  O       -0.7529000     2.5454980     0.2011280
  O        1.9863450     1.9788980    -0.3426730
  O        2.9116540    -0.6744470     0.1695670
  O        0.9157630    -2.7262860    -0.0672430
  O       -3.4138550    -0.8877920     0.1899090
  C       -0.3205170     1.2520290    -0.2382820
  C        1.1174580     1.0033160     0.2012620
  C       -1.2273170     0.1250620     0.2312770
  C        1.5822600    -0.3816350    -0.2226430
  C        0.5912911    -1.4203921     0.2643435
  C       -2.6461720     0.2016390    -0.2964840
  H       -0.3421210     1.3021240    -1.3326030
  H        1.1389810     1.0438400     1.3116400
  H       -1.2614020     0.1027960     1.3365120
  H        1.5823060    -0.4261990    -1.3195550
  H        0.5265370    -1.4152780     1.3862880
  H       -2.6088310     0.2173240    -1.3960300
  H       -3.1281770     1.1200080     0.0454480
  H       -0.8264260     2.5110960     1.1737150
  H        1.5069660     2.8252470    -0.2509780
  H        3.0031740    -0.4532420     1.1134330
  H        1.2543330    -2.7122130    -0.9803670
  H       -2.8912910    -1.6827110    -0.0238270
units angstrom
no_reorient  #important for SAPT in psi4, default
symmetry c1  #important for SAPT in psi4, default
}

set PROPERTIES_ORIGIN ["COM"]
properties('MP2/aug-cc-pvtz', properties = ['dipole'])
--------------------------------------------------------------------------

    Molecular point group: c1
  Charge       = 0
  Multiplicity = 1
  Basis Set: AUG-CC-PVTZ
    Blend: AUG-CC-PVTZ
  Basis Set: (AUG-CC-PVTZ AUX)
    Blend: AUG-CC-PVTZ-JKFIT

    Orbital Energies [Eh]
    ---------------------

    Doubly Occupied:

       1A    -20.598585     2A    -20.589010     3A    -20.584717
       4A    -20.579927     5A    -20.577844     6A    -20.562843
       7A    -11.357575     8A    -11.310946     9A    -11.310239
      10A    -11.308278    11A    -11.305125    12A    -11.287467
      13A     -1.441472    14A     -1.405434    15A     -1.388408
      16A     -1.373254    17A     -1.366368    18A     -1.353720
      19A     -1.081973    20A     -1.052916    21A     -0.947289
      22A     -0.889628    23A     -0.855328    24A     -0.841904
      25A     -0.754262    26A     -0.730739    27A     -0.721733
      28A     -0.709700    29A     -0.693421    30A     -0.675794
      31A     -0.660723    32A     -0.653450    33A     -0.620517
      34A     -0.615676    35A     -0.598449    36A     -0.587116
      37A     -0.571388    38A     -0.561964    39A     -0.556523
      40A     -0.543744    41A     -0.526607    42A     -0.516835
      43A     -0.501364    44A     -0.487787    45A     -0.474326
      46A     -0.462861    47A     -0.447145    48A     -0.432717

  @DF-RHF Final Energy:  -683.60291396541265

   => Energetics <=

    Nuclear Repulsion Energy =            824.9368169333995411
    One-Electron Energy =               -2578.1292796935294973
    Two-Electron Energy =                1069.5895487947173024
    Total Energy =                       -683.6029139654126539
  Basis Set: (AUG-CC-PVTZ AUX)
    Blend: AUG-CC-PVTZ-RI
    Molecular point group: c1

    Geometry (in Angstrom), charge = 0, multiplicity = 1:

       Center              X                  Y                   Z               Mass
    ------------   -----------------  -----------------  -----------------  -----------------
         O           -0.720469414692    -1.106461447771    -0.247354032782    15.994914619570
         O           -0.764614414692     2.558376552229     0.208444967218    15.994914619570
         O            1.974630585308     1.991776552229    -0.335356032782    15.994914619570
         O            2.899939585308    -0.661568447771     0.176883967218    15.994914619570
         O            0.904048585308    -2.713407447771    -0.059926032782    15.994914619570
         O           -3.425569414692    -0.874913447771     0.197225967218    15.994914619570
         C           -0.332231414692     1.264907552229    -0.230965032782    12.000000000000
         C            1.105743585308     1.016194552229     0.208578967218    12.000000000000
         C           -1.239031414692     0.137940552229     0.238593967218    12.000000000000
         C            1.570545585308    -0.368756447771    -0.215326032782    12.000000000000
         C            0.579576685308    -1.407513547771     0.271660467218    12.000000000000
         C           -2.657886414692     0.214517552229    -0.289167032782    12.000000000000
         H           -0.353835414692     1.315002552229    -1.325286032782     1.007825032230
         H            1.127266585308     1.056718552229     1.318956967218     1.007825032230
         H           -1.273116414692     0.115674552229     1.343828967218     1.007825032230
         H            1.570591585308    -0.413320447771    -1.312238032782     1.007825032230
         H            0.514822585308    -1.402399447771     1.393604967218     1.007825032230
         H           -2.620545414692     0.230202552229    -1.388713032782     1.007825032230
         H           -3.139891414692     1.132886552229     0.052764967218     1.007825032230
         H           -0.838140414692     2.523974552229     1.181031967218     1.007825032230
         H            1.495251585308     2.838125552229    -0.243661032782     1.007825032230
         H            2.991459585308    -0.440363447771     1.120749967218     1.007825032230
         H            1.242618585308    -2.699334447771    -0.973050032782     1.007825032230
         H           -2.903005414692    -1.669832447771    -0.016510032782     1.007825032230

  Basis Set: AUG-CC-PVTZ
    Blend: AUG-CC-PVTZ
  Basis Set: (AUG-CC-PVTZ AUX)
    Blend: AUG-CC-PVTZ-JKFIT
	 Reference Energy          =    -683.6029139654126539 [Eh]
	 Singles Energy            =      -0.0000000000000000 [Eh]
	 Same-Spin Energy          =      -0.6656373339112583 [Eh]
	 Opposite-Spin Energy      =      -2.0450607391114435 [Eh]
	 Correlation Energy        =      -2.7106980730227019 [Eh]
	 Total Energy              =    -686.3136120384353944 [Eh]

	 ================> DF-SCS-MP2 Energies <==================
	-----------------------------------------------------------
	 SCS Same-Spin Scale       =       0.3333333333333333 [-]
	 SCS Opposite-Spin Scale   =       1.2000000000000000 [-]
	 SCS Same-Spin Energy      =      -0.2218791113037528 [Eh]
	 SCS Opposite-Spin Energy  =      -2.4540728869337323 [Eh]
	 SCS Correlation Energy    =      -2.6759519982374851 [Eh]
	 SCS Total Energy          =    -686.2788659636501052 [Eh]
	-----------------------------------------------------------

  Dipole Moment: [D]
     X:     0.2226      Y:     1.6237      Z:     1.3212     Total:     2.1052

*** Psi4 exiting successfully. Buy a developer a beer!
