                               Psi4 1.3.2 release

  ==> Input File <==

--------------------------------------------------------------------------
#psi4
#
memory 32 gb

molecule  {
0 1
  O       -0.7087550    -1.1193400    -0.2546710
  O       -0.7529000     2.5454980     0.2011280
  O        1.9863450     1.9788980    -0.3426730
  O        2.9116540    -0.6744470     0.1695670
  O        0.9157630    -2.7262860    -0.0672430
  O       -3.4138550    -0.8877920     0.1899090
  C       -0.3205170     1.2520290    -0.2382820
  C        1.1174580     1.0033160     0.2012620
  C       -1.1008589     0.1375987     0.3109685
  C        1.5822600    -0.3816350    -0.2226430
  C        0.5842790    -1.4279170     0.2862350
  C       -2.6461720     0.2016390    -0.2964840
  H       -0.3421210     1.3021240    -1.3326030
  H        1.1389810     1.0438400     1.3116400
  H       -1.2614020     0.1027960     1.3365120
  H        1.5823060    -0.4261990    -1.3195550
  H        0.5265370    -1.4152780     1.3862880
  H       -2.6088310     0.2173240    -1.3960300
  H       -3.1281770     1.1200080     0.0454480
  H       -0.8264260     2.5110960     1.1737150
  H        1.5069660     2.8252470    -0.2509780
  H        3.0031740    -0.4532420     1.1134330
  H        1.2543330    -2.7122130    -0.9803670
  H       -2.8912910    -1.6827110    -0.0238270
units angstrom
no_reorient  #important for SAPT in psi4, default
symmetry c1  #important for SAPT in psi4, default
}

set PROPERTIES_ORIGIN ["COM"]
properties('MP2/aug-cc-pvtz', properties = ['dipole'])
--------------------------------------------------------------------------

    Molecular point group: c1
  Charge       = 0
  Multiplicity = 1
  Basis Set: AUG-CC-PVTZ
    Blend: AUG-CC-PVTZ
  Basis Set: (AUG-CC-PVTZ AUX)
    Blend: AUG-CC-PVTZ-JKFIT

    Orbital Energies [Eh]
    ---------------------

    Doubly Occupied:

       1A    -20.599990     2A    -20.593928     3A    -20.582960
       4A    -20.579900     5A    -20.575494     6A    -20.561635
       7A    -11.355831     8A    -11.309204     9A    -11.307571
      10A    -11.305664    11A    -11.303762    12A    -11.289973
      13A     -1.442991    14A     -1.406097    15A     -1.387973
      16A     -1.371138    17A     -1.365090    18A     -1.352893
      19A     -1.088900    20A     -1.040608    21A     -0.933229
      22A     -0.891930    23A     -0.857108    24A     -0.850140
      25A     -0.754377    26A     -0.729757    27A     -0.721518
      28A     -0.714879    29A     -0.692227    30A     -0.672887
      31A     -0.659376    32A     -0.654788    33A     -0.621463
      34A     -0.612598    35A     -0.595311    36A     -0.585365
      37A     -0.569051    38A     -0.562504    39A     -0.558413
      40A     -0.546872    41A     -0.528799    42A     -0.517382
      43A     -0.513090    44A     -0.481809    45A     -0.477547
      46A     -0.461381    47A     -0.441296    48A     -0.414533

  @DF-RHF Final Energy:  -683.58040044829295

   => Energetics <=

    Nuclear Repulsion Energy =            825.2358007517804026
    One-Electron Energy =               -2578.7499389211379821
    Two-Electron Energy =                1069.9337377210645172
    Total Energy =                       -683.5804004482929486
  Basis Set: (AUG-CC-PVTZ AUX)
    Blend: AUG-CC-PVTZ-RI
    Molecular point group: c1

    Geometry (in Angstrom), charge = 0, multiplicity = 1:

       Center              X                  Y                   Z               Mass
    ------------   -----------------  -----------------  -----------------  -----------------
         O           -0.728429678103    -1.106795450150    -0.254123848750    15.994914619570
         O           -0.772574678103     2.558042549850     0.201675151250    15.994914619570
         O            1.966670321897     1.991442549850    -0.342125848750    15.994914619570
         O            2.891979321897    -0.661902450150     0.170114151250    15.994914619570
         O            0.896088321897    -2.713741450150    -0.066695848750    15.994914619570
         O           -3.433529678103    -0.875247450150     0.190456151250    15.994914619570
         C           -0.340191678103     1.264573549850    -0.237734848750    12.000000000000
         C            1.097783321897     1.015860549850     0.201809151250    12.000000000000
         C           -1.120533578103     0.150143249850     0.311515651250    12.000000000000
         C            1.562585321897    -0.369090450150    -0.222095848750    12.000000000000
         C            0.564604321897    -1.415372450150     0.286782151250    12.000000000000
         C           -2.665846678103     0.214183549850    -0.295936848750    12.000000000000
         H           -0.361795678103     1.314668549850    -1.332055848750     1.007825032230
         H            1.119306321897     1.056384549850     1.312187151250     1.007825032230
         H           -1.281076678103     0.115340549850     1.337059151250     1.007825032230
         H            1.562631321897    -0.413654450150    -1.319007848750     1.007825032230
         H            0.506862321897    -1.402733450150     1.386835151250     1.007825032230
         H           -2.628505678103     0.229868549850    -1.395482848750     1.007825032230
         H           -3.147851678103     1.132552549850     0.045995151250     1.007825032230
         H           -0.846100678103     2.523640549850     1.174262151250     1.007825032230
         H            1.487291321897     2.837791549850    -0.250430848750     1.007825032230
         H            2.983499321897    -0.440697450150     1.113980151250     1.007825032230
         H            1.234658321897    -2.699668450150    -0.979819848750     1.007825032230
         H           -2.910965678103    -1.670166450150    -0.023279848750     1.007825032230

  Basis Set: AUG-CC-PVTZ
    Blend: AUG-CC-PVTZ
  Basis Set: (AUG-CC-PVTZ AUX)
    Blend: AUG-CC-PVTZ-JKFIT
	 Reference Energy          =    -683.5804004482929486 [Eh]
	 Singles Energy            =      -0.0000000000000000 [Eh]
	 Same-Spin Energy          =      -0.6666725313676376 [Eh]
	 Opposite-Spin Energy      =      -2.0477531443908634 [Eh]
	 Correlation Energy        =      -2.7144256757585010 [Eh]
	 Total Energy              =    -686.2948261240514967 [Eh]

	 ================> DF-SCS-MP2 Energies <==================
	-----------------------------------------------------------
	 SCS Same-Spin Scale       =       0.3333333333333333 [-]
	 SCS Opposite-Spin Scale   =       1.2000000000000000 [-]
	 SCS Same-Spin Energy      =      -0.2222241771225459 [Eh]
	 SCS Opposite-Spin Energy  =      -2.4573037732690359 [Eh]
	 SCS Correlation Energy    =      -2.6795279503915816 [Eh]
	 SCS Total Energy          =    -686.2599283986845649 [Eh]
	-----------------------------------------------------------

  Dipole Moment: [D]
     X:     0.2571      Y:     1.5534      Z:     1.4429     Total:     2.1357

*** Psi4 exiting successfully. Buy a developer a beer!
