                               Psi4 1.3.2 release

  ==> Input File <==

--------------------------------------------------------------------------
#psi4
#
memory 32 gb

molecule  {
0 1
  O       -0.7087550    -1.1193400    -0.2546710
  O       -0.7529000     2.5454980     0.2011280
  O        1.9863450     1.9788980    -0.3426730
  O        2.9116540    -0.6744470     0.1695670
  O        0.9157630    -2.7262860    -0.0672430
  O       -3.4138550    -0.8877920     0.1899090
  C       -0.3205170     1.2520290    -0.2382820
  C        1.0560582     0.9343766     0.2396991
  C       -1.2273170     0.1250620     0.2312770
  C        1.5822600    -0.3816350    -0.2226430
  C        0.5842790    -1.4279170     0.2862350
  C       -2.6461720     0.2016390    -0.2964840
  H       -0.3421210     1.3021240    -1.3326030
  H        1.1389810     1.0438400     1.3116400
  H       -1.2614020     0.1027960     1.3365120
  H        1.5823060    -0.4261990    -1.3195550
  H        0.5265370    -1.4152780     1.3862880
  H       -2.6088310     0.2173240    -1.3960300
  H       -3.1281770     1.1200080     0.0454480
  H       -0.8264260     2.5110960     1.1737150
  H        1.5069660     2.8252470    -0.2509780
  H        3.0031740    -0.4532420     1.1134330
  H        1.2543330    -2.7122130    -0.9803670
  H       -2.8912910    -1.6827110    -0.0238270
units angstrom
no_reorient  #important for SAPT in psi4, default
symmetry c1  #important for SAPT in psi4, default
}

set PROPERTIES_ORIGIN ["COM"]
properties('MP2/aug-cc-pvtz', properties = ['dipole'])
--------------------------------------------------------------------------

    Molecular point group: c1
  Charge       = 0
  Multiplicity = 1
  Basis Set: AUG-CC-PVTZ
    Blend: AUG-CC-PVTZ
  Basis Set: (AUG-CC-PVTZ AUX)
    Blend: AUG-CC-PVTZ-JKFIT

    Orbital Energies [Eh]
    ---------------------

    Doubly Occupied:

       1A    -20.600673     2A    -20.590823     3A    -20.584261
       4A    -20.582348     5A    -20.566257     6A    -20.563303
       7A    -11.357751     8A    -11.313074     9A    -11.310073
      10A    -11.308758    11A    -11.307568    12A    -11.287836
      13A     -1.442153    14A     -1.402050    15A     -1.386714
      16A     -1.372763    17A     -1.354635    18A     -1.338142
      19A     -1.094059    20A     -1.055684    21A     -0.950315
      22A     -0.891971    23A     -0.856717    24A     -0.846096
      25A     -0.752908    26A     -0.731369    27A     -0.717027
      28A     -0.714135    29A     -0.696325    30A     -0.674406
      31A     -0.659864    32A     -0.640011    33A     -0.620668
      34A     -0.616658    35A     -0.598001    36A     -0.587957
      37A     -0.564724    38A     -0.560070    39A     -0.552216
      40A     -0.536320    41A     -0.528486    42A     -0.518074
      43A     -0.511643    44A     -0.487895    45A     -0.480310
      46A     -0.466938    47A     -0.450145    48A     -0.429399

  @DF-RHF Final Energy:  -683.59264672929282

   => Energetics <=

    Nuclear Repulsion Energy =            825.2525494104528434
    One-Electron Energy =               -2578.7712457981001535
    Two-Electron Energy =                1069.9260496583542590
    Total Energy =                       -683.5926467292929374
  Basis Set: (AUG-CC-PVTZ AUX)
    Blend: AUG-CC-PVTZ-RI
    Molecular point group: c1

    Geometry (in Angstrom), charge = 0, multiplicity = 1:

       Center              X                  Y                   Z               Mass
    ------------   -----------------  -----------------  -----------------  -----------------
         O           -0.715910226905    -1.101365622297    -0.251374523608    15.994914619570
         O           -0.760055226905     2.563472377703     0.204424476392    15.994914619570
         O            1.979189773095     1.996872377703    -0.339376523608    15.994914619570
         O            2.904498773095    -0.656472622297     0.172863476392    15.994914619570
         O            0.908607773095    -2.708311622297    -0.063946523608    15.994914619570
         O           -3.421010226905    -0.869817622297     0.193205476392    15.994914619570
         C           -0.327672226905     1.270003377703    -0.234985523608    12.000000000000
         C            1.048902973095     0.952350977703     0.242995576392    12.000000000000
         C           -1.234472226905     0.143036377703     0.234573476392    12.000000000000
         C            1.575104773095    -0.363660622297    -0.219346523608    12.000000000000
         C            0.577123773095    -1.409942622297     0.289531476392    12.000000000000
         C           -2.653327226905     0.219613377703    -0.293187523608    12.000000000000
         H           -0.349276226905     1.320098377703    -1.329306523608     1.007825032230
         H            1.131825773095     1.061814377703     1.314936476392     1.007825032230
         H           -1.268557226905     0.120770377703     1.339808476392     1.007825032230
         H            1.575150773095    -0.408224622297    -1.316258523608     1.007825032230
         H            0.519381773095    -1.397303622297     1.389584476392     1.007825032230
         H           -2.615986226905     0.235298377703    -1.392733523608     1.007825032230
         H           -3.135332226905     1.137982377703     0.048744476392     1.007825032230
         H           -0.833581226905     2.529070377703     1.177011476392     1.007825032230
         H            1.499810773095     2.843221377703    -0.247681523608     1.007825032230
         H            2.996018773095    -0.435267622297     1.116729476392     1.007825032230
         H            1.247177773095    -2.694238622297    -0.977070523608     1.007825032230
         H           -2.898446226905    -1.664736622297    -0.020530523608     1.007825032230

  Basis Set: AUG-CC-PVTZ
    Blend: AUG-CC-PVTZ
  Basis Set: (AUG-CC-PVTZ AUX)
    Blend: AUG-CC-PVTZ-JKFIT
	 Reference Energy          =    -683.5926467292928237 [Eh]
	 Singles Energy            =      -0.0000000000000000 [Eh]
	 Same-Spin Energy          =      -0.6664028493698071 [Eh]
	 Opposite-Spin Energy      =      -2.0475059391834352 [Eh]
	 Correlation Energy        =      -2.7139087885532422 [Eh]
	 Total Energy              =    -686.3065555178460500 [Eh]

	 ================> DF-SCS-MP2 Energies <==================
	-----------------------------------------------------------
	 SCS Same-Spin Scale       =       0.3333333333333333 [-]
	 SCS Opposite-Spin Scale   =       1.2000000000000000 [-]
	 SCS Same-Spin Energy      =      -0.2221342831232690 [Eh]
	 SCS Opposite-Spin Energy  =      -2.4570071270201219 [Eh]
	 SCS Correlation Energy    =      -2.6791414101433908 [Eh]
	 SCS Total Energy          =    -686.2717881394362394 [Eh]
	-----------------------------------------------------------

  Dipole Moment: [D]
     X:     0.0445      Y:     1.3598      Z:     1.4975     Total:     2.0232

*** Psi4 exiting successfully. Buy a developer a beer!
