                               Psi4 1.3.2 release

  ==> Input File <==

--------------------------------------------------------------------------
#psi4
#
memory 32 gb

molecule  {
0 1
  O       -0.7087550    -1.1193400    -0.2546710
  O       -0.7529000     2.5454980     0.2011280
  O        1.9863450     1.9788980    -0.3426730
  O        2.9116540    -0.6744470     0.1695670
  O        0.9157630    -2.7262860    -0.0672430
  O       -3.4138550    -0.8877920     0.1899090
  C       -0.3205170     1.2520290    -0.2382820
  C        1.1174580     1.0033160     0.2012620
  C       -1.2273170     0.1250620     0.2312770
  C        1.5822600    -0.3816350    -0.2226430
  C        0.5842790    -1.4279170     0.2862350
  C       -2.6268552     0.2018135    -0.3457388
  H       -0.3421210     1.3021240    -1.3326030
  H        1.1389810     1.0438400     1.3116400
  H       -1.2614020     0.1027960     1.3365120
  H        1.5823060    -0.4261990    -1.3195550
  H        0.5265370    -1.4152780     1.3862880
  H       -2.6088310     0.2173240    -1.3960300
  H       -3.1281770     1.1200080     0.0454480
  H       -0.8264260     2.5110960     1.1737150
  H        1.5069660     2.8252470    -0.2509780
  H        3.0031740    -0.4532420     1.1134330
  H        1.2543330    -2.7122130    -0.9803670
  H       -2.8912910    -1.6827110    -0.0238270
units angstrom
no_reorient  #important for SAPT in psi4, default
symmetry c1  #important for SAPT in psi4, default
}

set PROPERTIES_ORIGIN ["COM"]
properties('MP2/aug-cc-pvtz', properties = ['dipole'])
--------------------------------------------------------------------------

    Molecular point group: c1
  Charge       = 0
  Multiplicity = 1
  Basis Set: AUG-CC-PVTZ
    Blend: AUG-CC-PVTZ
  Basis Set: (AUG-CC-PVTZ AUX)
    Blend: AUG-CC-PVTZ-JKFIT

    Orbital Energies [Eh]
    ---------------------

    Doubly Occupied:

       1A    -20.598483     2A    -20.588343     3A    -20.583777
       4A    -20.579367     5A    -20.577596     6A    -20.560797
       7A    -11.356850     8A    -11.310592     9A    -11.309781
      10A    -11.308837    11A    -11.305240    12A    -11.286385
      13A     -1.440223    14A     -1.405242    15A     -1.387565
      16A     -1.370380    17A     -1.365250    18A     -1.346441
      19A     -1.081342    20A     -1.051975    21A     -0.946352
      22A     -0.891595    23A     -0.854974    24A     -0.843617
      25A     -0.753149    26A     -0.730562    27A     -0.721015
      28A     -0.710547    29A     -0.690856    30A     -0.673914
      31A     -0.660181    32A     -0.656183    33A     -0.619871
      34A     -0.617072    35A     -0.590723    36A     -0.586223
      37A     -0.568538    38A     -0.561850    39A     -0.555728
      40A     -0.543756    41A     -0.526069    42A     -0.517027
      43A     -0.502991    44A     -0.487218    45A     -0.474557
      46A     -0.467425    47A     -0.447977    48A     -0.430595

  @DF-RHF Final Energy:  -683.59996223771827

   => Energetics <=

    Nuclear Repulsion Energy =            824.6028972236223353
    One-Electron Energy =               -2577.5156568244401569
    Two-Electron Energy =                1069.3127973630996621
    Total Energy =                       -683.5999622377182732
  Basis Set: (AUG-CC-PVTZ AUX)
    Blend: AUG-CC-PVTZ-RI
    Molecular point group: c1

    Geometry (in Angstrom), charge = 0, multiplicity = 1:

       Center              X                  Y                   Z               Mass
    ------------   -----------------  -----------------  -----------------  -----------------
         O           -0.721289439249    -1.105971593609    -0.245530454966    15.994914619570
         O           -0.765434439249     2.558866406391     0.210268545034    15.994914619570
         O            1.973810560751     1.992266406391    -0.333532454966    15.994914619570
         O            2.899119560751    -0.661078593609     0.178707545034    15.994914619570
         O            0.903228560751    -2.712917593609    -0.058102454966    15.994914619570
         O           -3.426389439249    -0.874423593609     0.199049545034    15.994914619570
         C           -0.333051439249     1.265397406391    -0.229141454966    12.000000000000
         C            1.104923560751     1.016684406391     0.210402545034    12.000000000000
         C           -1.239851439249     0.138430406391     0.240417545034    12.000000000000
         C            1.569725560751    -0.368266593609    -0.213502454966    12.000000000000
         C            0.571744560751    -1.414548593609     0.295375545034    12.000000000000
         C           -2.639389639249     0.215181906391    -0.336598254966    12.000000000000
         H           -0.354655439249     1.315492406391    -1.323462454966     1.007825032230
         H            1.126446560751     1.057208406391     1.320780545034     1.007825032230
         H           -1.273936439249     0.116164406391     1.345652545034     1.007825032230
         H            1.569771560751    -0.412830593609    -1.310414454966     1.007825032230
         H            0.514002560751    -1.401909593609     1.395428545034     1.007825032230
         H           -2.621365439249     0.230692406391    -1.386889454966     1.007825032230
         H           -3.140711439249     1.133376406391     0.054588545034     1.007825032230
         H           -0.838960439249     2.524464406391     1.182855545034     1.007825032230
         H            1.494431560751     2.838615406391    -0.241837454966     1.007825032230
         H            2.990639560751    -0.439873593609     1.122573545034     1.007825032230
         H            1.241798560751    -2.698844593609    -0.971226454966     1.007825032230
         H           -2.903825439249    -1.669342593609    -0.014686454966     1.007825032230

  Basis Set: AUG-CC-PVTZ
    Blend: AUG-CC-PVTZ
  Basis Set: (AUG-CC-PVTZ AUX)
    Blend: AUG-CC-PVTZ-JKFIT
	 Reference Energy          =    -683.5999622377182732 [Eh]
	 Singles Energy            =      -0.0000000000000000 [Eh]
	 Same-Spin Energy          =      -0.6655985654419183 [Eh]
	 Opposite-Spin Energy      =      -2.0456638893814860 [Eh]
	 Correlation Energy        =      -2.7112624548234043 [Eh]
	 Total Energy              =    -686.3112246925417139 [Eh]

	 ================> DF-SCS-MP2 Energies <==================
	-----------------------------------------------------------
	 SCS Same-Spin Scale       =       0.3333333333333333 [-]
	 SCS Opposite-Spin Scale   =       1.2000000000000000 [-]
	 SCS Same-Spin Energy      =      -0.2218661884806394 [Eh]
	 SCS Opposite-Spin Energy  =      -2.4547966672577832 [Eh]
	 SCS Correlation Energy    =      -2.6766628557384227 [Eh]
	 SCS Total Energy          =    -686.2766250934566870 [Eh]
	-----------------------------------------------------------

  Dipole Moment: [D]
     X:     0.2751      Y:     1.6440      Z:     1.2935     Total:     2.1098

*** Psi4 exiting successfully. Buy a developer a beer!
