                               Psi4 1.3.2 release

  ==> Input File <==

--------------------------------------------------------------------------
#psi4
#
memory 32 gb

molecule  {
0 1
  O       -0.7273613    -1.1591165    -0.2305648
  O       -0.7529000     2.5454980     0.2011280
  O        1.9863450     1.9788980    -0.3426730
  O        2.9116540    -0.6744470     0.1695670
  O        0.9157630    -2.7262860    -0.0672430
  O       -3.4138550    -0.8877920     0.1899090
  C       -0.3205170     1.2520290    -0.2382820
  C        1.1174580     1.0033160     0.2012620
  C       -1.2273170     0.1250620     0.2312770
  C        1.5822600    -0.3816350    -0.2226430
  C        0.5842790    -1.4279170     0.2862350
  C       -2.6461720     0.2016390    -0.2964840
  H       -0.3421210     1.3021240    -1.3326030
  H        1.1389810     1.0438400     1.3116400
  H       -1.2614020     0.1027960     1.3365120
  H        1.5823060    -0.4261990    -1.3195550
  H        0.5265370    -1.4152780     1.3862880
  H       -2.6088310     0.2173240    -1.3960300
  H       -3.1281770     1.1200080     0.0454480
  H       -0.8264260     2.5110960     1.1737150
  H        1.5069660     2.8252470    -0.2509780
  H        3.0031740    -0.4532420     1.1134330
  H        1.2543330    -2.7122130    -0.9803670
  H       -2.8912910    -1.6827110    -0.0238270
units angstrom
no_reorient  #important for SAPT in psi4, default
symmetry c1  #important for SAPT in psi4, default
}

set PROPERTIES_ORIGIN ["COM"]
properties('MP2/aug-cc-pvtz', properties = ['dipole'])
--------------------------------------------------------------------------

    Molecular point group: c1
  Charge       = 0
  Multiplicity = 1
  Basis Set: AUG-CC-PVTZ
    Blend: AUG-CC-PVTZ
  Basis Set: (AUG-CC-PVTZ AUX)
    Blend: AUG-CC-PVTZ-JKFIT

    Orbital Energies [Eh]
    ---------------------

    Doubly Occupied:

       1A    -20.600211     2A    -20.589097     3A    -20.581949
       4A    -20.580402     5A    -20.578074     6A    -20.562062
       7A    -11.355849     8A    -11.312574     9A    -11.310537
      10A    -11.309452    11A    -11.306360    12A    -11.287637
      13A     -1.437388    14A     -1.406287    15A     -1.387990
      16A     -1.371420    17A     -1.366529    18A     -1.349913
      19A     -1.083174    20A     -1.049585    21A     -0.946359
      22A     -0.891248    23A     -0.854727    24A     -0.841887
      25A     -0.752451    26A     -0.728974    27A     -0.721682
      28A     -0.710025    29A     -0.692211    30A     -0.674323
      31A     -0.658776    32A     -0.654999    33A     -0.621439
      34A     -0.615831    35A     -0.597818    36A     -0.587279
      37A     -0.570692    38A     -0.562172    39A     -0.556864
      40A     -0.543961    41A     -0.525799    42A     -0.514511
      43A     -0.502845    44A     -0.487610    45A     -0.475270
      46A     -0.462752    47A     -0.445921    48A     -0.433427

  @DF-RHF Final Energy:  -683.60219820324983

   => Energetics <=

    Nuclear Repulsion Energy =            823.8579245404066569
    One-Electron Energy =               -2576.0035556569982873
    Two-Electron Energy =                1068.5434329133418032
    Total Energy =                       -683.6021982032498272
  Basis Set: (AUG-CC-PVTZ AUX)
    Blend: AUG-CC-PVTZ-RI
    Molecular point group: c1

    Geometry (in Angstrom), charge = 0, multiplicity = 1:

       Center              X                  Y                   Z               Mass
    ------------   -----------------  -----------------  -----------------  -----------------
         O           -0.736955620297    -1.142203143533    -0.226848090545    15.994914619570
         O           -0.762494320297     2.562411356467     0.204844709455    15.994914619570
         O            1.976750679703     1.995811356467    -0.338956290545    15.994914619570
         O            2.902059679703    -0.657533643533     0.173283709455    15.994914619570
         O            0.906168679703    -2.709372643533    -0.063526290545    15.994914619570
         O           -3.423449320297    -0.870878643533     0.193625709455    15.994914619570
         C           -0.330111320297     1.268942356467    -0.234565290545    12.000000000000
         C            1.107863679703     1.020229356467     0.204978709455    12.000000000000
         C           -1.236911320297     0.141975356467     0.234993709455    12.000000000000
         C            1.572665679703    -0.364721643533    -0.218926290545    12.000000000000
         C            0.574684679703    -1.411003643533     0.289951709455    12.000000000000
         C           -2.655766320297     0.218552356467    -0.292767290545    12.000000000000
         H           -0.351715320297     1.319037356467    -1.328886290545     1.007825032230
         H            1.129386679703     1.060753356467     1.315356709455     1.007825032230
         H           -1.270996320297     0.119709356467     1.340228709455     1.007825032230
         H            1.572711679703    -0.409285643533    -1.315838290545     1.007825032230
         H            0.516942679703    -1.398364643533     1.390004709455     1.007825032230
         H           -2.618425320297     0.234237356467    -1.392313290545     1.007825032230
         H           -3.137771320297     1.136921356467     0.049164709455     1.007825032230
         H           -0.836020320297     2.528009356467     1.177431709455     1.007825032230
         H            1.497371679703     2.842160356467    -0.247261290545     1.007825032230
         H            2.993579679703    -0.436328643533     1.117149709455     1.007825032230
         H            1.244738679703    -2.695299643533    -0.976650290545     1.007825032230
         H           -2.900885320297    -1.665797643533    -0.020110290545     1.007825032230

  Basis Set: AUG-CC-PVTZ
    Blend: AUG-CC-PVTZ
  Basis Set: (AUG-CC-PVTZ AUX)
    Blend: AUG-CC-PVTZ-JKFIT
	 Reference Energy          =    -683.6021982032498272 [Eh]
	 Singles Energy            =      -0.0000000000000000 [Eh]
	 Same-Spin Energy          =      -0.6656024639883449 [Eh]
	 Opposite-Spin Energy      =      -2.0455239858267404 [Eh]
	 Correlation Energy        =      -2.7111264498150853 [Eh]
	 Total Energy              =    -686.3133246530649103 [Eh]

	 ================> DF-SCS-MP2 Energies <==================
	-----------------------------------------------------------
	 SCS Same-Spin Scale       =       0.3333333333333333 [-]
	 SCS Opposite-Spin Scale   =       1.2000000000000000 [-]
	 SCS Same-Spin Energy      =      -0.2218674879961149 [Eh]
	 SCS Opposite-Spin Energy  =      -2.4546287829920885 [Eh]
	 SCS Correlation Energy    =      -2.6764962709882036 [Eh]
	 SCS Total Energy          =    -686.2786944742380228 [Eh]
	-----------------------------------------------------------

  Dipole Moment: [D]
     X:     0.2566      Y:     1.7216      Z:     1.3382     Total:     2.1956

*** Psi4 exiting successfully. Buy a developer a beer!
