                               Psi4 1.3.2 release

  ==> Input File <==

--------------------------------------------------------------------------
#psi4
#
memory 32 gb

molecule  {
0 1
  O       -0.7087550    -1.1193400    -0.2546710
  O       -0.7577049     2.5591850     0.1532640
  O        1.9863450     1.9788980    -0.3426730
  O        2.9116540    -0.6744470     0.1695670
  O        0.9157630    -2.7262860    -0.0672430
  O       -3.4138550    -0.8877920     0.1899090
  C       -0.3205170     1.2520290    -0.2382820
  C        1.1174580     1.0033160     0.2012620
  C       -1.2273170     0.1250620     0.2312770
  C        1.5822600    -0.3816350    -0.2226430
  C        0.5842790    -1.4279170     0.2862350
  C       -2.6461720     0.2016390    -0.2964840
  H       -0.3421210     1.3021240    -1.3326030
  H        1.1389810     1.0438400     1.3116400
  H       -1.2614020     0.1027960     1.3365120
  H        1.5823060    -0.4261990    -1.3195550
  H        0.5265370    -1.4152780     1.3862880
  H       -2.6088310     0.2173240    -1.3960300
  H       -3.1281770     1.1200080     0.0454480
  H       -0.8264260     2.5110960     1.1737150
  H        1.5069660     2.8252470    -0.2509780
  H        3.0031740    -0.4532420     1.1134330
  H        1.2543330    -2.7122130    -0.9803670
  H       -2.8912910    -1.6827110    -0.0238270
units angstrom
no_reorient  #important for SAPT in psi4, default
symmetry c1  #important for SAPT in psi4, default
}

set PROPERTIES_ORIGIN ["COM"]
properties('MP2/aug-cc-pvtz', properties = ['dipole'])
--------------------------------------------------------------------------

    Molecular point group: c1
  Charge       = 0
  Multiplicity = 1
  Basis Set: AUG-CC-PVTZ
    Blend: AUG-CC-PVTZ
  Basis Set: (AUG-CC-PVTZ AUX)
    Blend: AUG-CC-PVTZ-JKFIT

    Orbital Energies [Eh]
    ---------------------

    Doubly Occupied:

       1A    -20.604344     2A    -20.588956     3A    -20.583974
       4A    -20.579496     5A    -20.577465     6A    -20.562725
       7A    -11.357144     8A    -11.310371     9A    -11.309418
      10A    -11.308349    11A    -11.305450    12A    -11.287302
      13A     -1.440305    14A     -1.401235    15A     -1.386621
      16A     -1.371552    17A     -1.364951    18A     -1.353189
      19A     -1.079822    20A     -1.050995    21A     -0.945143
      22A     -0.889775    23A     -0.854530    24A     -0.840583
      25A     -0.753637    26A     -0.729804    27A     -0.720889
      28A     -0.705022    29A     -0.691229    30A     -0.675008
      31A     -0.660272    32A     -0.654927    33A     -0.621048
      34A     -0.612058    35A     -0.597062    36A     -0.587704
      37A     -0.570513    38A     -0.561591    39A     -0.556129
      40A     -0.541885    41A     -0.527550    42A     -0.517323
      43A     -0.502994    44A     -0.487525    45A     -0.474307
      46A     -0.462381    47A     -0.446806    48A     -0.431202

  @DF-RHF Final Energy:  -683.59796570815331

   => Energetics <=

    Nuclear Repulsion Energy =            824.2476036443802059
    One-Electron Energy =               -2576.8060190073147169
    Two-Electron Energy =                1068.9604496547810868
    Total Energy =                       -683.5979657081534242
  Basis Set: (AUG-CC-PVTZ AUX)
    Blend: AUG-CC-PVTZ-RI
    Molecular point group: c1

    Geometry (in Angstrom), charge = 0, multiplicity = 1:

       Center              X                  Y                   Z               Mass
    ------------   -----------------  -----------------  -----------------  -----------------
         O           -0.719575289757    -1.107175771753    -0.244561224102    15.994914619570
         O           -0.768525189757     2.571349228247     0.163373775898    15.994914619570
         O            1.975524710243     1.991062228247    -0.332563224102    15.994914619570
         O            2.900833710243    -0.662282771753     0.179676775898    15.994914619570
         O            0.904942710243    -2.714121771753    -0.057133224102    15.994914619570
         O           -3.424675289757    -0.875627771753     0.200018775898    15.994914619570
         C           -0.331337289757     1.264193228247    -0.228172224102    12.000000000000
         C            1.106637710243     1.015480228247     0.211371775898    12.000000000000
         C           -1.238137289757     0.137226228247     0.241386775898    12.000000000000
         C            1.571439710243    -0.369470771753    -0.212533224102    12.000000000000
         C            0.573458710243    -1.415752771753     0.296344775898    12.000000000000
         C           -2.656992289757     0.213803228247    -0.286374224102    12.000000000000
         H           -0.352941289757     1.314288228247    -1.322493224102     1.007825032230
         H            1.128160710243     1.056004228247     1.321749775898     1.007825032230
         H           -1.272222289757     0.114960228247     1.346621775898     1.007825032230
         H            1.571485710243    -0.414034771753    -1.309445224102     1.007825032230
         H            0.515716710243    -1.403113771753     1.396397775898     1.007825032230
         H           -2.619651289757     0.229488228247    -1.385920224102     1.007825032230
         H           -3.138997289757     1.132172228247     0.055557775898     1.007825032230
         H           -0.837246289757     2.523260228247     1.183824775898     1.007825032230
         H            1.496145710243     2.837411228247    -0.240868224102     1.007825032230
         H            2.992353710243    -0.441077771753     1.123542775898     1.007825032230
         H            1.243512710243    -2.700048771753    -0.970257224102     1.007825032230
         H           -2.902111289757    -1.670546771753    -0.013717224102     1.007825032230

  Basis Set: AUG-CC-PVTZ
    Blend: AUG-CC-PVTZ
  Basis Set: (AUG-CC-PVTZ AUX)
    Blend: AUG-CC-PVTZ-JKFIT
	 Reference Energy          =    -683.5979657081533105 [Eh]
	 Singles Energy            =      -0.0000000000000000 [Eh]
	 Same-Spin Energy          =      -0.6662132350160069 [Eh]
	 Opposite-Spin Energy      =      -2.0468161922435173 [Eh]
	 Correlation Energy        =      -2.7130294272595243 [Eh]
	 Total Energy              =    -686.3109951354127816 [Eh]

	 ================> DF-SCS-MP2 Energies <==================
	-----------------------------------------------------------
	 SCS Same-Spin Scale       =       0.3333333333333333 [-]
	 SCS Opposite-Spin Scale   =       1.2000000000000000 [-]
	 SCS Same-Spin Energy      =      -0.2220710783386690 [Eh]
	 SCS Opposite-Spin Energy  =      -2.4561794306922207 [Eh]
	 SCS Correlation Energy    =      -2.6782505090308897 [Eh]
	 SCS Total Energy          =    -686.2762162171842419 [Eh]
	-----------------------------------------------------------

  Dipole Moment: [D]
     X:     0.2253      Y:     1.5883      Z:     1.4176     Total:     2.1408

*** Psi4 exiting successfully. Buy a developer a beer!
