                               Psi4 1.3.2 release

  ==> Input File <==

--------------------------------------------------------------------------
#psi4
#
memory 32 gb

molecule  {
0 1
  O       -0.6668409    -1.0409629    -0.3008778
  O       -0.7529000     2.5454980     0.2011280
  O        1.9863450     1.9788980    -0.3426730
  O        2.9116540    -0.6744470     0.1695670
  O        0.9157630    -2.7262860    -0.0672430
  O       -3.4138550    -0.8877920     0.1899090
  C       -0.3205170     1.2520290    -0.2382820
  C        1.1174580     1.0033160     0.2012620
  C       -1.2273170     0.1250620     0.2312770
  C        1.5822600    -0.3816350    -0.2226430
  C        0.5842790    -1.4279170     0.2862350
  C       -2.6461720     0.2016390    -0.2964840
  H       -0.3421210     1.3021240    -1.3326030
  H        1.1389810     1.0438400     1.3116400
  H       -1.2614020     0.1027960     1.3365120
  H        1.5823060    -0.4261990    -1.3195550
  H        0.5265370    -1.4152780     1.3862880
  H       -2.6088310     0.2173240    -1.3960300
  H       -3.1281770     1.1200080     0.0454480
  H       -0.8264260     2.5110960     1.1737150
  H        1.5069660     2.8252470    -0.2509780
  H        3.0031740    -0.4532420     1.1134330
  H        1.2543330    -2.7122130    -0.9803670
  H       -2.8912910    -1.6827110    -0.0238270
units angstrom
no_reorient  #important for SAPT in psi4, default
symmetry c1  #important for SAPT in psi4, default
}

set PROPERTIES_ORIGIN ["COM"]
properties('MP2/aug-cc-pvtz', properties = ['dipole'])
--------------------------------------------------------------------------

    Molecular point group: c1
  Charge       = 0
  Multiplicity = 1
  Basis Set: AUG-CC-PVTZ
    Blend: AUG-CC-PVTZ
  Basis Set: (AUG-CC-PVTZ AUX)
    Blend: AUG-CC-PVTZ-JKFIT

    Orbital Energies [Eh]
    ---------------------

    Doubly Occupied:

       1A    -20.594435     2A    -20.587323     3A    -20.587204
       4A    -20.576779     5A    -20.576282     6A    -20.564199
       7A    -11.358918     8A    -11.308293     9A    -11.306291
      10A    -11.305461    11A    -11.302575    12A    -11.286850
      13A     -1.446191    14A     -1.402640    15A     -1.388051
      16A     -1.374899    17A     -1.364355    18A     -1.357940
      19A     -1.076283    20A     -1.054179    21A     -0.945778
      22A     -0.890725    23A     -0.853569    24A     -0.843591
      25A     -0.757493    26A     -0.731011    27A     -0.719634
      28A     -0.709585    29A     -0.696235    30A     -0.675426
      31A     -0.661761    32A     -0.654515    33A     -0.617586
      34A     -0.614866    35A     -0.598150    36A     -0.587942
      37A     -0.570319    38A     -0.562149    39A     -0.553336
      40A     -0.542055    41A     -0.530392    42A     -0.521144
      43A     -0.503024    44A     -0.485946    45A     -0.471978
      46A     -0.461084    47A     -0.447364    48A     -0.426006

  @DF-RHF Final Energy:  -683.60251418152450

   => Energetics <=

    Nuclear Repulsion Energy =            826.2443473551322768
    One-Electron Energy =               -2580.7900950086791454
    Two-Electron Energy =                1070.9432334720222570
    Total Energy =                       -683.6025141815246116
  Basis Set: (AUG-CC-PVTZ AUX)
    Blend: AUG-CC-PVTZ-RI
    Molecular point group: c1

    Geometry (in Angstrom), charge = 0, multiplicity = 1:

       Center              X                  Y                   Z               Mass
    ------------   -----------------  -----------------  -----------------  -----------------
         O           -0.681811208392    -1.034545051609    -0.290915232109    15.994914619570
         O           -0.767870308392     2.551915848391     0.211090567891    15.994914619570
         O            1.971374691608     1.985315848391    -0.332710432109    15.994914619570
         O            2.896683691608    -0.668029151609     0.179529567891    15.994914619570
         O            0.900792691608    -2.719868151609    -0.057280432109    15.994914619570
         O           -3.428825308392    -0.881374151609     0.199871567891    15.994914619570
         C           -0.335487308392     1.258446848391    -0.228319432109    12.000000000000
         C            1.102487691608     1.009733848391     0.211224567891    12.000000000000
         C           -1.242287308392     0.131479848391     0.241239567891    12.000000000000
         C            1.567289691608    -0.375217151609    -0.212680432109    12.000000000000
         C            0.569308691608    -1.421499151609     0.296197567891    12.000000000000
         C           -2.661142308392     0.208056848391    -0.286521432109    12.000000000000
         H           -0.357091308392     1.308541848391    -1.322640432109     1.007825032230
         H            1.124010691608     1.050257848391     1.321602567891     1.007825032230
         H           -1.276372308392     0.109213848391     1.346474567891     1.007825032230
         H            1.567335691608    -0.419781151609    -1.309592432109     1.007825032230
         H            0.511566691608    -1.408860151609     1.396250567891     1.007825032230
         H           -2.623801308392     0.223741848391    -1.386067432109     1.007825032230
         H           -3.143147308392     1.126425848391     0.055410567891     1.007825032230
         H           -0.841396308392     2.517513848391     1.183677567891     1.007825032230
         H            1.491995691608     2.831664848391    -0.241015432109     1.007825032230
         H            2.988203691608    -0.446824151609     1.123395567891     1.007825032230
         H            1.239362691608    -2.705795151609    -0.970404432109     1.007825032230
         H           -2.906261308392    -1.676293151609    -0.013864432109     1.007825032230

  Basis Set: AUG-CC-PVTZ
    Blend: AUG-CC-PVTZ
  Basis Set: (AUG-CC-PVTZ AUX)
    Blend: AUG-CC-PVTZ-JKFIT
	 Reference Energy          =    -683.6025141815244979 [Eh]
	 Singles Energy            =      -0.0000000000000000 [Eh]
	 Same-Spin Energy          =      -0.6653916707000292 [Eh]
	 Opposite-Spin Energy      =      -2.0440610583014531 [Eh]
	 Correlation Energy        =      -2.7094527290014825 [Eh]
	 Total Energy              =    -686.3119669105259391 [Eh]

	 ================> DF-SCS-MP2 Energies <==================
	-----------------------------------------------------------
	 SCS Same-Spin Scale       =       0.3333333333333333 [-]
	 SCS Opposite-Spin Scale   =       1.2000000000000000 [-]
	 SCS Same-Spin Energy      =      -0.2217972235666764 [Eh]
	 SCS Opposite-Spin Energy  =      -2.4528732699617435 [Eh]
	 SCS Correlation Energy    =      -2.6746704935284198 [Eh]
	 SCS Total Energy          =    -686.2771846750529221 [Eh]
	-----------------------------------------------------------

  Dipole Moment: [D]
     X:     0.1229      Y:     1.3574      Z:     1.4295     Total:     1.9751

*** Psi4 exiting successfully. Buy a developer a beer!
