                               Psi4 1.3.2 release

  ==> Input File <==

--------------------------------------------------------------------------
#psi4
#
memory 32 gb

molecule  {
0 1
  O       -0.6435842    -1.0024578    -0.3229221
  O       -0.7529000     2.5454980     0.2011280
  O        1.9863450     1.9788980    -0.3426730
  O        2.9116540    -0.6744470     0.1695670
  O        0.9157630    -2.7262860    -0.0672430
  O       -3.4138550    -0.8877920     0.1899090
  C       -0.3205170     1.2520290    -0.2382820
  C        1.1174580     1.0033160     0.2012620
  C       -1.2273170     0.1250620     0.2312770
  C        1.5822600    -0.3816350    -0.2226430
  C        0.5842790    -1.4279170     0.2862350
  C       -2.6461720     0.2016390    -0.2964840
  H       -0.3421210     1.3021240    -1.3326030
  H        1.1389810     1.0438400     1.3116400
  H       -1.2614020     0.1027960     1.3365120
  H        1.5823060    -0.4261990    -1.3195550
  H        0.5265370    -1.4152780     1.3862880
  H       -2.6088310     0.2173240    -1.3960300
  H       -3.1281770     1.1200080     0.0454480
  H       -0.8264260     2.5110960     1.1737150
  H        1.5069660     2.8252470    -0.2509780
  H        3.0031740    -0.4532420     1.1134330
  H        1.2543330    -2.7122130    -0.9803670
  H       -2.8912910    -1.6827110    -0.0238270
units angstrom
no_reorient  #important for SAPT in psi4, default
symmetry c1  #important for SAPT in psi4, default
}

set PROPERTIES_ORIGIN ["COM"]
properties('MP2/aug-cc-pvtz', properties = ['dipole'])
--------------------------------------------------------------------------

    Molecular point group: c1
  Charge       = 0
  Multiplicity = 1
  Basis Set: AUG-CC-PVTZ
    Blend: AUG-CC-PVTZ
  Basis Set: (AUG-CC-PVTZ AUX)
    Blend: AUG-CC-PVTZ-JKFIT

    Orbital Energies [Eh]
    ---------------------

    Doubly Occupied:

       1A    -20.592447     2A    -20.588712     3A    -20.586678
       4A    -20.575694     5A    -20.575431     6A    -20.565010
       7A    -11.359789     8A    -11.307478     9A    -11.304797
      10A    -11.304035    11A    -11.301304    12A    -11.286746
      13A     -1.449201    14A     -1.401449    15A     -1.388638
      16A     -1.375397    17A     -1.363559    18A     -1.359750
      19A     -1.073946    20A     -1.055791    21A     -0.945935
      22A     -0.890198    23A     -0.852957    24A     -0.844309
      25A     -0.759245    26A     -0.731677    27A     -0.718806
      28A     -0.709232    29A     -0.697875    30A     -0.675339
      31A     -0.662085    32A     -0.654161    33A     -0.616379
      34A     -0.614454    35A     -0.598132    36A     -0.588402
      37A     -0.570828    38A     -0.561999    39A     -0.551691
      40A     -0.541141    41A     -0.531737    42A     -0.522804
      43A     -0.503460    44A     -0.485087    45A     -0.470614
      46A     -0.460651    47A     -0.447517    48A     -0.423395

  @DF-RHF Final Energy:  -683.59955249635311

   => Energetics <=

    Nuclear Repulsion Energy =            827.0022779476598771
    One-Electron Energy =               -2582.3117399609891436
    Two-Electron Energy =                1071.7099095169762677
    Total Energy =                       -683.5995524963529988
  Basis Set: (AUG-CC-PVTZ AUX)
    Blend: AUG-CC-PVTZ-RI
    Molecular point group: c1

    Geometry (in Angstrom), charge = 0, multiplicity = 1:

       Center              X                  Y                   Z               Mass
    ------------   -----------------  -----------------  -----------------  -----------------
         O           -0.660620386052    -0.999460334805    -0.311001351159    15.994914619570
         O           -0.769936186052     2.548495465195     0.213048748841    15.994914619570
         O            1.969308813948     1.981895465195    -0.330752251159    15.994914619570
         O            2.894617813948    -0.671449534805     0.181487748841    15.994914619570
         O            0.898726813948    -2.723288534805    -0.055322251159    15.994914619570
         O           -3.430891186052    -0.884794534805     0.201829748841    15.994914619570
         C           -0.337553186052     1.255026465195    -0.226361251159    12.000000000000
         C            1.100421813948     1.006313465195     0.213182748841    12.000000000000
         C           -1.244353186052     0.128059465195     0.243197748841    12.000000000000
         C            1.565223813948    -0.378637534805    -0.210722251159    12.000000000000
         C            0.567242813948    -1.424919534805     0.298155748841    12.000000000000
         C           -2.663208186052     0.204636465195    -0.284563251159    12.000000000000
         H           -0.359157186052     1.305121465195    -1.320682251159     1.007825032230
         H            1.121944813948     1.046837465195     1.323560748841     1.007825032230
         H           -1.278438186052     0.105793465195     1.348432748841     1.007825032230
         H            1.565269813948    -0.423201534805    -1.307634251159     1.007825032230
         H            0.509500813948    -1.412280534805     1.398208748841     1.007825032230
         H           -2.625867186052     0.220321465195    -1.384109251159     1.007825032230
         H           -3.145213186052     1.123005465195     0.057368748841     1.007825032230
         H           -0.843462186052     2.514093465195     1.185635748841     1.007825032230
         H            1.489929813948     2.828244465195    -0.239057251159     1.007825032230
         H            2.986137813948    -0.450244534805     1.125353748841     1.007825032230
         H            1.237296813948    -2.709215534805    -0.968446251159     1.007825032230
         H           -2.908327186052    -1.679713534805    -0.011906251159     1.007825032230

  Basis Set: AUG-CC-PVTZ
    Blend: AUG-CC-PVTZ
  Basis Set: (AUG-CC-PVTZ AUX)
    Blend: AUG-CC-PVTZ-JKFIT
	 Reference Energy          =    -683.5995524963531125 [Eh]
	 Singles Energy            =      -0.0000000000000000 [Eh]
	 Same-Spin Energy          =      -0.6654681767944262 [Eh]
	 Opposite-Spin Energy      =      -2.0439163520816566 [Eh]
	 Correlation Energy        =      -2.7093845288760825 [Eh]
	 Total Energy              =    -686.3089370252291701 [Eh]

	 ================> DF-SCS-MP2 Energies <==================
	-----------------------------------------------------------
	 SCS Same-Spin Scale       =       0.3333333333333333 [-]
	 SCS Opposite-Spin Scale   =       1.2000000000000000 [-]
	 SCS Same-Spin Energy      =      -0.2218227255981420 [Eh]
	 SCS Opposite-Spin Energy  =      -2.4526996224979878 [Eh]
	 SCS Correlation Energy    =      -2.6745223480961298 [Eh]
	 SCS Total Energy          =    -686.2740748444492738 [Eh]
	-----------------------------------------------------------

  Dipole Moment: [D]
     X:     0.0667      Y:     1.2389      Z:     1.4587     Total:     1.9150

*** Psi4 exiting successfully. Buy a developer a beer!
