                               Psi4 1.3.2 release

  ==> Input File <==

--------------------------------------------------------------------------
#psi4
#
memory 32 gb

molecule  {
0 1
  O       -0.7087550    -1.1193400    -0.2546710
  O       -0.7529000     2.5454980     0.2011280
  O        1.9863450     1.9788980    -0.3426730
  O        2.9116540    -0.6744470     0.1695670
  O        0.9157630    -2.7262860    -0.0672430
  O       -3.4138550    -0.8877920     0.1899090
  C       -0.3205170     1.2520290    -0.2382820
  C        1.1174580     1.0033160     0.2012620
  C       -1.2273170     0.1250620     0.2312770
  C        1.5822600    -0.3816350    -0.2226430
  C        0.5842790    -1.4279170     0.2862350
  C       -2.4589590     0.1915349    -0.2268478
  H       -0.3421210     1.3021240    -1.3326030
  H        1.1389810     1.0438400     1.3116400
  H       -1.2614020     0.1027960     1.3365120
  H        1.5823060    -0.4261990    -1.3195550
  H        0.5265370    -1.4152780     1.3862880
  H       -2.6088310     0.2173240    -1.3960300
  H       -3.1281770     1.1200080     0.0454480
  H       -0.8264260     2.5110960     1.1737150
  H        1.5069660     2.8252470    -0.2509780
  H        3.0031740    -0.4532420     1.1134330
  H        1.2543330    -2.7122130    -0.9803670
  H       -2.8912910    -1.6827110    -0.0238270
units angstrom
no_reorient  #important for SAPT in psi4, default
symmetry c1  #important for SAPT in psi4, default
}

set PROPERTIES_ORIGIN ["COM"]
properties('MP2/aug-cc-pvtz', properties = ['dipole'])
--------------------------------------------------------------------------

    Molecular point group: c1
  Charge       = 0
  Multiplicity = 1
  Basis Set: AUG-CC-PVTZ
    Blend: AUG-CC-PVTZ
  Basis Set: (AUG-CC-PVTZ AUX)
    Blend: AUG-CC-PVTZ-JKFIT

    Orbital Energies [Eh]
    ---------------------

    Doubly Occupied:

       1A    -20.601185     2A    -20.591344     3A    -20.585387
       4A    -20.581143     5A    -20.580280     6A    -20.559313
       7A    -11.358935     8A    -11.316550     9A    -11.313105
      10A    -11.307354    11A    -11.303522    12A    -11.291321
      13A     -1.445138    14A     -1.408220    15A     -1.390700
      16A     -1.373293    17A     -1.367373    18A     -1.333527
      19A     -1.105823    20A     -1.073420    21A     -0.957123
      22A     -0.895820    23A     -0.851917    24A     -0.834578
      25A     -0.757935    26A     -0.736977    27A     -0.725884
      28A     -0.713875    29A     -0.696895    30A     -0.686997
      31A     -0.660076    32A     -0.645844    33A     -0.623529
      34A     -0.614153    35A     -0.590530    36A     -0.580586
      37A     -0.570772    38A     -0.564482    39A     -0.555036
      40A     -0.541731    41A     -0.525838    42A     -0.516059
      43A     -0.501815    44A     -0.490573    45A     -0.477422
      46A     -0.458563    47A     -0.447368    48A     -0.435361

  @DF-RHF Final Energy:  -683.54997709183840

   => Energetics <=

    Nuclear Repulsion Energy =            828.4555083615618969
    One-Electron Energy =               -2584.9216275531689462
    Two-Electron Energy =                1072.9161420997686491
    Total Energy =                       -683.5499770918384002
  Basis Set: (AUG-CC-PVTZ AUX)
    Blend: AUG-CC-PVTZ-RI
    Molecular point group: c1

    Geometry (in Angstrom), charge = 0, multiplicity = 1:

       Center              X                  Y                   Z               Mass
    ------------   -----------------  -----------------  -----------------  -----------------
         O           -0.732478578925    -1.105286594836    -0.253453731402    15.994914619570
         O           -0.776623578925     2.559551405164     0.202345268598    15.994914619570
         O            1.962621421075     1.992951405164    -0.341455731402    15.994914619570
         O            2.887930421075    -0.660393594836     0.170784268598    15.994914619570
         O            0.892039421075    -2.712232594836    -0.066025731402    15.994914619570
         O           -3.437578578925    -0.873738594836     0.191126268598    15.994914619570
         C           -0.344240578925     1.266082405164    -0.237064731402    12.000000000000
         C            1.093734421075     1.017369405164     0.202479268598    12.000000000000
         C           -1.251040578925     0.139115405164     0.232494268598    12.000000000000
         C            1.558536421075    -0.367581594836    -0.221425731402    12.000000000000
         C            0.560555421075    -1.413863594836     0.287452268598    12.000000000000
         C           -2.482682578925     0.205588305164    -0.225630531402    12.000000000000
         H           -0.365844578925     1.316177405164    -1.331385731402     1.007825032230
         H            1.115257421075     1.057893405164     1.312857268598     1.007825032230
         H           -1.285125578925     0.116849405164     1.337729268598     1.007825032230
         H            1.558582421075    -0.412145594836    -1.318337731402     1.007825032230
         H            0.502813421075    -1.401224594836     1.387505268598     1.007825032230
         H           -2.632554578925     0.231377405164    -1.394812731402     1.007825032230
         H           -3.151900578925     1.134061405164     0.046665268598     1.007825032230
         H           -0.850149578925     2.525149405164     1.174932268598     1.007825032230
         H            1.483242421075     2.839300405164    -0.249760731402     1.007825032230
         H            2.979450421075    -0.439188594836     1.114650268598     1.007825032230
         H            1.230609421075    -2.698159594836    -0.979149731402     1.007825032230
         H           -2.915014578925    -1.668657594836    -0.022609731402     1.007825032230

  Basis Set: AUG-CC-PVTZ
    Blend: AUG-CC-PVTZ
  Basis Set: (AUG-CC-PVTZ AUX)
    Blend: AUG-CC-PVTZ-JKFIT
	 Reference Energy          =    -683.5499770918384002 [Eh]
	 Singles Energy            =      -0.0000000000000000 [Eh]
	 Same-Spin Energy          =      -0.6692036251201052 [Eh]
	 Opposite-Spin Energy      =      -2.0512720627695411 [Eh]
	 Correlation Energy        =      -2.7204756878896461 [Eh]
	 Total Energy              =    -686.2704527797280889 [Eh]

	 ================> DF-SCS-MP2 Energies <==================
	-----------------------------------------------------------
	 SCS Same-Spin Scale       =       0.3333333333333333 [-]
	 SCS Opposite-Spin Scale   =       1.2000000000000000 [-]
	 SCS Same-Spin Energy      =      -0.2230678750400351 [Eh]
	 SCS Opposite-Spin Energy  =      -2.4615264753234491 [Eh]
	 SCS Correlation Energy    =      -2.6845943503634841 [Eh]
	 SCS Total Energy          =    -686.2345714422018546 [Eh]
	-----------------------------------------------------------

  Dipole Moment: [D]
     X:     0.5698      Y:     1.7578      Z:     1.4354     Total:     2.3399

*** Psi4 exiting successfully. Buy a developer a beer!
