                               Psi4 1.3.2 release

  ==> Input File <==

--------------------------------------------------------------------------
#psi4
#
memory 32 gb

molecule  {
0 1
  O       -0.7087550    -1.1193400    -0.2546710
  O       -0.7529000     2.5454980     0.2011280
  O        1.9863450     1.9788980    -0.3426730
  O        2.9116540    -0.6744470     0.1695670
  O        0.9157630    -2.7262860    -0.0672430
  O       -3.4138550    -0.8877920     0.1899090
  C       -0.3205170     1.2520290    -0.2382820
  C        1.1174580     1.0033160     0.2012620
  C       -1.2273170     0.1250620     0.2312770
  C        1.5822600    -0.3816350    -0.2226430
  C        0.5842790    -1.4279170     0.2862350
  C       -2.5831319     0.2018818    -0.4420803
  H       -0.3421210     1.3021240    -1.3326030
  H        1.1389810     1.0438400     1.3116400
  H       -1.2614020     0.1027960     1.3365120
  H        1.5823060    -0.4261990    -1.3195550
  H        0.5265370    -1.4152780     1.3862880
  H       -2.6088310     0.2173240    -1.3960300
  H       -3.1281770     1.1200080     0.0454480
  H       -0.8264260     2.5110960     1.1737150
  H        1.5069660     2.8252470    -0.2509780
  H        3.0031740    -0.4532420     1.1134330
  H        1.2543330    -2.7122130    -0.9803670
  H       -2.8912910    -1.6827110    -0.0238270
units angstrom
no_reorient  #important for SAPT in psi4, default
symmetry c1  #important for SAPT in psi4, default
}

set PROPERTIES_ORIGIN ["COM"]
properties('MP2/aug-cc-pvtz', properties = ['dipole'])
--------------------------------------------------------------------------

    Molecular point group: c1
  Charge       = 0
  Multiplicity = 1
  Basis Set: AUG-CC-PVTZ
    Blend: AUG-CC-PVTZ
  Basis Set: (AUG-CC-PVTZ AUX)
    Blend: AUG-CC-PVTZ-JKFIT

    Orbital Energies [Eh]
    ---------------------

    Doubly Occupied:

       1A    -20.598951     2A    -20.588250     3A    -20.583875
       4A    -20.579705     5A    -20.577989     6A    -20.557550
       7A    -11.356871     8A    -11.312257     9A    -11.310867
      10A    -11.310130    11A    -11.305653    12A    -11.286999
      13A     -1.440625    14A     -1.405736    15A     -1.387757
      16A     -1.369431    17A     -1.364615    18A     -1.329718
      19A     -1.082698    20A     -1.054638    21A     -0.949277
      22A     -0.892677    23A     -0.860892    24A     -0.846127
      25A     -0.752519    26A     -0.731527    27A     -0.721042
      28A     -0.711609    29A     -0.687422    30A     -0.678032
      31A     -0.661256    32A     -0.654569    33A     -0.621202
      34A     -0.620004    35A     -0.593443    36A     -0.577043
      37A     -0.563376    38A     -0.561705    39A     -0.549507
      40A     -0.542132    41A     -0.522631    42A     -0.517111
      43A     -0.503812    44A     -0.485139    45A     -0.475682
      46A     -0.473254    47A     -0.448153    48A     -0.429594

  @DF-RHF Final Energy:  -683.56985662557861

   => Energetics <=

    Nuclear Repulsion Energy =            824.5113043051605928
    One-Electron Energy =               -2577.2922124435845035
    Two-Electron Energy =                1069.2110515128454153
    Total Energy =                       -683.5698566255784954
  Basis Set: (AUG-CC-PVTZ AUX)
    Blend: AUG-CC-PVTZ-RI
    Molecular point group: c1

    Geometry (in Angstrom), charge = 0, multiplicity = 1:

       Center              X                  Y                   Z               Mass
    ------------   -----------------  -----------------  -----------------  -----------------
         O           -0.724203299782    -1.105976145340    -0.239109949320    15.994914619570
         O           -0.768348299782     2.558861854660     0.216689050680    15.994914619570
         O            1.970896700218     1.992261854660    -0.327111949320    15.994914619570
         O            2.896205700218    -0.661083145340     0.185128050680    15.994914619570
         O            0.900314700218    -2.712922145340    -0.051681949320    15.994914619570
         O           -3.429303299782    -0.874428145340     0.205470050680    15.994914619570
         C           -0.335965299782     1.265392854660    -0.222720949320    12.000000000000
         C            1.102009700218     1.016679854660     0.216823050680    12.000000000000
         C           -1.242765299782     0.138425854660     0.246838050680    12.000000000000
         C            1.566811700218    -0.368271145340    -0.207081949320    12.000000000000
         C            0.568830700218    -1.414553145340     0.301796050680    12.000000000000
         C           -2.598580199782     0.215245654660    -0.426519249320    12.000000000000
         H           -0.357569299782     1.315487854660    -1.317041949320     1.007825032230
         H            1.123532700218     1.057203854660     1.327201050680     1.007825032230
         H           -1.276850299782     0.116159854660     1.352073050680     1.007825032230
         H            1.566857700218    -0.412835145340    -1.303993949320     1.007825032230
         H            0.511088700218    -1.401914145340     1.401849050680     1.007825032230
         H           -2.624279299782     0.230687854660    -1.380468949320     1.007825032230
         H           -3.143625299782     1.133371854660     0.061009050680     1.007825032230
         H           -0.841874299782     2.524459854660     1.189276050680     1.007825032230
         H            1.491517700218     2.838610854660    -0.235416949320     1.007825032230
         H            2.987725700218    -0.439878145340     1.128994050680     1.007825032230
         H            1.238884700218    -2.698849145340    -0.964805949320     1.007825032230
         H           -2.906739299782    -1.669347145340    -0.008265949320     1.007825032230

  Basis Set: AUG-CC-PVTZ
    Blend: AUG-CC-PVTZ
  Basis Set: (AUG-CC-PVTZ AUX)
    Blend: AUG-CC-PVTZ-JKFIT
	 Reference Energy          =    -683.5698566255786091 [Eh]
	 Singles Energy            =      -0.0000000000000000 [Eh]
	 Same-Spin Energy          =      -0.6663034899438969 [Eh]
	 Opposite-Spin Energy      =      -2.0484556437173325 [Eh]
	 Correlation Energy        =      -2.7147591336612296 [Eh]
	 Total Energy              =    -686.2846157592398413 [Eh]

	 ================> DF-SCS-MP2 Energies <==================
	-----------------------------------------------------------
	 SCS Same-Spin Scale       =       0.3333333333333333 [-]
	 SCS Opposite-Spin Scale   =       1.2000000000000000 [-]
	 SCS Same-Spin Energy      =      -0.2221011633146323 [Eh]
	 SCS Opposite-Spin Energy  =      -2.4581467724607990 [Eh]
	 SCS Correlation Energy    =      -2.6802479357754314 [Eh]
	 SCS Total Energy          =    -686.2501045613540782 [Eh]
	-----------------------------------------------------------

  Dipole Moment: [D]
     X:     0.4005      Y:     1.7123      Z:     1.1916     Total:     2.1242

*** Psi4 exiting successfully. Buy a developer a beer!
