                               Psi4 1.3.2 release

  ==> Input File <==

--------------------------------------------------------------------------
#psi4
#
memory 32 gb

molecule  {
0 1
  O       -0.7087550    -1.1193400    -0.2546710
  O       -0.7529000     2.5454980     0.2011280
  O        1.9863450     1.9788980    -0.3426730
  O        2.9116540    -0.6744470     0.1695670
  O        0.9157630    -2.7262860    -0.0672430
  O       -3.4138550    -0.8877920     0.1899090
  C       -0.3205170     1.2520290    -0.2382820
  C        1.1174580     1.0033160     0.2012620
  C       -1.2682739     0.1178422     0.2034851
  C        1.5822600    -0.3816350    -0.2226430
  C        0.5842790    -1.4279170     0.2862350
  C       -2.6461720     0.2016390    -0.2964840
  H       -0.3421210     1.3021240    -1.3326030
  H        1.1389810     1.0438400     1.3116400
  H       -1.2614020     0.1027960     1.3365120
  H        1.5823060    -0.4261990    -1.3195550
  H        0.5265370    -1.4152780     1.3862880
  H       -2.6088310     0.2173240    -1.3960300
  H       -3.1281770     1.1200080     0.0454480
  H       -0.8264260     2.5110960     1.1737150
  H        1.5069660     2.8252470    -0.2509780
  H        3.0031740    -0.4532420     1.1134330
  H        1.2543330    -2.7122130    -0.9803670
  H       -2.8912910    -1.6827110    -0.0238270
units angstrom
no_reorient  #important for SAPT in psi4, default
symmetry c1  #important for SAPT in psi4, default
}

set PROPERTIES_ORIGIN ["COM"]
properties('MP2/aug-cc-pvtz', properties = ['dipole'])
--------------------------------------------------------------------------

    Molecular point group: c1
  Charge       = 0
  Multiplicity = 1
  Basis Set: AUG-CC-PVTZ
    Blend: AUG-CC-PVTZ
  Basis Set: (AUG-CC-PVTZ AUX)
    Blend: AUG-CC-PVTZ-JKFIT

    Orbital Energies [Eh]
    ---------------------

    Doubly Occupied:

       1A    -20.597730     2A    -20.587009     3A    -20.584150
       4A    -20.579117     5A    -20.578014     6A    -20.563324
       7A    -11.357555     8A    -11.311381     9A    -11.310449
      10A    -11.310198    11A    -11.305000    12A    -11.286061
      13A     -1.439522    14A     -1.404681    15A     -1.387807
      16A     -1.373675    17A     -1.366104    18A     -1.353163
      19A     -1.079027    20A     -1.056155    21A     -0.950605
      22A     -0.890897    23A     -0.854233    24A     -0.838755
      25A     -0.754295    26A     -0.729897    27A     -0.720975
      28A     -0.708679    29A     -0.694550    30A     -0.676454
      31A     -0.660712    32A     -0.655101    33A     -0.620153
      34A     -0.616002    35A     -0.599374    36A     -0.587503
      37A     -0.570741    38A     -0.562123    39A     -0.555768
      40A     -0.542873    41A     -0.528567    42A     -0.514836
      43A     -0.499742    44A     -0.488185    45A     -0.472513
      46A     -0.461756    47A     -0.450165    48A     -0.430207

  @DF-RHF Final Energy:  -683.60109271631109

   => Energetics <=

    Nuclear Repulsion Energy =            824.5149014336233222
    One-Electron Energy =               -2577.3004224645396789
    Two-Electron Energy =                1069.1844283146051566
    Total Energy =                       -683.6010927163110864
  Basis Set: (AUG-CC-PVTZ AUX)
    Blend: AUG-CC-PVTZ-RI
    Molecular point group: c1

    Geometry (in Angstrom), charge = 0, multiplicity = 1:

       Center              X                  Y                   Z               Mass
    ------------   -----------------  -----------------  -----------------  -----------------
         O           -0.717272607134    -1.105478813812    -0.246960811257    15.994914619570
         O           -0.761417607134     2.559359186188     0.208838188743    15.994914619570
         O            1.977827392866     1.992759186188    -0.334962811257    15.994914619570
         O            2.903136392866    -0.660585813812     0.177277188743    15.994914619570
         O            0.907245392866    -2.712424813812    -0.059532811257    15.994914619570
         O           -3.422372607134    -0.873930813812     0.197619188743    15.994914619570
         C           -0.329034607134     1.265890186188    -0.230571811257    12.000000000000
         C            1.108940392866     1.017177186188     0.208972188743    12.000000000000
         C           -1.276791507134     0.131703386188     0.211195288743    12.000000000000
         C            1.573742392866    -0.367773813812    -0.214932811257    12.000000000000
         C            0.575761392866    -1.414055813812     0.293945188743    12.000000000000
         C           -2.654689607134     0.215500186188    -0.288773811257    12.000000000000
         H           -0.350638607134     1.315985186188    -1.324892811257     1.007825032230
         H            1.130463392866     1.057701186188     1.319350188743     1.007825032230
         H           -1.269919607134     0.116657186188     1.344222188743     1.007825032230
         H            1.573788392866    -0.412337813812    -1.311844811257     1.007825032230
         H            0.518019392866    -1.401416813812     1.393998188743     1.007825032230
         H           -2.617348607134     0.231185186188    -1.388319811257     1.007825032230
         H           -3.136694607134     1.133869186188     0.053158188743     1.007825032230
         H           -0.834943607134     2.524957186188     1.181425188743     1.007825032230
         H            1.498448392866     2.839108186188    -0.243267811257     1.007825032230
         H            2.994656392866    -0.439380813812     1.121143188743     1.007825032230
         H            1.245815392866    -2.698351813812    -0.972656811257     1.007825032230
         H           -2.899808607134    -1.668849813812    -0.016116811257     1.007825032230

  Basis Set: AUG-CC-PVTZ
    Blend: AUG-CC-PVTZ
  Basis Set: (AUG-CC-PVTZ AUX)
    Blend: AUG-CC-PVTZ-JKFIT
	 Reference Energy          =    -683.6010927163110864 [Eh]
	 Singles Energy            =      -0.0000000000000000 [Eh]
	 Same-Spin Energy          =      -0.6655850680386071 [Eh]
	 Opposite-Spin Energy      =      -2.0448719726504865 [Eh]
	 Correlation Energy        =      -2.7104570406890938 [Eh]
	 Total Energy              =    -686.3115497570001935 [Eh]

	 ================> DF-SCS-MP2 Energies <==================
	-----------------------------------------------------------
	 SCS Same-Spin Scale       =       0.3333333333333333 [-]
	 SCS Opposite-Spin Scale   =       1.2000000000000000 [-]
	 SCS Same-Spin Energy      =      -0.2218616893462023 [Eh]
	 SCS Opposite-Spin Energy  =      -2.4538463671805837 [Eh]
	 SCS Correlation Energy    =      -2.6757080565267861 [Eh]
	 SCS Total Energy          =    -686.2768007728378734 [Eh]
	-----------------------------------------------------------

  Dipole Moment: [D]
     X:     0.1913      Y:     1.6069      Z:     1.3310     Total:     2.0953

*** Psi4 exiting successfully. Buy a developer a beer!
