                               Psi4 1.3.2 release

  ==> Input File <==

--------------------------------------------------------------------------
#psi4
#
memory 32 gb

molecule  {
0 1
  O       -0.7087550    -1.1193400    -0.2546710
  O       -0.7529000     2.5454980     0.2011280
  O        1.8668344     2.0382276    -0.4070004
  O        2.9116540    -0.6744470     0.1695670
  O        0.9157630    -2.7262860    -0.0672430
  O       -3.4138550    -0.8877920     0.1899090
  C       -0.3205170     1.2520290    -0.2382820
  C        1.1174580     1.0033160     0.2012620
  C       -1.2273170     0.1250620     0.2312770
  C        1.5822600    -0.3816350    -0.2226430
  C        0.5842790    -1.4279170     0.2862350
  C       -2.6461720     0.2016390    -0.2964840
  H       -0.3421210     1.3021240    -1.3326030
  H        1.1389810     1.0438400     1.3116400
  H       -1.2614020     0.1027960     1.3365120
  H        1.5823060    -0.4261990    -1.3195550
  H        0.5265370    -1.4152780     1.3862880
  H       -2.6088310     0.2173240    -1.3960300
  H       -3.1281770     1.1200080     0.0454480
  H       -0.8264260     2.5110960     1.1737150
  H        1.5069660     2.8252470    -0.2509780
  H        3.0031740    -0.4532420     1.1134330
  H        1.2543330    -2.7122130    -0.9803670
  H       -2.8912910    -1.6827110    -0.0238270
units angstrom
no_reorient  #important for SAPT in psi4, default
symmetry c1  #important for SAPT in psi4, default
}

set PROPERTIES_ORIGIN ["COM"]
properties('MP2/aug-cc-pvtz', properties = ['dipole'])
--------------------------------------------------------------------------

    Molecular point group: c1
  Charge       = 0
  Multiplicity = 1
  Basis Set: AUG-CC-PVTZ
    Blend: AUG-CC-PVTZ
  Basis Set: (AUG-CC-PVTZ AUX)
    Blend: AUG-CC-PVTZ-JKFIT

    Orbital Energies [Eh]
    ---------------------

    Doubly Occupied:

       1A    -20.595473     2A    -20.588245     3A    -20.585238
       4A    -20.581401     5A    -20.565175     6A    -20.561378
       7A    -11.358778     8A    -11.312585     9A    -11.308274
      10A    -11.306513    11A    -11.305241    12A    -11.285554
      13A     -1.440936    14A     -1.414069    15A     -1.389043
      16A     -1.376199    17A     -1.371226    18A     -1.352685
      19A     -1.084072    20A     -1.051616    21A     -0.946378
      22A     -0.895036    23A     -0.858097    24A     -0.841401
      25A     -0.761724    26A     -0.733446    27A     -0.723084
      28A     -0.708600    29A     -0.693208    30A     -0.681819
      31A     -0.667118    32A     -0.658343    33A     -0.619015
      34A     -0.614683    35A     -0.596987    36A     -0.587943
      37A     -0.570053    38A     -0.563338    39A     -0.554482
      40A     -0.538072    41A     -0.526749    42A     -0.517413
      43A     -0.502998    44A     -0.487990    45A     -0.480037
      46A     -0.460828    47A     -0.445704    48A     -0.429416

  @DF-RHF Final Energy:  -683.59729418738118

   => Energetics <=

    Nuclear Repulsion Energy =            825.6988463323457381
    One-Electron Energy =               -2579.5969552395263236
    Two-Electron Energy =                1070.3008147197995186
    Total Energy =                       -683.5972941873810669
  Basis Set: (AUG-CC-PVTZ AUX)
    Blend: AUG-CC-PVTZ-RI
    Molecular point group: c1

    Geometry (in Angstrom), charge = 0, multiplicity = 1:

       Center              X                  Y                   Z               Mass
    ------------   -----------------  -----------------  -----------------  -----------------
         O           -0.709386056414    -1.111230174470    -0.243098790899    15.994914619570
         O           -0.753531056414     2.553607825530     0.212700209101    15.994914619570
         O            1.866203343586     2.046337425530    -0.395428190899    15.994914619570
         O            2.911022943586    -0.666337174470     0.181139209101    15.994914619570
         O            0.915131943586    -2.718176174470    -0.055670790899    15.994914619570
         O           -3.414486056414    -0.879682174470     0.201481209101    15.994914619570
         C           -0.321148056414     1.260138825530    -0.226709790899    12.000000000000
         C            1.116826943586     1.011425825530     0.212834209101    12.000000000000
         C           -1.227948056414     0.133171825530     0.242849209101    12.000000000000
         C            1.581628943586    -0.373525174470    -0.211070790899    12.000000000000
         C            0.583647943586    -1.419807174470     0.297807209101    12.000000000000
         C           -2.646803056414     0.209748825530    -0.284911790899    12.000000000000
         H           -0.342752056414     1.310233825530    -1.321030790899     1.007825032230
         H            1.138349943586     1.051949825530     1.323212209101     1.007825032230
         H           -1.262033056414     0.110905825530     1.348084209101     1.007825032230
         H            1.581674943586    -0.418089174470    -1.307982790899     1.007825032230
         H            0.525905943586    -1.407168174470     1.397860209101     1.007825032230
         H           -2.609462056414     0.225433825530    -1.384457790899     1.007825032230
         H           -3.128808056414     1.128117825530     0.057020209101     1.007825032230
         H           -0.827057056414     2.519205825530     1.185287209101     1.007825032230
         H            1.506334943586     2.833356825530    -0.239405790899     1.007825032230
         H            3.002542943586    -0.445132174470     1.125005209101     1.007825032230
         H            1.253701943586    -2.704103174470    -0.968794790899     1.007825032230
         H           -2.891922056414    -1.674601174470    -0.012254790899     1.007825032230

  Basis Set: AUG-CC-PVTZ
    Blend: AUG-CC-PVTZ
  Basis Set: (AUG-CC-PVTZ AUX)
    Blend: AUG-CC-PVTZ-JKFIT
	 Reference Energy          =    -683.5972941873811806 [Eh]
	 Singles Energy            =      -0.0000000000000000 [Eh]
	 Same-Spin Energy          =      -0.6641055411181780 [Eh]
	 Opposite-Spin Energy      =      -2.0416843856131135 [Eh]
	 Correlation Energy        =      -2.7057899267312915 [Eh]
	 Total Energy              =    -686.3030841141124938 [Eh]

	 ================> DF-SCS-MP2 Energies <==================
	-----------------------------------------------------------
	 SCS Same-Spin Scale       =       0.3333333333333333 [-]
	 SCS Opposite-Spin Scale   =       1.2000000000000000 [-]
	 SCS Same-Spin Energy      =      -0.2213685137060593 [Eh]
	 SCS Opposite-Spin Energy  =      -2.4500212627357363 [Eh]
	 SCS Correlation Energy    =      -2.6713897764417958 [Eh]
	 SCS Total Energy          =    -686.2686839638229230 [Eh]
	-----------------------------------------------------------

  Dipole Moment: [D]
     X:     0.4706      Y:     1.4891      Z:     1.5357     Total:     2.1903

*** Psi4 exiting successfully. Buy a developer a beer!
