                               Psi4 1.3.2 release

  ==> Input File <==

--------------------------------------------------------------------------
#psi4
#
memory 32 gb

molecule  {
0 1
  O       -0.7087550    -1.1193400    -0.2546710
  O       -0.7529000     2.5454980     0.2011280
  O        1.9863450     1.9788980    -0.3426730
  O        2.9116540    -0.6744470     0.1695670
  O        0.9157630    -2.7262860    -0.0672430
  O       -3.4138550    -0.8877920     0.1899090
  C       -0.3205170     1.2520290    -0.2382820
  C        1.1174580     1.0033160     0.2012620
  C       -1.2996896     0.2987357     0.2990978
  C        1.5822600    -0.3816350    -0.2226430
  C        0.5842790    -1.4279170     0.2862350
  C       -2.6461720     0.2016390    -0.2964840
  H       -0.3421210     1.3021240    -1.3326030
  H        1.1389810     1.0438400     1.3116400
  H       -1.2614020     0.1027960     1.3365120
  H        1.5823060    -0.4261990    -1.3195550
  H        0.5265370    -1.4152780     1.3862880
  H       -2.6088310     0.2173240    -1.3960300
  H       -3.1281770     1.1200080     0.0454480
  H       -0.8264260     2.5110960     1.1737150
  H        1.5069660     2.8252470    -0.2509780
  H        3.0031740    -0.4532420     1.1134330
  H        1.2543330    -2.7122130    -0.9803670
  H       -2.8912910    -1.6827110    -0.0238270
units angstrom
no_reorient  #important for SAPT in psi4, default
symmetry c1  #important for SAPT in psi4, default
}

set PROPERTIES_ORIGIN ["COM"]
properties('MP2/aug-cc-pvtz', properties = ['dipole'])
--------------------------------------------------------------------------

    Molecular point group: c1
  Charge       = 0
  Multiplicity = 1
  Basis Set: AUG-CC-PVTZ
    Blend: AUG-CC-PVTZ
  Basis Set: (AUG-CC-PVTZ AUX)
    Blend: AUG-CC-PVTZ-JKFIT

    Orbital Energies [Eh]
    ---------------------

    Doubly Occupied:

       1A    -20.600028     2A    -20.581303     3A    -20.575267
       4A    -20.574336     5A    -20.567774     6A    -20.565087
       7A    -11.344460     8A    -11.317993     9A    -11.317171
      10A    -11.313220    11A    -11.300058    12A    -11.293615
      13A     -1.419631    14A     -1.407221    15A     -1.385224
      16A     -1.370079    17A     -1.365493    18A     -1.320208
      19A     -1.091982    20A     -1.053727    21A     -0.953798
      22A     -0.886381    23A     -0.854644    24A     -0.845912
      25A     -0.748155    26A     -0.724184    27A     -0.718786
      28A     -0.710099    29A     -0.694133    30A     -0.675574
      31A     -0.651031    32A     -0.647442    33A     -0.628192
      34A     -0.614455    35A     -0.595902    36A     -0.591554
      37A     -0.569470    38A     -0.555571    39A     -0.552549
      40A     -0.547239    41A     -0.517235    42A     -0.511033
      43A     -0.486342    44A     -0.477663    45A     -0.472036
      46A     -0.468296    47A     -0.455873    48A     -0.427701

  @DF-RHF Final Energy:  -683.57056248072070

   => Energetics <=

    Nuclear Repulsion Energy =            822.7209460506484220
    One-Electron Energy =               -2573.8927621877146521
    Two-Electron Energy =                1067.6012536563457616
    Total Energy =                       -683.5705624807205822
  Basis Set: (AUG-CC-PVTZ AUX)
    Blend: AUG-CC-PVTZ-RI
    Molecular point group: c1

    Geometry (in Angstrom), charge = 0, multiplicity = 1:

       Center              X                  Y                   Z               Mass
    ------------   -----------------  -----------------  -----------------  -----------------
         O           -0.715178964423    -1.117534135123    -0.253332747341    15.994914619570
         O           -0.759323964423     2.547303864877     0.202466252659    15.994914619570
         O            1.979921035577     1.980703864877    -0.341334747341    15.994914619570
         O            2.905230035577    -0.672641135123     0.170905252659    15.994914619570
         O            0.909339035577    -2.724480135123    -0.065904747341    15.994914619570
         O           -3.420278964423    -0.885986135123     0.191247252659    15.994914619570
         C           -0.326940964423     1.253834864877    -0.236943747341    12.000000000000
         C            1.111034035577     1.005121864877     0.202600252659    12.000000000000
         C           -1.306113564423     0.300541564877     0.300436052659    12.000000000000
         C            1.575836035577    -0.379829135123    -0.221304747341    12.000000000000
         C            0.577855035577    -1.426111135123     0.287573252659    12.000000000000
         C           -2.652595964423     0.203444864877    -0.295145747341    12.000000000000
         H           -0.348544964423     1.303929864877    -1.331264747341     1.007825032230
         H            1.132557035577     1.045645864877     1.312978252659     1.007825032230
         H           -1.267825964423     0.104601864877     1.337850252659     1.007825032230
         H            1.575882035577    -0.424393135123    -1.318216747341     1.007825032230
         H            0.520113035577    -1.413472135123     1.387626252659     1.007825032230
         H           -2.615254964423     0.219129864877    -1.394691747341     1.007825032230
         H           -3.134600964423     1.121813864877     0.046786252659     1.007825032230
         H           -0.832849964423     2.512901864877     1.175053252659     1.007825032230
         H            1.500542035577     2.827052864877    -0.249639747341     1.007825032230
         H            2.996750035577    -0.451436135123     1.114771252659     1.007825032230
         H            1.247909035577    -2.710407135123    -0.979028747341     1.007825032230
         H           -2.897714964423    -1.680905135123    -0.022488747341     1.007825032230

  Basis Set: AUG-CC-PVTZ
    Blend: AUG-CC-PVTZ
  Basis Set: (AUG-CC-PVTZ AUX)
    Blend: AUG-CC-PVTZ-JKFIT
	 Reference Energy          =    -683.5705624807206959 [Eh]
	 Singles Energy            =      -0.0000000000000000 [Eh]
	 Same-Spin Energy          =      -0.6675474740576316 [Eh]
	 Opposite-Spin Energy      =      -2.0503530672908767 [Eh]
	 Correlation Energy        =      -2.7179005413485084 [Eh]
	 Total Energy              =    -686.2884630220692088 [Eh]

	 ================> DF-SCS-MP2 Energies <==================
	-----------------------------------------------------------
	 SCS Same-Spin Scale       =       0.3333333333333333 [-]
	 SCS Opposite-Spin Scale   =       1.2000000000000000 [-]
	 SCS Same-Spin Energy      =      -0.2225158246858772 [Eh]
	 SCS Opposite-Spin Energy  =      -2.4604236807490518 [Eh]
	 SCS Correlation Energy    =      -2.6829395054349292 [Eh]
	 SCS Total Energy          =    -686.2535019861555838 [Eh]
	-----------------------------------------------------------

  Dipole Moment: [D]
     X:    -0.0681      Y:     2.0688      Z:     1.4840     Total:     2.5470

*** Psi4 exiting successfully. Buy a developer a beer!
