                               Psi4 1.3.2 release

  ==> Input File <==

--------------------------------------------------------------------------
#psi4
#
memory 32 gb

molecule  {
0 1
  O       -0.7087550    -1.1193400    -0.2546710
  O       -0.7529000     2.5454980     0.2011280
  O        1.9863450     1.9788980    -0.3426730
  O        2.9116540    -0.6744470     0.1695670
  O        0.9157630    -2.7262860    -0.0672430
  O       -3.4138550    -0.8877920     0.1899090
  C       -0.3205170     1.2520290    -0.2382820
  C        1.1174580     1.0033160     0.2012620
  C       -1.2273170     0.1250620     0.2312770
  C        1.5608790    -0.3336534    -0.3729473
  C        0.5842790    -1.4279170     0.2862350
  C       -2.6461720     0.2016390    -0.2964840
  H       -0.3421210     1.3021240    -1.3326030
  H        1.1389810     1.0438400     1.3116400
  H       -1.2614020     0.1027960     1.3365120
  H        1.5823060    -0.4261990    -1.3195550
  H        0.5265370    -1.4152780     1.3862880
  H       -2.6088310     0.2173240    -1.3960300
  H       -3.1281770     1.1200080     0.0454480
  H       -0.8264260     2.5110960     1.1737150
  H        1.5069660     2.8252470    -0.2509780
  H        3.0031740    -0.4532420     1.1134330
  H        1.2543330    -2.7122130    -0.9803670
  H       -2.8912910    -1.6827110    -0.0238270
units angstrom
no_reorient  #important for SAPT in psi4, default
symmetry c1  #important for SAPT in psi4, default
}

set PROPERTIES_ORIGIN ["COM"]
properties('MP2/aug-cc-pvtz', properties = ['dipole'])
--------------------------------------------------------------------------

    Molecular point group: c1
  Charge       = 0
  Multiplicity = 1
  Basis Set: AUG-CC-PVTZ
    Blend: AUG-CC-PVTZ
  Basis Set: (AUG-CC-PVTZ AUX)
    Blend: AUG-CC-PVTZ-JKFIT

    Orbital Energies [Eh]
    ---------------------

    Doubly Occupied:

       1A    -20.598762     2A    -20.585833     3A    -20.583676
       4A    -20.576333     5A    -20.564943     6A    -20.562900
       7A    -11.361163     8A    -11.312242     9A    -11.310350
      10A    -11.308307    11A    -11.303024    12A    -11.287665
      13A     -1.438107    14A     -1.405396    15A     -1.378849
      16A     -1.372593    17A     -1.353361    18A     -1.340518
      19A     -1.082638    20A     -1.048922    21A     -0.944893
      22A     -0.892850    23A     -0.863532    24A     -0.844176
      25A     -0.753494    26A     -0.724257    27A     -0.717616
      28A     -0.708710    29A     -0.695857    30A     -0.670713
      31A     -0.657390    32A     -0.647125    33A     -0.625852
      34A     -0.617603    35A     -0.601005    36A     -0.591492
      37A     -0.570512    38A     -0.563761    39A     -0.551585
      40A     -0.541594    41A     -0.526814    42A     -0.511223
      43A     -0.505322    44A     -0.485982    45A     -0.478656
      46A     -0.460120    47A     -0.442933    48A     -0.420791

  @DF-RHF Final Energy:  -683.57120341293012

   => Energetics <=

    Nuclear Repulsion Energy =            823.6377835002999745
    One-Electron Energy =               -2575.6350920918748670
    Two-Electron Energy =                1068.4261051786447752
    Total Energy =                       -683.5712034129301173
  Basis Set: (AUG-CC-PVTZ AUX)
    Blend: AUG-CC-PVTZ-RI
    Molecular point group: c1

    Geometry (in Angstrom), charge = 0, multiplicity = 1:

       Center              X                  Y                   Z               Mass
    ------------   -----------------  -----------------  -----------------  -----------------
         O           -0.718577207711    -1.109157611634    -0.238796193144    15.994914619570
         O           -0.762722207711     2.555680388366     0.217002806856    15.994914619570
         O            1.976522792289     1.989080388366    -0.326798193144    15.994914619570
         O            2.901831792289    -0.664264611634     0.185441806856    15.994914619570
         O            0.905940792289    -2.716103611634    -0.051368193144    15.994914619570
         O           -3.423677207711    -0.877609611634     0.205783806856    15.994914619570
         C           -0.330339207711     1.262211388366    -0.222407193144    12.000000000000
         C            1.107635792289     1.013498388366     0.217136806856    12.000000000000
         C           -1.237139207711     0.135244388366     0.247151806856    12.000000000000
         C            1.551056792289    -0.323471011634    -0.357072493144    12.000000000000
         C            0.574456792289    -1.417734611634     0.302109806856    12.000000000000
         C           -2.655994207711     0.211821388366    -0.280609193144    12.000000000000
         H           -0.351943207711     1.312306388366    -1.316728193144     1.007825032230
         H            1.129158792289     1.054022388366     1.327514806856     1.007825032230
         H           -1.271224207711     0.112978388366     1.352386806856     1.007825032230
         H            1.572483792289    -0.416016611634    -1.303680193144     1.007825032230
         H            0.516714792289    -1.405095611634     1.402162806856     1.007825032230
         H           -2.618653207711     0.227506388366    -1.380155193144     1.007825032230
         H           -3.137999207711     1.130190388366     0.061322806856     1.007825032230
         H           -0.836248207711     2.521278388366     1.189589806856     1.007825032230
         H            1.497143792289     2.835429388366    -0.235103193144     1.007825032230
         H            2.993351792289    -0.443059611634     1.129307806856     1.007825032230
         H            1.244510792289    -2.702030611634    -0.964492193144     1.007825032230
         H           -2.901113207711    -1.672528611634    -0.007952193144     1.007825032230

  Basis Set: AUG-CC-PVTZ
    Blend: AUG-CC-PVTZ
  Basis Set: (AUG-CC-PVTZ AUX)
    Blend: AUG-CC-PVTZ-JKFIT
	 Reference Energy          =    -683.5712034129301173 [Eh]
	 Singles Energy            =      -0.0000000000000000 [Eh]
	 Same-Spin Energy          =      -0.6652976425967735 [Eh]
	 Opposite-Spin Energy      =      -2.0464726886686133 [Eh]
	 Correlation Energy        =      -2.7117703312653867 [Eh]
	 Total Energy              =    -686.2829737441954876 [Eh]

	 ================> DF-SCS-MP2 Energies <==================
	-----------------------------------------------------------
	 SCS Same-Spin Scale       =       0.3333333333333333 [-]
	 SCS Opposite-Spin Scale   =       1.2000000000000000 [-]
	 SCS Same-Spin Energy      =      -0.2217658808655912 [Eh]
	 SCS Opposite-Spin Energy  =      -2.4557672264023358 [Eh]
	 SCS Correlation Energy    =      -2.6775331072679269 [Eh]
	 SCS Total Energy          =    -686.2487365201980083 [Eh]
	-----------------------------------------------------------

  Dipole Moment: [D]
     X:    -0.0282      Y:     1.6283      Z:     1.2204     Total:     2.0351

*** Psi4 exiting successfully. Buy a developer a beer!
