                               Psi4 1.4a3.dev225

  ==> Input File <==

--------------------------------------------------------------------------
#psi4
#
memory 32 gb

molecule  {
0 1
  O       -0.7087730    -1.1193010    -0.2547420
  O       -0.7528450     2.5455330     0.2012150
  O        1.9863940     1.9788490    -0.3427120
  O        2.9116460    -0.6744970     0.1694850
  O        0.9156910    -2.7263170    -0.0671110
  O       -3.4138470    -0.8877920     0.1898460
  C       -0.3205030     1.2520640    -0.2382550
  C        1.1174820     1.0032940     0.2012350
  C       -1.2273260     0.1250970     0.2312670
  C        1.5353216    -0.3713471    -0.2365029
  C        0.5842200    -1.4279110     0.2862640
  C       -2.6461850     0.2016990    -0.2964600
  H       -0.3421180     1.3022200    -1.3325700
  H        1.1390340     1.0438120     1.3116130
  H       -1.2614040     0.1027740     1.3364960
  H        1.5822050    -0.4262820    -1.3195710
  H        0.5263940    -1.4152120     1.3863080
  H       -2.6088500     0.2174640    -1.3960030
  H       -3.1281860     1.1200450     0.0455410
  H       -0.8261980     2.5111300     1.1738140
  H        1.5071200     2.8252430    -0.2509020
  H        3.0032160    -0.4533580     1.1133610
  H        1.2544120    -2.7122960    -0.9801810
  H       -2.8913510    -1.6827050    -0.0240770
units angstrom
no_reorient  #important for SAPT in psi4, default
symmetry c1  #important for SAPT in psi4, default
}

set PROPERTIES_ORIGIN ["COM"]
properties('MP2/aug-cc-pvtz', properties = ['dipole'])
--------------------------------------------------------------------------

    Molecular point group: c1
  Charge       = 0
  Multiplicity = 1
  Basis Set: AUG-CC-PVTZ
    Blend: AUG-CC-PVTZ
  Basis Set: (AUG-CC-PVTZ AUX)
    Blend: AUG-CC-PVTZ-JKFIT

    Orbital Energies [Eh]
    ---------------------

    Doubly Occupied:

       1A    -20.598673     2A    -20.588614     3A    -20.585519
       4A    -20.578689     5A    -20.573482     6A    -20.563258
       7A    -11.358760     8A    -11.311323     9A    -11.310682
      10A    -11.308865    11A    -11.305085    12A    -11.287979
      13A     -1.441478    14A     -1.405676    15A     -1.381529
      16A     -1.373528    17A     -1.355899    18A     -1.352408
      19A     -1.085773    20A     -1.055058    21A     -0.947633
      22A     -0.893324    23A     -0.854466    24A     -0.843630
      25A     -0.755592    26A     -0.729708    27A     -0.716608
      28A     -0.710587    29A     -0.695265    30A     -0.671432
      31A     -0.661810    32A     -0.654664    33A     -0.619794
      34A     -0.613471    35A     -0.598068    36A     -0.582380
      37A     -0.569816    38A     -0.563138    39A     -0.553871
      40A     -0.544453    41A     -0.527336    42A     -0.515066
      43A     -0.505291    44A     -0.488406    45A     -0.477765
      46A     -0.462970    47A     -0.449096    48A     -0.433463

  @DF-RHF Final Energy:  -683.60050786550505

   => Energetics <=

    Nuclear Repulsion Energy =            825.0275728712924774
    One-Electron Energy =               -2578.3334050997063969
    Two-Electron Energy =                1069.7053243629088684
    Total Energy =                       -683.6005078655050511
  Basis Set: (AUG-CC-PVTZ AUX)
    Blend: AUG-CC-PVTZ-RI
    Molecular point group: c1

    Geometry (in Angstrom), charge = 0, multiplicity = 1:

       Center              X                  Y                   Z               Mass
    ------------   -----------------  -----------------  -----------------  -----------------
         O           -0.716891618137    -1.106609446481    -0.247960808440    15.994914619570
         O           -0.760963618137     2.558224553519     0.207996191560    15.994914619570
         O            1.978275381863     1.991540553519    -0.335930808440    15.994914619570
         O            2.903527381863    -0.661805446481     0.176266191560    15.994914619570
         O            0.907572381863    -2.713625446481    -0.060329808440    15.994914619570
         O           -3.421965618137    -0.875100446481     0.196627191560    15.994914619570
         C           -0.328621618137     1.264755553519    -0.231473808440    12.000000000000
         C            1.109363381863     1.015985553519     0.208016191560    12.000000000000
         C           -1.235444618137     0.137788553519     0.238048191560    12.000000000000
         C            1.527202981863    -0.358655546481    -0.229721708440    12.000000000000
         C            0.576101381863    -1.415219446481     0.293045191560    12.000000000000
         C           -2.654303618137     0.214390553519    -0.289678808440    12.000000000000
         H           -0.350236618137     1.314911553519    -1.325788808440     1.007825032230
         H            1.130915381863     1.056503553519     1.318394191560     1.007825032230
         H           -1.269522618137     0.115465553519     1.343277191560     1.007825032230
         H            1.574086381863    -0.413590446481    -1.312789808440     1.007825032230
         H            0.518275381863    -1.402520446481     1.393089191560     1.007825032230
         H           -2.616968618137     0.230155553519    -1.389221808440     1.007825032230
         H           -3.136304618137     1.132736553519     0.052322191560     1.007825032230
         H           -0.834316618137     2.523821553519     1.180595191560     1.007825032230
         H            1.499001381863     2.837934553519    -0.244120808440     1.007825032230
         H            2.995097381863    -0.440666446481     1.120142191560     1.007825032230
         H            1.246293381863    -2.699604446481    -0.973399808440     1.007825032230
         H           -2.899469618137    -1.670013446481    -0.017295808440     1.007825032230

  Basis Set: AUG-CC-PVTZ
    Blend: AUG-CC-PVTZ
  Basis Set: (AUG-CC-PVTZ AUX)
    Blend: AUG-CC-PVTZ-JKFIT
	 Reference Energy          =    -683.6005078655050511 [Eh]
	 Singles Energy            =      -0.0000000000000000 [Eh]
	 Same-Spin Energy          =      -0.6657541507729613 [Eh]
	 Opposite-Spin Energy      =      -2.0458173615090911 [Eh]
	 Correlation Energy        =      -2.7115715122820525 [Eh]
	 Total Energy              =    -686.3120793777870858 [Eh]

	 ================> DF-SCS-MP2 Energies <==================
	-----------------------------------------------------------
	 SCS Same-Spin Scale       =       0.3333333333333333 [-]
	 SCS Opposite-Spin Scale   =       1.2000000000000000 [-]
	 SCS Same-Spin Energy      =      -0.2219180502576538 [Eh]
	 SCS Opposite-Spin Energy  =      -2.4549808338109091 [Eh]
	 SCS Correlation Energy    =      -2.6768988840685628 [Eh]
	 SCS Total Energy          =    -686.2774067495736290 [Eh]
	-----------------------------------------------------------

  Dipole Moment: [D]
     X:     0.0469      Y:     1.6226      Z:     1.3242     Total:     2.0948

*** Psi4 exiting successfully. Buy a developer a beer!
