                               Psi4 1.3.2 release

  ==> Input File <==

--------------------------------------------------------------------------
#psi4
#
memory 32 gb

molecule  {
0 1
  O       -0.7098762    -1.1423386    -0.2645312
  O       -0.7529000     2.5454980     0.2011280
  O        1.9863450     1.9788980    -0.3426730
  O        2.9116540    -0.6744470     0.1695670
  O        0.9157630    -2.7262860    -0.0672430
  O       -3.4138550    -0.8877920     0.1899090
  C       -0.3205170     1.2520290    -0.2382820
  C        1.1174580     1.0033160     0.2012620
  C       -1.2273170     0.1250620     0.2312770
  C        1.5822600    -0.3816350    -0.2226430
  C        0.5842790    -1.4279170     0.2862350
  C       -2.6461720     0.2016390    -0.2964840
  H       -0.3421210     1.3021240    -1.3326030
  H        1.1389810     1.0438400     1.3116400
  H       -1.2614020     0.1027960     1.3365120
  H        1.5823060    -0.4261990    -1.3195550
  H        0.5265370    -1.4152780     1.3862880
  H       -2.6088310     0.2173240    -1.3960300
  H       -3.1281770     1.1200080     0.0454480
  H       -0.8264260     2.5110960     1.1737150
  H        1.5069660     2.8252470    -0.2509780
  H        3.0031740    -0.4532420     1.1134330
  H        1.2543330    -2.7122130    -0.9803670
  H       -2.8912910    -1.6827110    -0.0238270
units angstrom
no_reorient  #important for SAPT in psi4, default
symmetry c1  #important for SAPT in psi4, default
}

set PROPERTIES_ORIGIN ["COM"]
properties('MP2/aug-cc-pvtz', properties = ['dipole'])
--------------------------------------------------------------------------

    Molecular point group: c1
  Charge       = 0
  Multiplicity = 1
  Basis Set: AUG-CC-PVTZ
    Blend: AUG-CC-PVTZ
  Basis Set: (AUG-CC-PVTZ AUX)
    Blend: AUG-CC-PVTZ-JKFIT

    Orbital Energies [Eh]
    ---------------------

    Doubly Occupied:

       1A    -20.599467     2A    -20.589278     3A    -20.581890
       4A    -20.579408     5A    -20.577760     6A    -20.562755
       7A    -11.355828     8A    -11.311798     9A    -11.310112
      10A    -11.309879    11A    -11.305135    12A    -11.287926
      13A     -1.437295    14A     -1.405769    15A     -1.387281
      16A     -1.371315    17A     -1.366093    18A     -1.350326
      19A     -1.082254    20A     -1.049723    21A     -0.946351
      22A     -0.890582    23A     -0.853971    24A     -0.842464
      25A     -0.752821    26A     -0.728747    27A     -0.720946
      28A     -0.709480    29A     -0.692275    30A     -0.674517
      31A     -0.658628    32A     -0.654613    33A     -0.620759
      34A     -0.615179    35A     -0.598178    36A     -0.587099
      37A     -0.569994    38A     -0.561444    39A     -0.556455
      40A     -0.543477    41A     -0.526357    42A     -0.515706
      43A     -0.503124    44A     -0.487256    45A     -0.475093
      46A     -0.462798    47A     -0.446680    48A     -0.432338

  @DF-RHF Final Energy:  -683.60237035949444

   => Energetics <=

    Nuclear Repulsion Energy =            824.0570281527178622
    One-Electron Energy =               -2576.4215437772445512
    Two-Electron Energy =                1068.7621452650321316
    Total Energy =                       -683.6023703594944436
  Basis Set: (AUG-CC-PVTZ AUX)
    Blend: AUG-CC-PVTZ-RI
    Molecular point group: c1

    Geometry (in Angstrom), charge = 0, multiplicity = 1:

       Center              X                  Y                   Z               Mass
    ------------   -----------------  -----------------  -----------------  -----------------
         O           -0.721023710452    -1.126915613568    -0.257797277142    15.994914619570
         O           -0.764047510452     2.560920986432     0.207861922858    15.994914619570
         O            1.975197489548     1.994320986432    -0.335939077142    15.994914619570
         O            2.900506489548    -0.659024013568     0.176300922858    15.994914619570
         O            0.904615489548    -2.710863013568    -0.060509077142    15.994914619570
         O           -3.425002510452    -0.872369013568     0.196642922858    15.994914619570
         C           -0.331664510452     1.267451986432    -0.231548077142    12.000000000000
         C            1.106310489548     1.018738986432     0.207995922858    12.000000000000
         C           -1.238464510452     0.140484986432     0.238010922858    12.000000000000
         C            1.571112489548    -0.366212013568    -0.215909077142    12.000000000000
         C            0.573131489548    -1.412494013568     0.292968922858    12.000000000000
         C           -2.657319510452     0.217061986432    -0.289750077142    12.000000000000
         H           -0.353268510452     1.317546986432    -1.325869077142     1.007825032230
         H            1.127833489548     1.059262986432     1.318373922858     1.007825032230
         H           -1.272549510452     0.118218986432     1.343245922858     1.007825032230
         H            1.571158489548    -0.410776013568    -1.312821077142     1.007825032230
         H            0.515389489548    -1.399855013568     1.393021922858     1.007825032230
         H           -2.619978510452     0.232746986432    -1.389296077142     1.007825032230
         H           -3.139324510452     1.135430986432     0.052181922858     1.007825032230
         H           -0.837573510452     2.526518986432     1.180448922858     1.007825032230
         H            1.495818489548     2.840669986432    -0.244244077142     1.007825032230
         H            2.992026489548    -0.437819013568     1.120166922858     1.007825032230
         H            1.243185489548    -2.696790013568    -0.973633077142     1.007825032230
         H           -2.902438510452    -1.667288013568    -0.017093077142     1.007825032230

  Basis Set: AUG-CC-PVTZ
    Blend: AUG-CC-PVTZ
  Basis Set: (AUG-CC-PVTZ AUX)
    Blend: AUG-CC-PVTZ-JKFIT
	 Reference Energy          =    -683.6023703594944436 [Eh]
	 Singles Energy            =      -0.0000000000000000 [Eh]
	 Same-Spin Energy          =      -0.6656097710752711 [Eh]
	 Opposite-Spin Energy      =      -2.0455856509693069 [Eh]
	 Correlation Energy        =      -2.7111954220445780 [Eh]
	 Total Energy              =    -686.3135657815390687 [Eh]

	 ================> DF-SCS-MP2 Energies <==================
	-----------------------------------------------------------
	 SCS Same-Spin Scale       =       0.3333333333333333 [-]
	 SCS Opposite-Spin Scale   =       1.2000000000000000 [-]
	 SCS Same-Spin Energy      =      -0.2218699236917570 [Eh]
	 SCS Opposite-Spin Energy  =      -2.4547027811631681 [Eh]
	 SCS Correlation Energy    =      -2.6765727048549253 [Eh]
	 SCS Total Energy          =    -686.2789430643493915 [Eh]
	-----------------------------------------------------------

  Dipole Moment: [D]
     X:     0.2001      Y:     1.6857      Z:     1.3947     Total:     2.1970

*** Psi4 exiting successfully. Buy a developer a beer!
