                               Psi4 1.3.2 release

  ==> Input File <==

--------------------------------------------------------------------------
#psi4
#
memory 32 gb

molecule  {
0 1
  O       -0.6688794    -1.1287464    -0.3460837
  O       -0.7529000     2.5454980     0.2011280
  O        1.9863450     1.9788980    -0.3426730
  O        2.9116540    -0.6744470     0.1695670
  O        0.9157630    -2.7262860    -0.0672430
  O       -3.4138550    -0.8877920     0.1899090
  C       -0.3205170     1.2520290    -0.2382820
  C        1.1174580     1.0033160     0.2012620
  C       -1.2273170     0.1250620     0.2312770
  C        1.5822600    -0.3816350    -0.2226430
  C        0.5842790    -1.4279170     0.2862350
  C       -2.6461720     0.2016390    -0.2964840
  H       -0.3421210     1.3021240    -1.3326030
  H        1.1389810     1.0438400     1.3116400
  H       -1.2614020     0.1027960     1.3365120
  H        1.5823060    -0.4261990    -1.3195550
  H        0.5265370    -1.4152780     1.3862880
  H       -2.6088310     0.2173240    -1.3960300
  H       -3.1281770     1.1200080     0.0454480
  H       -0.8264260     2.5110960     1.1737150
  H        1.5069660     2.8252470    -0.2509780
  H        3.0031740    -0.4532420     1.1134330
  H        1.2543330    -2.7122130    -0.9803670
  H       -2.8912910    -1.6827110    -0.0238270
units angstrom
no_reorient  #important for SAPT in psi4, default
symmetry c1  #important for SAPT in psi4, default
}

set PROPERTIES_ORIGIN ["COM"]
properties('MP2/aug-cc-pvtz', properties = ['dipole'])
--------------------------------------------------------------------------

    Molecular point group: c1
  Charge       = 0
  Multiplicity = 1
  Basis Set: AUG-CC-PVTZ
    Blend: AUG-CC-PVTZ
  Basis Set: (AUG-CC-PVTZ AUX)
    Blend: AUG-CC-PVTZ-JKFIT

    Orbital Energies [Eh]
    ---------------------

    Doubly Occupied:

       1A    -20.599054     2A    -20.590143     3A    -20.579680
       4A    -20.577350     5A    -20.577224     6A    -20.564458
       7A    -11.354547     8A    -11.313318     9A    -11.311452
      10A    -11.309484    11A    -11.302415    12A    -11.289433
      13A     -1.434240    14A     -1.405369    15A     -1.385368
      16A     -1.370220    17A     -1.365253    18A     -1.347253
      19A     -1.081754    20A     -1.048584    21A     -0.946822
      22A     -0.888720    23A     -0.851739    24A     -0.843641
      25A     -0.752285    26A     -0.727257    27A     -0.719055
      28A     -0.707952    29A     -0.691307    30A     -0.674855
      31A     -0.656151    32A     -0.653228    33A     -0.619986
      34A     -0.613339    35A     -0.599196    36A     -0.586635
      37A     -0.568569    38A     -0.559722    39A     -0.555449
      40A     -0.542013    41A     -0.526032    42A     -0.517726
      43A     -0.503995    44A     -0.485494    45A     -0.475161
      46A     -0.463741    47A     -0.447684    48A     -0.431073

  @DF-RHF Final Energy:  -683.59768341940878

   => Energetics <=

    Nuclear Repulsion Energy =            823.8218826703212017
    One-Electron Energy =               -2576.0082863135776279
    Two-Electron Energy =                1068.5887202238475311
    Total Energy =                       -683.5976834194088951
  Basis Set: (AUG-CC-PVTZ AUX)
    Blend: AUG-CC-PVTZ-RI
    Molecular point group: c1

    Geometry (in Angstrom), charge = 0, multiplicity = 1:

       Center              X                  Y                   Z               Mass
    ------------   -----------------  -----------------  -----------------  -----------------
         O           -0.683668629752    -1.114530799927    -0.332105521171    15.994914619570
         O           -0.767689229752     2.559713600073     0.215106178829    15.994914619570
         O            1.971555770248     1.993113600073    -0.328694821171    15.994914619570
         O            2.896864770248    -0.660231399927     0.183545178829    15.994914619570
         O            0.900973770248    -2.712070399927    -0.053264821171    15.994914619570
         O           -3.428644229752    -0.873576399927     0.203887178829    15.994914619570
         C           -0.335306229752     1.266244600073    -0.224303821171    12.000000000000
         C            1.102668770248     1.017531600073     0.215240178829    12.000000000000
         C           -1.242106229752     0.139277600073     0.245255178829    12.000000000000
         C            1.567470770248    -0.367419399927    -0.208664821171    12.000000000000
         C            0.569489770248    -1.413701399927     0.300213178829    12.000000000000
         C           -2.660961229752     0.215854600073    -0.282505821171    12.000000000000
         H           -0.356910229752     1.316339600073    -1.318624821171     1.007825032230
         H            1.124191770248     1.058055600073     1.325618178829     1.007825032230
         H           -1.276191229752     0.117011600073     1.350490178829     1.007825032230
         H            1.567516770248    -0.411983399927    -1.305576821171     1.007825032230
         H            0.511747770248    -1.401062399927     1.400266178829     1.007825032230
         H           -2.623620229752     0.231539600073    -1.382051821171     1.007825032230
         H           -3.142966229752     1.134223600073     0.059426178829     1.007825032230
         H           -0.841215229752     2.525311600073     1.187693178829     1.007825032230
         H            1.492176770248     2.839462600073    -0.236999821171     1.007825032230
         H            2.988384770248    -0.439026399927     1.127411178829     1.007825032230
         H            1.239543770248    -2.697997399927    -0.966388821171     1.007825032230
         H           -2.906080229752    -1.668495399927    -0.009848821171     1.007825032230

  Basis Set: AUG-CC-PVTZ
    Blend: AUG-CC-PVTZ
  Basis Set: (AUG-CC-PVTZ AUX)
    Blend: AUG-CC-PVTZ-JKFIT
	 Reference Energy          =    -683.5976834194087814 [Eh]
	 Singles Energy            =      -0.0000000000000000 [Eh]
	 Same-Spin Energy          =      -0.6659281427098200 [Eh]
	 Opposite-Spin Energy      =      -2.0467967512411200 [Eh]
	 Correlation Energy        =      -2.7127248939509401 [Eh]
	 Total Energy              =    -686.3104083133597442 [Eh]

	 ================> DF-SCS-MP2 Energies <==================
	-----------------------------------------------------------
	 SCS Same-Spin Scale       =       0.3333333333333333 [-]
	 SCS Opposite-Spin Scale   =       1.2000000000000000 [-]
	 SCS Same-Spin Energy      =      -0.2219760475699400 [Eh]
	 SCS Opposite-Spin Energy  =      -2.4561561014893440 [Eh]
	 SCS Correlation Energy    =      -2.6781321490592842 [Eh]
	 SCS Total Energy          =    -686.2758155684680332 [Eh]
	-----------------------------------------------------------

  Dipole Moment: [D]
     X:     0.0457      Y:     1.6956      Z:     1.5372     Total:     2.2891

*** Psi4 exiting successfully. Buy a developer a beer!
