                               Psi4 1.3.2 release

  ==> Input File <==

--------------------------------------------------------------------------
#psi4
#
memory 32 gb

molecule  {
0 1
  O       -0.7087550    -1.1193400    -0.2546710
  O       -0.7529000     2.5454980     0.2011280
  O        1.9863450     1.9788980    -0.3426730
  O        2.9116540    -0.6744470     0.1695670
  O        0.9157630    -2.7262860    -0.0672430
  O       -3.4334849    -0.8792258     0.1774832
  C       -0.3205170     1.2520290    -0.2382820
  C        1.1174580     1.0033160     0.2012620
  C       -1.2273170     0.1250620     0.2312770
  C        1.5822600    -0.3816350    -0.2226430
  C        0.5842790    -1.4279170     0.2862350
  C       -2.6461720     0.2016390    -0.2964840
  H       -0.3421210     1.3021240    -1.3326030
  H        1.1389810     1.0438400     1.3116400
  H       -1.2614020     0.1027960     1.3365120
  H        1.5823060    -0.4261990    -1.3195550
  H        0.5265370    -1.4152780     1.3862880
  H       -2.6088310     0.2173240    -1.3960300
  H       -3.1281770     1.1200080     0.0454480
  H       -0.8264260     2.5110960     1.1737150
  H        1.5069660     2.8252470    -0.2509780
  H        3.0031740    -0.4532420     1.1134330
  H        1.2543330    -2.7122130    -0.9803670
  H       -2.8912910    -1.6827110    -0.0238270
units angstrom
no_reorient  #important for SAPT in psi4, default
symmetry c1  #important for SAPT in psi4, default
}

set PROPERTIES_ORIGIN ["COM"]
properties('MP2/aug-cc-pvtz', properties = ['dipole'])
--------------------------------------------------------------------------

    Molecular point group: c1
  Charge       = 0
  Multiplicity = 1
  Basis Set: AUG-CC-PVTZ
    Blend: AUG-CC-PVTZ
  Basis Set: (AUG-CC-PVTZ AUX)
    Blend: AUG-CC-PVTZ-JKFIT

    Orbital Energies [Eh]
    ---------------------

    Doubly Occupied:

       1A    -20.598480     2A    -20.589039     3A    -20.584048
       4A    -20.579478     5A    -20.577713     6A    -20.564354
       7A    -11.357227     8A    -11.310948     9A    -11.309997
      10A    -11.308635    11A    -11.305362    12A    -11.286832
      13A     -1.440482    14A     -1.405279    15A     -1.387831
      16A     -1.371910    17A     -1.365892    18A     -1.351911
      19A     -1.081173    20A     -1.051148    21A     -0.945449
      22A     -0.891507    23A     -0.854057    24A     -0.842456
      25A     -0.754137    26A     -0.729754    27A     -0.721115
      28A     -0.709834    29A     -0.692526    30A     -0.675143
      31A     -0.659332    32A     -0.654731    33A     -0.620273
      34A     -0.615823    35A     -0.596898    36A     -0.587388
      37A     -0.570311    38A     -0.562384    39A     -0.556419
      40A     -0.543634    41A     -0.527601    42A     -0.517162
      43A     -0.503214    44A     -0.486982    45A     -0.474595
      46A     -0.461554    47A     -0.446822    48A     -0.431543

  @DF-RHF Final Energy:  -683.60260060370433

   => Energetics <=

    Nuclear Repulsion Energy =            824.2909709199705048
    One-Electron Energy =               -2576.8663782075100244
    Two-Electron Energy =                1068.9728066838351879
    Total Energy =                       -683.6026006037043317
  Basis Set: (AUG-CC-PVTZ AUX)
    Blend: AUG-CC-PVTZ-RI
    Molecular point group: c1

    Geometry (in Angstrom), charge = 0, multiplicity = 1:

       Center              X                  Y                   Z               Mass
    ------------   -----------------  -----------------  -----------------  -----------------
         O           -0.718258394569    -1.106720894392    -0.247709176549    15.994914619570
         O           -0.762403394569     2.558117105608     0.208089823451    15.994914619570
         O            1.976841605431     1.991517105608    -0.335711176549    15.994914619570
         O            2.902150605431    -0.661827894392     0.176528823451    15.994914619570
         O            0.906259605431    -2.713666894392    -0.060281176549    15.994914619570
         O           -3.442988294569    -0.866606694392     0.184445023451    15.994914619570
         C           -0.330020394569     1.264648105608    -0.231320176549    12.000000000000
         C            1.107954605431     1.015935105608     0.208223823451    12.000000000000
         C           -1.236820394569     0.137681105608     0.238238823451    12.000000000000
         C            1.572756605431    -0.369015894392    -0.215681176549    12.000000000000
         C            0.574775605431    -1.415297894392     0.293196823451    12.000000000000
         C           -2.655675394569     0.214258105608    -0.289522176549    12.000000000000
         H           -0.351624394569     1.314743105608    -1.325641176549     1.007825032230
         H            1.129477605431     1.056459105608     1.318601823451     1.007825032230
         H           -1.270905394569     0.115415105608     1.343473823451     1.007825032230
         H            1.572802605431    -0.413579894392    -1.312593176549     1.007825032230
         H            0.517033605431    -1.402658894392     1.393249823451     1.007825032230
         H           -2.618334394569     0.229943105608    -1.389068176549     1.007825032230
         H           -3.137680394569     1.132627105608     0.052409823451     1.007825032230
         H           -0.835929394569     2.523715105608     1.180676823451     1.007825032230
         H            1.497462605431     2.837866105608    -0.244016176549     1.007825032230
         H            2.993670605431    -0.440622894392     1.120394823451     1.007825032230
         H            1.244829605431    -2.699593894392    -0.973405176549     1.007825032230
         H           -2.900794394569    -1.670091894392    -0.016865176549     1.007825032230

  Basis Set: AUG-CC-PVTZ
    Blend: AUG-CC-PVTZ
  Basis Set: (AUG-CC-PVTZ AUX)
    Blend: AUG-CC-PVTZ-JKFIT
	 Reference Energy          =    -683.6026006037043317 [Eh]
	 Singles Energy            =      -0.0000000000000000 [Eh]
	 Same-Spin Energy          =      -0.6656600559181591 [Eh]
	 Opposite-Spin Energy      =      -2.0453969270235373 [Eh]
	 Correlation Energy        =      -2.7110569829416962 [Eh]
	 Total Energy              =    -686.3136575866460589 [Eh]

	 ================> DF-SCS-MP2 Energies <==================
	-----------------------------------------------------------
	 SCS Same-Spin Scale       =       0.3333333333333333 [-]
	 SCS Opposite-Spin Scale   =       1.2000000000000000 [-]
	 SCS Same-Spin Energy      =      -0.2218866853060530 [Eh]
	 SCS Opposite-Spin Energy  =      -2.4544763124282447 [Eh]
	 SCS Correlation Energy    =      -2.6763629977342980 [Eh]
	 SCS Total Energy          =    -686.2789636014385906 [Eh]
	-----------------------------------------------------------

  Dipole Moment: [D]
     X:     0.2685      Y:     1.5888      Z:     1.4028     Total:     2.1364

*** Psi4 exiting successfully. Buy a developer a beer!
