                               Psi4 1.3.2 release

  ==> Input File <==

--------------------------------------------------------------------------
#psi4
#
memory 32 gb

molecule  {
0 1
  O       -0.7087550    -1.1193400    -0.2546710
  O       -0.7529000     2.5454980     0.2011280
  O        1.9863450     1.9788980    -0.3426730
  O        2.9116540    -0.6744470     0.1695670
  O        0.9157630    -2.7262860    -0.0672430
  O       -3.4138550    -0.8877920     0.1899090
  C       -0.3205170     1.2520290    -0.2382820
  C        1.0754564     0.9809838     0.2248454
  C       -1.2273170     0.1250620     0.2312770
  C        1.5822600    -0.3816350    -0.2226430
  C        0.5842790    -1.4279170     0.2862350
  C       -2.6461720     0.2016390    -0.2964840
  H       -0.3421210     1.3021240    -1.3326030
  H        1.1389810     1.0438400     1.3116400
  H       -1.2614020     0.1027960     1.3365120
  H        1.5823060    -0.4261990    -1.3195550
  H        0.5265370    -1.4152780     1.3862880
  H       -2.6088310     0.2173240    -1.3960300
  H       -3.1281770     1.1200080     0.0454480
  H       -0.8264260     2.5110960     1.1737150
  H        1.5069660     2.8252470    -0.2509780
  H        3.0031740    -0.4532420     1.1134330
  H        1.2543330    -2.7122130    -0.9803670
  H       -2.8912910    -1.6827110    -0.0238270
units angstrom
no_reorient  #important for SAPT in psi4, default
symmetry c1  #important for SAPT in psi4, default
}

set PROPERTIES_ORIGIN ["COM"]
properties('MP2/aug-cc-pvtz', properties = ['dipole'])
--------------------------------------------------------------------------

    Molecular point group: c1
  Charge       = 0
  Multiplicity = 1
  Basis Set: AUG-CC-PVTZ
    Blend: AUG-CC-PVTZ
  Basis Set: (AUG-CC-PVTZ AUX)
    Blend: AUG-CC-PVTZ-JKFIT

    Orbital Energies [Eh]
    ---------------------

    Doubly Occupied:

       1A    -20.599046     2A    -20.589578     3A    -20.583692
       4A    -20.580915     5A    -20.572369     6A    -20.563109
       7A    -11.356836     8A    -11.311230     9A    -11.309108
      10A    -11.308568    11A    -11.306708    12A    -11.287700
      13A     -1.440882    14A     -1.402681    15A     -1.386240
      16A     -1.372207    17A     -1.355158    18A     -1.352081
      19A     -1.087424    20A     -1.052364    21A     -0.949047
      22A     -0.890159    23A     -0.855928    24A     -0.844555
      25A     -0.752623    26A     -0.729323    27A     -0.719485
      28A     -0.711912    29A     -0.695205    30A     -0.674517
      31A     -0.659443    32A     -0.646020    33A     -0.620396
      34A     -0.616173    35A     -0.597903    36A     -0.587726
      37A     -0.565798    38A     -0.561161    39A     -0.555625
      40A     -0.540595    41A     -0.527883    42A     -0.517271
      43A     -0.506320    44A     -0.487978    45A     -0.477979
      46A     -0.465428    47A     -0.448808    48A     -0.430591

  @DF-RHF Final Energy:  -683.60006716243163

   => Energetics <=

    Nuclear Repulsion Energy =            824.9061504880523898
    One-Electron Energy =               -2578.1049384205493880
    Two-Electron Energy =                1069.5987207700654835
    Total Energy =                       -683.6000671624315146
  Basis Set: (AUG-CC-PVTZ AUX)
    Blend: AUG-CC-PVTZ-RI
    Molecular point group: c1

    Geometry (in Angstrom), charge = 0, multiplicity = 1:

       Center              X                  Y                   Z               Mass
    ------------   -----------------  -----------------  -----------------  -----------------
         O           -0.717202984985    -1.104471675148    -0.250384625540    15.994914619570
         O           -0.761347984985     2.560366324852     0.205414374460    15.994914619570
         O            1.977897015015     1.993766324852    -0.338386625540    15.994914619570
         O            2.903206015015    -0.659578675148     0.173853374460    15.994914619570
         O            0.907315015015    -2.711417675148    -0.062956625540    15.994914619570
         O           -3.422302984985    -0.872923675148     0.194195374460    15.994914619570
         C           -0.328964984985     1.266897324852    -0.233995625540    12.000000000000
         C            1.067008415015     0.995852124852     0.229131774460    12.000000000000
         C           -1.235764984985     0.139930324852     0.235563374460    12.000000000000
         C            1.573812015015    -0.366766675148    -0.218356625540    12.000000000000
         C            0.575831015015    -1.413048675148     0.290521374460    12.000000000000
         C           -2.654619984985     0.216507324852    -0.292197625540    12.000000000000
         H           -0.350568984985     1.316992324852    -1.328316625540     1.007825032230
         H            1.130533015015     1.058708324852     1.315926374460     1.007825032230
         H           -1.269849984985     0.117664324852     1.340798374460     1.007825032230
         H            1.573858015015    -0.411330675148    -1.315268625540     1.007825032230
         H            0.518089015015    -1.400409675148     1.390574374460     1.007825032230
         H           -2.617278984985     0.232192324852    -1.391743625540     1.007825032230
         H           -3.136624984985     1.134876324852     0.049734374460     1.007825032230
         H           -0.834873984985     2.525964324852     1.178001374460     1.007825032230
         H            1.498518015015     2.840115324852    -0.246691625540     1.007825032230
         H            2.994726015015    -0.438373675148     1.117719374460     1.007825032230
         H            1.245885015015    -2.697344675148    -0.976080625540     1.007825032230
         H           -2.899738984985    -1.667842675148    -0.019540625540     1.007825032230

  Basis Set: AUG-CC-PVTZ
    Blend: AUG-CC-PVTZ
  Basis Set: (AUG-CC-PVTZ AUX)
    Blend: AUG-CC-PVTZ-JKFIT
	 Reference Energy          =    -683.6000671624316283 [Eh]
	 Singles Energy            =      -0.0000000000000000 [Eh]
	 Same-Spin Energy          =      -0.6658285731375987 [Eh]
	 Opposite-Spin Energy      =      -2.0460758997618007 [Eh]
	 Correlation Energy        =      -2.7119044728993993 [Eh]
	 Total Energy              =    -686.3119716353310196 [Eh]

	 ================> DF-SCS-MP2 Energies <==================
	-----------------------------------------------------------
	 SCS Same-Spin Scale       =       0.3333333333333333 [-]
	 SCS Opposite-Spin Scale   =       1.2000000000000000 [-]
	 SCS Same-Spin Energy      =      -0.2219428577125329 [Eh]
	 SCS Opposite-Spin Energy  =      -2.4552910797141609 [Eh]
	 SCS Correlation Energy    =      -2.6772339374266938 [Eh]
	 SCS Total Energy          =    -686.2773010998582777 [Eh]
	-----------------------------------------------------------

  Dipole Moment: [D]
     X:     0.1304      Y:     1.4832      Z:     1.4420     Total:     2.0727

*** Psi4 exiting successfully. Buy a developer a beer!
