                               Psi4 1.3.2 release

  ==> Input File <==

--------------------------------------------------------------------------
#psi4
#
memory 32 gb

molecule  {
0 1
  O       -0.7087550    -1.1193400    -0.2546710
  O       -0.7529000     2.5454980     0.2011280
  O        1.9863450     1.9788980    -0.3426730
  O        2.9116540    -0.6744470     0.1695670
  O        0.9157630    -2.7262860    -0.0672430
  O       -3.4138550    -0.8877920     0.1899090
  C       -0.3808693     1.4325722    -0.1769489
  C        1.1174580     1.0033160     0.2012620
  C       -1.2273170     0.1250620     0.2312770
  C        1.5822600    -0.3816350    -0.2226430
  C        0.5842790    -1.4279170     0.2862350
  C       -2.6461720     0.2016390    -0.2964840
  H       -0.3421210     1.3021240    -1.3326030
  H        1.1389810     1.0438400     1.3116400
  H       -1.2614020     0.1027960     1.3365120
  H        1.5823060    -0.4261990    -1.3195550
  H        0.5265370    -1.4152780     1.3862880
  H       -2.6088310     0.2173240    -1.3960300
  H       -3.1281770     1.1200080     0.0454480
  H       -0.8264260     2.5110960     1.1737150
  H        1.5069660     2.8252470    -0.2509780
  H        3.0031740    -0.4532420     1.1134330
  H        1.2543330    -2.7122130    -0.9803670
  H       -2.8912910    -1.6827110    -0.0238270
units angstrom
no_reorient  #important for SAPT in psi4, default
symmetry c1  #important for SAPT in psi4, default
}

set PROPERTIES_ORIGIN ["COM"]
properties('MP2/aug-cc-pvtz', properties = ['dipole'])
--------------------------------------------------------------------------

    Molecular point group: c1
  Charge       = 0
  Multiplicity = 1
  Basis Set: AUG-CC-PVTZ
    Blend: AUG-CC-PVTZ
  Basis Set: (AUG-CC-PVTZ AUX)
    Blend: AUG-CC-PVTZ-JKFIT

    Orbital Energies [Eh]
    ---------------------

    Doubly Occupied:

       1A    -20.622710     2A    -20.588425     3A    -20.581010
       4A    -20.577722     5A    -20.573160     6A    -20.557916
       7A    -11.353585     8A    -11.317516     9A    -11.303806
      10A    -11.302991    11A    -11.302667    12A    -11.282794
      13A     -1.500596    14A     -1.434694    15A     -1.387899
      16A     -1.372323    17A     -1.364200    18A     -1.348844
      19A     -1.057020    20A     -1.042038    21A     -0.939497
      22A     -0.896319    23A     -0.853011    24A     -0.845794
      25A     -0.764201    26A     -0.734347    27A     -0.729318
      28A     -0.726950    29A     -0.700395    30A     -0.673310
      31A     -0.663173    32A     -0.654391    33A     -0.650718
      34A     -0.612212    35A     -0.595748    36A     -0.591793
      37A     -0.576397    38A     -0.564913    39A     -0.554153
      40A     -0.539130    41A     -0.523739    42A     -0.515560
      43A     -0.488576    44A     -0.481500    45A     -0.457953
      46A     -0.451390    47A     -0.438963    48A     -0.400442

  @DF-RHF Final Energy:  -683.55961995308110

   => Energetics <=

    Nuclear Repulsion Energy =            823.7405121049089303
    One-Electron Energy =               -2575.6086399912273919
    Two-Electron Energy =                1068.3085079332372516
    Total Energy =                       -683.5596199530812100
  Basis Set: (AUG-CC-PVTZ AUX)
    Blend: AUG-CC-PVTZ-RI
    Molecular point group: c1

    Geometry (in Angstrom), charge = 0, multiplicity = 1:

       Center              X                  Y                   Z               Mass
    ------------   -----------------  -----------------  -----------------  -----------------
         O           -0.715980035655    -1.117991940571    -0.252900386266    15.994914619570
         O           -0.760125035655     2.546846059429     0.202898613734    15.994914619570
         O            1.979119964345     1.980246059429    -0.340902386266    15.994914619570
         O            2.904428964345    -0.673098940571     0.171337613734    15.994914619570
         O            0.908537964345    -2.724937940571    -0.065472386266    15.994914619570
         O           -3.421080035655    -0.886443940571     0.191679613734    15.994914619570
         C           -0.388094335655     1.433920259429    -0.175178286266    12.000000000000
         C            1.110232964345     1.004664059429     0.203032613734    12.000000000000
         C           -1.234542035655     0.126410059429     0.233047613734    12.000000000000
         C            1.575034964345    -0.380286940571    -0.220872386266    12.000000000000
         C            0.577053964345    -1.426568940571     0.288005613734    12.000000000000
         C           -2.653397035655     0.202987059429    -0.294713386266    12.000000000000
         H           -0.349346035655     1.303472059429    -1.330832386266     1.007825032230
         H            1.131755964345     1.045188059429     1.313410613734     1.007825032230
         H           -1.268627035655     0.104144059429     1.338282613734     1.007825032230
         H            1.575080964345    -0.424850940571    -1.317784386266     1.007825032230
         H            0.519311964345    -1.413929940571     1.388058613734     1.007825032230
         H           -2.616056035655     0.218672059429    -1.394259386266     1.007825032230
         H           -3.135402035655     1.121356059429     0.047218613734     1.007825032230
         H           -0.833651035655     2.512444059429     1.175485613734     1.007825032230
         H            1.499740964345     2.826595059429    -0.249207386266     1.007825032230
         H            2.995948964345    -0.451893940571     1.115203613734     1.007825032230
         H            1.247107964345    -2.710864940571    -0.978596386266     1.007825032230
         H           -2.898516035655    -1.681362940571    -0.022056386266     1.007825032230

  Basis Set: AUG-CC-PVTZ
    Blend: AUG-CC-PVTZ
  Basis Set: (AUG-CC-PVTZ AUX)
    Blend: AUG-CC-PVTZ-JKFIT
	 Reference Energy          =    -683.5596199530810964 [Eh]
	 Singles Energy            =      -0.0000000000000000 [Eh]
	 Same-Spin Energy          =      -0.6664334096985802 [Eh]
	 Opposite-Spin Energy      =      -2.0447026195162814 [Eh]
	 Correlation Energy        =      -2.7111360292148614 [Eh]
	 Total Energy              =    -686.2707559822960093 [Eh]

	 ================> DF-SCS-MP2 Energies <==================
	-----------------------------------------------------------
	 SCS Same-Spin Scale       =       0.3333333333333333 [-]
	 SCS Opposite-Spin Scale   =       1.2000000000000000 [-]
	 SCS Same-Spin Energy      =      -0.2221444698995267 [Eh]
	 SCS Opposite-Spin Energy  =      -2.4536431434195376 [Eh]
	 SCS Correlation Energy    =      -2.6757876133190646 [Eh]
	 SCS Total Energy          =    -686.2354075664001130 [Eh]
	-----------------------------------------------------------

  Dipole Moment: [D]
     X:     0.0265      Y:     2.3193      Z:     1.5752     Total:     2.8038

*** Psi4 exiting successfully. Buy a developer a beer!
