                               Psi4 1.3.2 release

  ==> Input File <==

--------------------------------------------------------------------------
#psi4
#
memory 32 gb

molecule  {
0 1
  O       -0.7087550    -1.1193400    -0.2546710
  O       -0.7529000     2.5454980     0.2011280
  O        1.9863450     1.9788980    -0.3426730
  O        2.9116540    -0.6744470     0.1695670
  O        0.9157630    -2.7262860    -0.0672430
  O       -3.4138550    -0.8877920     0.1899090
  C       -0.2050887     1.1835844    -0.1526580
  C        1.1174580     1.0033160     0.2012620
  C       -1.2273170     0.1250620     0.2312770
  C        1.5822600    -0.3816350    -0.2226430
  C        0.5842790    -1.4279170     0.2862350
  C       -2.6461720     0.2016390    -0.2964840
  H       -0.3421210     1.3021240    -1.3326030
  H        1.1389810     1.0438400     1.3116400
  H       -1.2614020     0.1027960     1.3365120
  H        1.5823060    -0.4261990    -1.3195550
  H        0.5265370    -1.4152780     1.3862880
  H       -2.6088310     0.2173240    -1.3960300
  H       -3.1281770     1.1200080     0.0454480
  H       -0.8264260     2.5110960     1.1737150
  H        1.5069660     2.8252470    -0.2509780
  H        3.0031740    -0.4532420     1.1134330
  H        1.2543330    -2.7122130    -0.9803670
  H       -2.8912910    -1.6827110    -0.0238270
units angstrom
no_reorient  #important for SAPT in psi4, default
symmetry c1  #important for SAPT in psi4, default
}

set PROPERTIES_ORIGIN ["COM"]
properties('MP2/aug-cc-pvtz', properties = ['dipole'])
--------------------------------------------------------------------------

    Molecular point group: c1
  Charge       = 0
  Multiplicity = 1
  Basis Set: AUG-CC-PVTZ
    Blend: AUG-CC-PVTZ
  Basis Set: (AUG-CC-PVTZ AUX)
    Blend: AUG-CC-PVTZ-JKFIT

    Orbital Energies [Eh]
    ---------------------

    Doubly Occupied:

       1A    -20.593247     2A    -20.588442     3A    -20.585732
       4A    -20.582120     5A    -20.581378     6A    -20.566097
       7A    -11.359365     8A    -11.315300     9A    -11.313287
      10A    -11.309933    11A    -11.308134    12A    -11.290953
      13A     -1.442478    14A     -1.401680    15A     -1.385539
      16A     -1.371873    17A     -1.360560    18A     -1.355229
      19A     -1.108647    20A     -1.051422    21A     -0.957642
      22A     -0.889454    23A     -0.864660    24A     -0.833437
      25A     -0.755950    26A     -0.734044    27A     -0.729045
      28A     -0.698473    29A     -0.696282    30A     -0.682082
      31A     -0.664000    32A     -0.657708    33A     -0.617159
      34A     -0.608176    35A     -0.589697    36A     -0.588576
      37A     -0.579865    38A     -0.562648    39A     -0.550696
      40A     -0.528820    41A     -0.527475    42A     -0.515351
      43A     -0.499714    44A     -0.490062    45A     -0.477337
      46A     -0.469071    47A     -0.455509    48A     -0.434920

  @DF-RHF Final Energy:  -683.57070242068153

   => Energetics <=

    Nuclear Repulsion Energy =            826.3491636508473448
    One-Electron Energy =               -2580.7811901430109174
    Two-Electron Energy =                1070.8613240714819312
    Total Energy =                       -683.5707024206815277
  Basis Set: (AUG-CC-PVTZ AUX)
    Blend: AUG-CC-PVTZ-RI
    Molecular point group: c1

    Geometry (in Angstrom), charge = 0, multiplicity = 1:

       Center              X                  Y                   Z               Mass
    ------------   -----------------  -----------------  -----------------  -----------------
         O           -0.727694616960    -1.101398597352    -0.254519209521    15.994914619570
         O           -0.771839616960     2.563439402648     0.201279790479    15.994914619570
         O            1.967405383040     1.996839402648    -0.342521209521    15.994914619570
         O            2.892714383040    -0.656505597352     0.169718790479    15.994914619570
         O            0.896823383040    -2.708344597352    -0.067091209521    15.994914619570
         O           -3.432794616960    -0.869850597352     0.190060790479    15.994914619570
         C           -0.224028316960     1.201525802648    -0.152506209521    12.000000000000
         C            1.098518383040     1.021257402648     0.201413790479    12.000000000000
         C           -1.246256616960     0.143003402648     0.231428790479    12.000000000000
         C            1.563320383040    -0.363693597352    -0.222491209521    12.000000000000
         C            0.565339383040    -1.409975597352     0.286386790479    12.000000000000
         C           -2.665111616960     0.219580402648    -0.296332209521    12.000000000000
         H           -0.361060616960     1.320065402648    -1.332451209521     1.007825032230
         H            1.120041383040     1.061781402648     1.311791790479     1.007825032230
         H           -1.280341616960     0.120737402648     1.336663790479     1.007825032230
         H            1.563366383040    -0.408257597352    -1.319403209521     1.007825032230
         H            0.507597383040    -1.397336597352     1.386439790479     1.007825032230
         H           -2.627770616960     0.235265402648    -1.395878209521     1.007825032230
         H           -3.147116616960     1.137949402648     0.045599790479     1.007825032230
         H           -0.845365616960     2.529037402648     1.173866790479     1.007825032230
         H            1.488026383040     2.843188402648    -0.250826209521     1.007825032230
         H            2.984234383040    -0.435300597352     1.113584790479     1.007825032230
         H            1.235393383040    -2.694271597352    -0.980215209521     1.007825032230
         H           -2.910230616960    -1.664769597352    -0.023675209521     1.007825032230

  Basis Set: AUG-CC-PVTZ
    Blend: AUG-CC-PVTZ
  Basis Set: (AUG-CC-PVTZ AUX)
    Blend: AUG-CC-PVTZ-JKFIT
	 Reference Energy          =    -683.5707024206815277 [Eh]
	 Singles Energy            =      -0.0000000000000000 [Eh]
	 Same-Spin Energy          =      -0.6680622382379832 [Eh]
	 Opposite-Spin Energy      =      -2.0496874261502986 [Eh]
	 Correlation Energy        =      -2.7177496643882817 [Eh]
	 Total Energy              =    -686.2884520850698209 [Eh]

	 ================> DF-SCS-MP2 Energies <==================
	-----------------------------------------------------------
	 SCS Same-Spin Scale       =       0.3333333333333333 [-]
	 SCS Opposite-Spin Scale   =       1.2000000000000000 [-]
	 SCS Same-Spin Energy      =      -0.2226874127459944 [Eh]
	 SCS Opposite-Spin Energy  =      -2.4596249113803581 [Eh]
	 SCS Correlation Energy    =      -2.6823123241263525 [Eh]
	 SCS Total Energy          =    -686.2530147448078424 [Eh]
	-----------------------------------------------------------

  Dipole Moment: [D]
     X:     0.3554      Y:     1.3165      Z:     1.4067     Total:     1.9591

*** Psi4 exiting successfully. Buy a developer a beer!
