                               Psi4 1.3.2 release

  ==> Input File <==

--------------------------------------------------------------------------
#psi4
#
memory 32 gb

molecule  {
0 1
  O       -0.7087550    -1.1193400    -0.2546710
  O       -0.7529000     2.5454980     0.2011280
  O        1.9863450     1.9788980    -0.3426730
  O        2.9116540    -0.6744470     0.1695670
  O        0.9157630    -2.7262860    -0.0672430
  O       -3.4138550    -0.8877920     0.1899090
  C       -0.3205170     1.2520290    -0.2382820
  C        1.1174580     1.0033160     0.2012620
  C       -1.2273170     0.1250620     0.2312770
  C        1.5822600    -0.3816350    -0.2226430
  C        0.5842790    -1.4279170     0.2862350
  C       -2.6936669     0.2005572    -0.1451055
  H       -0.3421210     1.3021240    -1.3326030
  H        1.1389810     1.0438400     1.3116400
  H       -1.2614020     0.1027960     1.3365120
  H        1.5823060    -0.4261990    -1.3195550
  H        0.5265370    -1.4152780     1.3862880
  H       -2.6088310     0.2173240    -1.3960300
  H       -3.1281770     1.1200080     0.0454480
  H       -0.8264260     2.5110960     1.1737150
  H        1.5069660     2.8252470    -0.2509780
  H        3.0031740    -0.4532420     1.1134330
  H        1.2543330    -2.7122130    -0.9803670
  H       -2.8912910    -1.6827110    -0.0238270
units angstrom
no_reorient  #important for SAPT in psi4, default
symmetry c1  #important for SAPT in psi4, default
}

set PROPERTIES_ORIGIN ["COM"]
properties('MP2/aug-cc-pvtz', properties = ['dipole'])
--------------------------------------------------------------------------

    Molecular point group: c1
  Charge       = 0
  Multiplicity = 1
  Basis Set: AUG-CC-PVTZ
    Blend: AUG-CC-PVTZ
  Basis Set: (AUG-CC-PVTZ AUX)
    Blend: AUG-CC-PVTZ-JKFIT

    Orbital Energies [Eh]
    ---------------------

    Doubly Occupied:

       1A    -20.598152     2A    -20.589978     3A    -20.584216
       4A    -20.579204     5A    -20.577388     6A    -20.570623
       7A    -11.357521     8A    -11.310983     9A    -11.309739
      10A    -11.308740    11A    -11.305008    12A    -11.295523
      13A     -1.441107    14A     -1.404897    15A     -1.398594
      16A     -1.384772    17A     -1.367018    18A     -1.360433
      19A     -1.080443    20A     -1.050070    21A     -0.948047
      22A     -0.890795    23A     -0.857490    24A     -0.841948
      25A     -0.757449    26A     -0.727347    27A     -0.721766
      28A     -0.709205    29A     -0.704137    30A     -0.680278
      31A     -0.663215    32A     -0.652948    33A     -0.633486
      34A     -0.617703    35A     -0.610666    36A     -0.585997
      37A     -0.572019    38A     -0.563332    39A     -0.556147
      40A     -0.542793    41A     -0.531269    42A     -0.516618
      43A     -0.504161    44A     -0.485673    45A     -0.474150
      46A     -0.454932    47A     -0.433650    48A     -0.417471

  @DF-RHF Final Energy:  -683.58160088803731

   => Energetics <=

    Nuclear Repulsion Energy =            824.8816000928642325
    One-Electron Energy =               -2577.8682026294641219
    Two-Electron Energy =                1069.4050016485625747
    Total Energy =                       -683.5816008880374284
  Basis Set: (AUG-CC-PVTZ AUX)
    Blend: AUG-CC-PVTZ-RI
    Molecular point group: c1

    Geometry (in Angstrom), charge = 0, multiplicity = 1:

       Center              X                  Y                   Z               Mass
    ------------   -----------------  -----------------  -----------------  -----------------
         O           -0.716836893907    -1.105887869760    -0.258901299675    15.994914619570
         O           -0.760981893907     2.558950130240     0.196897700325    15.994914619570
         O            1.978263106093     1.992350130240    -0.346903299675    15.994914619570
         O            2.903572106093    -0.660994869760     0.165336700325    15.994914619570
         O            0.907681106093    -2.712833869760    -0.071473299675    15.994914619570
         O           -3.421936893907    -0.874339869760     0.185678700325    15.994914619570
         C           -0.328598893907     1.265481130240    -0.242512299675    12.000000000000
         C            1.109376106093     1.016768130240     0.197031700325    12.000000000000
         C           -1.235398893907     0.138514130240     0.227046700325    12.000000000000
         C            1.574178106093    -0.368182869760    -0.226873299675    12.000000000000
         C            0.576197106093    -1.414464869760     0.282004700325    12.000000000000
         C           -2.701748793907     0.214009330240    -0.149335799675    12.000000000000
         H           -0.350202893907     1.315576130240    -1.336833299675     1.007825032230
         H            1.130899106093     1.057292130240     1.307409700325     1.007825032230
         H           -1.269483893907     0.116248130240     1.332281700325     1.007825032230
         H            1.574224106093    -0.412746869760    -1.323785299675     1.007825032230
         H            0.518455106093    -1.401825869760     1.382057700325     1.007825032230
         H           -2.616912893907     0.230776130240    -1.400260299675     1.007825032230
         H           -3.136258893907     1.133460130240     0.041217700325     1.007825032230
         H           -0.834507893907     2.524548130240     1.169484700325     1.007825032230
         H            1.498884106093     2.838699130240    -0.255208299675     1.007825032230
         H            2.995092106093    -0.439789869760     1.109202700325     1.007825032230
         H            1.246251106093    -2.698760869760    -0.984597299675     1.007825032230
         H           -2.899372893907    -1.669258869760    -0.028057299675     1.007825032230

  Basis Set: AUG-CC-PVTZ
    Blend: AUG-CC-PVTZ
  Basis Set: (AUG-CC-PVTZ AUX)
    Blend: AUG-CC-PVTZ-JKFIT
	 Reference Energy          =    -683.5816008880373147 [Eh]
	 Singles Energy            =      -0.0000000000000000 [Eh]
	 Same-Spin Energy          =      -0.6658024822315010 [Eh]
	 Opposite-Spin Energy      =      -2.0446260827878566 [Eh]
	 Correlation Energy        =      -2.7104285650193578 [Eh]
	 Total Energy              =    -686.2920294530566707 [Eh]

	 ================> DF-SCS-MP2 Energies <==================
	-----------------------------------------------------------
	 SCS Same-Spin Scale       =       0.3333333333333333 [-]
	 SCS Opposite-Spin Scale   =       1.2000000000000000 [-]
	 SCS Same-Spin Energy      =      -0.2219341607438337 [Eh]
	 SCS Opposite-Spin Energy  =      -2.4535512993454280 [Eh]
	 SCS Correlation Energy    =      -2.6754854600892619 [Eh]
	 SCS Total Energy          =    -686.2570863481265633 [Eh]
	-----------------------------------------------------------

  Dipole Moment: [D]
     X:     0.0637      Y:     1.4225      Z:     1.7035     Total:     2.2202

*** Psi4 exiting successfully. Buy a developer a beer!
