                               Psi4 1.3.2 release

  ==> Input File <==

--------------------------------------------------------------------------
#psi4
#
memory 32 gb

molecule  {
0 1
  O       -0.7087550    -1.1193400    -0.2546710
  O       -0.7529000     2.5454980     0.2011280
  O        1.9863450     1.9788980    -0.3426730
  O        2.9116540    -0.6744470     0.1695670
  O        0.9160698    -2.7567176     0.0745886
  O       -3.4138550    -0.8877920     0.1899090
  C       -0.3205170     1.2520290    -0.2382820
  C        1.1174580     1.0033160     0.2012620
  C       -1.2273170     0.1250620     0.2312770
  C        1.5822600    -0.3816350    -0.2226430
  C        0.5842790    -1.4279170     0.2862350
  C       -2.6461720     0.2016390    -0.2964840
  H       -0.3421210     1.3021240    -1.3326030
  H        1.1389810     1.0438400     1.3116400
  H       -1.2614020     0.1027960     1.3365120
  H        1.5823060    -0.4261990    -1.3195550
  H        0.5265370    -1.4152780     1.3862880
  H       -2.6088310     0.2173240    -1.3960300
  H       -3.1281770     1.1200080     0.0454480
  H       -0.8264260     2.5110960     1.1737150
  H        1.5069660     2.8252470    -0.2509780
  H        3.0031740    -0.4532420     1.1134330
  H        1.2543330    -2.7122130    -0.9803670
  H       -2.8912910    -1.6827110    -0.0238270
units angstrom
no_reorient  #important for SAPT in psi4, default
symmetry c1  #important for SAPT in psi4, default
}

set PROPERTIES_ORIGIN ["COM"]
properties('MP2/aug-cc-pvtz', properties = ['dipole'])
--------------------------------------------------------------------------

    Molecular point group: c1
  Charge       = 0
  Multiplicity = 1
  Basis Set: AUG-CC-PVTZ
    Blend: AUG-CC-PVTZ
  Basis Set: (AUG-CC-PVTZ AUX)
    Blend: AUG-CC-PVTZ-JKFIT

    Orbital Energies [Eh]
    ---------------------

    Doubly Occupied:

       1A    -20.599616     2A    -20.598691     3A    -20.589542
       4A    -20.579350     5A    -20.577993     6A    -20.562924
       7A    -11.354730     8A    -11.311101     9A    -11.310450
      10A    -11.308766    11A    -11.306727    12A    -11.287627
      13A     -1.435325    14A     -1.404562    15A     -1.387696
      16A     -1.369325    17A     -1.365086    18A     -1.347652
      19A     -1.081342    20A     -1.049538    21A     -0.944700
      22A     -0.883671    23A     -0.852817    24A     -0.842228
      25A     -0.748040    26A     -0.729440    27A     -0.721171
      28A     -0.701329    29A     -0.694469    30A     -0.675531
      31A     -0.659882    32A     -0.643166    33A     -0.620253
      34A     -0.611428    35A     -0.598896    36A     -0.587374
      37A     -0.571476    38A     -0.560483    39A     -0.556240
      40A     -0.543431    41A     -0.524997    42A     -0.518395
      43A     -0.499599    44A     -0.486507    45A     -0.474548
      46A     -0.462516    47A     -0.447350    48A     -0.431367

  @DF-RHF Final Energy:  -683.57873648143084

   => Energetics <=

    Nuclear Repulsion Energy =            823.4415709858230912
    One-Electron Energy =               -2575.2019161940957019
    Two-Electron Energy =                1068.1816087268418869
    Total Energy =                       -683.5787364814307239
  Basis Set: (AUG-CC-PVTZ AUX)
    Blend: AUG-CC-PVTZ-RI
    Molecular point group: c1

    Geometry (in Angstrom), charge = 0, multiplicity = 1:

       Center              X                  Y                   Z               Mass
    ------------   -----------------  -----------------  -----------------  -----------------
         O           -0.720029358771    -1.103256744973    -0.261411761891    15.994914619570
         O           -0.764174358771     2.561581255027     0.194387238109    15.994914619570
         O            1.975070641229     1.994981255027    -0.349413761891    15.994914619570
         O            2.900379641229    -0.658363744973     0.162826238109    15.994914619570
         O            0.904795441229    -2.740634344973     0.067847838109    15.994914619570
         O           -3.425129358771    -0.871708744973     0.183168238109    15.994914619570
         C           -0.331791358771     1.268112255027    -0.245022761891    12.000000000000
         C            1.106183641229     1.019399255027     0.194521238109    12.000000000000
         C           -1.238591358771     0.141145255027     0.224536238109    12.000000000000
         C            1.570985641229    -0.365551744973    -0.229383761891    12.000000000000
         C            0.573004641229    -1.411833744973     0.279494238109    12.000000000000
         C           -2.657446358771     0.217722255027    -0.303224761891    12.000000000000
         H           -0.353395358771     1.318207255027    -1.339343761891     1.007825032230
         H            1.127706641229     1.059923255027     1.304899238109     1.007825032230
         H           -1.272676358771     0.118879255027     1.329771238109     1.007825032230
         H            1.571031641229    -0.410115744973    -1.326295761891     1.007825032230
         H            0.515262641229    -1.399194744973     1.379547238109     1.007825032230
         H           -2.620105358771     0.233407255027    -1.402770761891     1.007825032230
         H           -3.139451358771     1.136091255027     0.038707238109     1.007825032230
         H           -0.837700358771     2.527179255027     1.166974238109     1.007825032230
         H            1.495691641229     2.841330255027    -0.257718761891     1.007825032230
         H            2.991899641229    -0.437158744973     1.106692238109     1.007825032230
         H            1.243058641229    -2.696129744973    -0.987107761891     1.007825032230
         H           -2.902565358771    -1.666627744973    -0.030567761891     1.007825032230

  Basis Set: AUG-CC-PVTZ
    Blend: AUG-CC-PVTZ
  Basis Set: (AUG-CC-PVTZ AUX)
    Blend: AUG-CC-PVTZ-JKFIT
	 Reference Energy          =    -683.5787364814308376 [Eh]
	 Singles Energy            =      -0.0000000000000000 [Eh]
	 Same-Spin Energy          =      -0.6674789824730690 [Eh]
	 Opposite-Spin Energy      =      -2.0503392253087016 [Eh]
	 Correlation Energy        =      -2.7178182077817707 [Eh]
	 Total Energy              =    -686.2965546892125985 [Eh]

	 ================> DF-SCS-MP2 Energies <==================
	-----------------------------------------------------------
	 SCS Same-Spin Scale       =       0.3333333333333333 [-]
	 SCS Opposite-Spin Scale   =       1.2000000000000000 [-]
	 SCS Same-Spin Energy      =      -0.2224929941576897 [Eh]
	 SCS Opposite-Spin Energy  =      -2.4604070703704419 [Eh]
	 SCS Correlation Energy    =      -2.6829000645281318 [Eh]
	 SCS Total Energy          =    -686.2616365459589360 [Eh]
	-----------------------------------------------------------

  Dipole Moment: [D]
     X:     0.1934      Y:     1.6197      Z:     1.2118     Total:     2.0321

*** Psi4 exiting successfully. Buy a developer a beer!
