                               Psi4 1.3.2 release

  ==> Input File <==

--------------------------------------------------------------------------
#psi4
#
memory 32 gb

molecule  {
0 1
  O       -0.7306272    -1.1237975    -0.2659529
  O       -0.7529000     2.5454980     0.2011280
  O        1.9863450     1.9788980    -0.3426730
  O        2.9116540    -0.6744470     0.1695670
  O        0.9157630    -2.7262860    -0.0672430
  O       -3.4138550    -0.8877920     0.1899090
  C       -0.3205170     1.2520290    -0.2382820
  C        1.1174580     1.0033160     0.2012620
  C       -1.2273170     0.1250620     0.2312770
  C        1.5822600    -0.3816350    -0.2226430
  C        0.5842790    -1.4279170     0.2862350
  C       -2.6461720     0.2016390    -0.2964840
  H       -0.3421210     1.3021240    -1.3326030
  H        1.1389810     1.0438400     1.3116400
  H       -1.2614020     0.1027960     1.3365120
  H        1.5823060    -0.4261990    -1.3195550
  H        0.5265370    -1.4152780     1.3862880
  H       -2.6088310     0.2173240    -1.3960300
  H       -3.1281770     1.1200080     0.0454480
  H       -0.8264260     2.5110960     1.1737150
  H        1.5069660     2.8252470    -0.2509780
  H        3.0031740    -0.4532420     1.1134330
  H        1.2543330    -2.7122130    -0.9803670
  H       -2.8912910    -1.6827110    -0.0238270
units angstrom
no_reorient  #important for SAPT in psi4, default
symmetry c1  #important for SAPT in psi4, default
}

set PROPERTIES_ORIGIN ["COM"]
properties('MP2/aug-cc-pvtz', properties = ['dipole'])
--------------------------------------------------------------------------

    Molecular point group: c1
  Charge       = 0
  Multiplicity = 1
  Basis Set: AUG-CC-PVTZ
    Blend: AUG-CC-PVTZ
  Basis Set: (AUG-CC-PVTZ AUX)
    Blend: AUG-CC-PVTZ-JKFIT

    Orbital Energies [Eh]
    ---------------------

    Doubly Occupied:

       1A    -20.598366     2A    -20.589065     3A    -20.585100
       4A    -20.580587     5A    -20.577732     6A    -20.561457
       7A    -11.359247     8A    -11.310579     9A    -11.309937
      10A    -11.306664    11A    -11.306616    12A    -11.285800
      13A     -1.436535    14A     -1.405073    15A     -1.388167
      16A     -1.372542    17A     -1.366427    18A     -1.351102
      19A     -1.080968    20A     -1.049411    21A     -0.945967
      22A     -0.891901    23A     -0.853431    24A     -0.841698
      25A     -0.753349    26A     -0.728551    27A     -0.721194
      28A     -0.709565    29A     -0.692011    30A     -0.674821
      31A     -0.658959    32A     -0.654435    33A     -0.620447
      34A     -0.615343    35A     -0.597137    36A     -0.587588
      37A     -0.569822    38A     -0.561204    39A     -0.557002
      40A     -0.543903    41A     -0.526754    42A     -0.518223
      43A     -0.502577    44A     -0.485628    45A     -0.474636
      46A     -0.461845    47A     -0.446591    48A     -0.432220

  @DF-RHF Final Energy:  -683.60202426526064

   => Energetics <=

    Nuclear Repulsion Energy =            824.1336198803531943
    One-Electron Energy =               -2576.5749397561266960
    Two-Electron Energy =                1068.8392956105128633
    Total Energy =                       -683.6020242652605248
  Basis Set: (AUG-CC-PVTZ AUX)
    Blend: AUG-CC-PVTZ-RI
    Molecular point group: c1

    Geometry (in Angstrom), charge = 0, multiplicity = 1:

       Center              X                  Y                   Z               Mass
    ------------   -----------------  -----------------  -----------------  -----------------
         O           -0.739931412507    -1.110021507522    -0.259092688448    15.994914619570
         O           -0.762204212507     2.559273992478     0.207988211552    15.994914619570
         O            1.977040787493     1.992673992478    -0.335812788448    15.994914619570
         O            2.902349787493    -0.660671007522     0.176427211552    15.994914619570
         O            0.906458787493    -2.712510007522    -0.060382788448    15.994914619570
         O           -3.423159212507    -0.874016007522     0.196769211552    15.994914619570
         C           -0.329821212507     1.265804992478    -0.231421788448    12.000000000000
         C            1.108153787493     1.017091992478     0.208122211552    12.000000000000
         C           -1.236621212507     0.138837992478     0.238137211552    12.000000000000
         C            1.572955787493    -0.367859007522    -0.215782788448    12.000000000000
         C            0.574974787493    -1.414141007522     0.293095211552    12.000000000000
         C           -2.655476212507     0.215414992478    -0.289623788448    12.000000000000
         H           -0.351425212507     1.315899992478    -1.325742788448     1.007825032230
         H            1.129676787493     1.057615992478     1.318500211552     1.007825032230
         H           -1.270706212507     0.116571992478     1.343372211552     1.007825032230
         H            1.573001787493    -0.412423007522    -1.312694788448     1.007825032230
         H            0.517232787493    -1.401502007522     1.393148211552     1.007825032230
         H           -2.618135212507     0.231099992478    -1.389169788448     1.007825032230
         H           -3.137481212507     1.133783992478     0.052308211552     1.007825032230
         H           -0.835730212507     2.524871992478     1.180575211552     1.007825032230
         H            1.497661787493     2.839022992478    -0.244117788448     1.007825032230
         H            2.993869787493    -0.439466007522     1.120293211552     1.007825032230
         H            1.245028787493    -2.698437007522    -0.973506788448     1.007825032230
         H           -2.900595212507    -1.668935007522    -0.016966788448     1.007825032230

  Basis Set: AUG-CC-PVTZ
    Blend: AUG-CC-PVTZ
  Basis Set: (AUG-CC-PVTZ AUX)
    Blend: AUG-CC-PVTZ-JKFIT
	 Reference Energy          =    -683.6020242652606385 [Eh]
	 Singles Energy            =      -0.0000000000000000 [Eh]
	 Same-Spin Energy          =      -0.6657313203618230 [Eh]
	 Opposite-Spin Energy      =      -2.0457647171881579 [Eh]
	 Correlation Energy        =      -2.7114960375499808 [Eh]
	 Total Energy              =    -686.3135203028106162 [Eh]

	 ================> DF-SCS-MP2 Energies <==================
	-----------------------------------------------------------
	 SCS Same-Spin Scale       =       0.3333333333333333 [-]
	 SCS Opposite-Spin Scale   =       1.2000000000000000 [-]
	 SCS Same-Spin Energy      =      -0.2219104401206077 [Eh]
	 SCS Opposite-Spin Energy  =      -2.4549176606257892 [Eh]
	 SCS Correlation Energy    =      -2.6768281007463970 [Eh]
	 SCS Total Energy          =    -686.2788523660070723 [Eh]
	-----------------------------------------------------------

  Dipole Moment: [D]
     X:     0.3363      Y:     1.5758      Z:     1.3954     Total:     2.1315

*** Psi4 exiting successfully. Buy a developer a beer!
