                               Psi4 1.3.2 release

  ==> Input File <==

--------------------------------------------------------------------------
#psi4
#
memory 32 gb

molecule  {
0 1
  O       -0.7095661    -1.2584954    -0.3112574
  O       -0.7529000     2.5454980     0.2011280
  O        1.9863450     1.9788980    -0.3426730
  O        2.9116540    -0.6744470     0.1695670
  O        0.9157630    -2.7262860    -0.0672430
  O       -3.4138550    -0.8877920     0.1899090
  C       -0.3205170     1.2520290    -0.2382820
  C        1.1174580     1.0033160     0.2012620
  C       -1.2273170     0.1250620     0.2312770
  C        1.5822600    -0.3816350    -0.2226430
  C        0.5842790    -1.4279170     0.2862350
  C       -2.6461720     0.2016390    -0.2964840
  H       -0.3421210     1.3021240    -1.3326030
  H        1.1389810     1.0438400     1.3116400
  H       -1.2614020     0.1027960     1.3365120
  H        1.5823060    -0.4261990    -1.3195550
  H        0.5265370    -1.4152780     1.3862880
  H       -2.6088310     0.2173240    -1.3960300
  H       -3.1281770     1.1200080     0.0454480
  H       -0.8264260     2.5110960     1.1737150
  H        1.5069660     2.8252470    -0.2509780
  H        3.0031740    -0.4532420     1.1134330
  H        1.2543330    -2.7122130    -0.9803670
  H       -2.8912910    -1.6827110    -0.0238270
units angstrom
no_reorient  #important for SAPT in psi4, default
symmetry c1  #important for SAPT in psi4, default
}

set PROPERTIES_ORIGIN ["COM"]
properties('MP2/aug-cc-pvtz', properties = ['dipole'])
--------------------------------------------------------------------------

    Molecular point group: c1
  Charge       = 0
  Multiplicity = 1
  Basis Set: AUG-CC-PVTZ
    Blend: AUG-CC-PVTZ
  Basis Set: (AUG-CC-PVTZ AUX)
    Blend: AUG-CC-PVTZ-JKFIT

    Orbital Energies [Eh]
    ---------------------

    Doubly Occupied:

       1A    -20.604751     2A    -20.591482     3A    -20.580211
       4A    -20.579192     5A    -20.572515     6A    -20.563102
       7A    -11.351399     8A    -11.319366     9A    -11.317701
      10A    -11.311808    11A    -11.305494    12A    -11.291049
      13A     -1.427716    14A     -1.409027    15A     -1.386987
      16A     -1.368647    17A     -1.366461    18A     -1.330512
      19A     -1.088918    20A     -1.044642    21A     -0.948496
      22A     -0.888518    23A     -0.851378    24A     -0.843485
      25A     -0.748673    26A     -0.725316    27A     -0.719973
      28A     -0.707805    29A     -0.688569    30A     -0.673578
      31A     -0.654319    32A     -0.648947    33A     -0.623835
      34A     -0.613530    35A     -0.598949    36A     -0.587010
      37A     -0.570345    38A     -0.560296    39A     -0.554344
      40A     -0.543020    41A     -0.521732    42A     -0.510662
      43A     -0.505708    44A     -0.482069    45A     -0.476689
      46A     -0.465165    47A     -0.447533    48A     -0.436752

  @DF-RHF Final Energy:  -683.58409337969726

   => Energetics <=

    Nuclear Repulsion Energy =            821.1345822501759812
    One-Electron Energy =               -2570.6219926026142275
    Two-Electron Energy =                1065.9033169727410950
    Total Energy =                       -683.5840933796971512
  Basis Set: (AUG-CC-PVTZ AUX)
    Blend: AUG-CC-PVTZ-RI
    Molecular point group: c1

    Geometry (in Angstrom), charge = 0, multiplicity = 1:

       Center              X                  Y                   Z               Mass
    ------------   -----------------  -----------------  -----------------  -----------------
         O           -0.720741156435    -1.232754279948    -0.300372818936    15.994914619570
         O           -0.764075056435     2.571239120052     0.212012581064    15.994914619570
         O            1.975169943565     2.004639120052    -0.331788418936    15.994914619570
         O            2.900478943565    -0.648705879948     0.180451581064    15.994914619570
         O            0.904587943565    -2.700544879948    -0.056358418936    15.994914619570
         O           -3.425030056435    -0.862050879948     0.200793581064    15.994914619570
         C           -0.331692056435     1.277770120052    -0.227397418936    12.000000000000
         C            1.106282943565     1.029057120052     0.212146581064    12.000000000000
         C           -1.238492056435     0.150803120052     0.242161581064    12.000000000000
         C            1.571084943565    -0.355893879948    -0.211758418936    12.000000000000
         C            0.573103943565    -1.402175879948     0.297119581064    12.000000000000
         C           -2.657347056435     0.227380120052    -0.285599418936    12.000000000000
         H           -0.353296056435     1.327865120052    -1.321718418936     1.007825032230
         H            1.127805943565     1.069581120052     1.322524581064     1.007825032230
         H           -1.272577056435     0.128537120052     1.347396581064     1.007825032230
         H            1.571130943565    -0.400457879948    -1.308670418936     1.007825032230
         H            0.515361943565    -1.389536879948     1.397172581064     1.007825032230
         H           -2.620006056435     0.243065120052    -1.385145418936     1.007825032230
         H           -3.139352056435     1.145749120052     0.056332581064     1.007825032230
         H           -0.837601056435     2.536837120052     1.184599581064     1.007825032230
         H            1.495790943565     2.850988120052    -0.240093418936     1.007825032230
         H            2.991998943565    -0.427500879948     1.124317581064     1.007825032230
         H            1.243157943565    -2.686471879948    -0.969482418936     1.007825032230
         H           -2.902466056435    -1.656969879948    -0.012942418936     1.007825032230

  Basis Set: AUG-CC-PVTZ
    Blend: AUG-CC-PVTZ
  Basis Set: (AUG-CC-PVTZ AUX)
    Blend: AUG-CC-PVTZ-JKFIT
	 Reference Energy          =    -683.5840933796972649 [Eh]
	 Singles Energy            =      -0.0000000000000000 [Eh]
	 Same-Spin Energy          =      -0.6668358286368903 [Eh]
	 Opposite-Spin Energy      =      -2.0500666571013051 [Eh]
	 Correlation Energy        =      -2.7169024857381956 [Eh]
	 Total Energy              =    -686.3009958654354250 [Eh]

	 ================> DF-SCS-MP2 Energies <==================
	-----------------------------------------------------------
	 SCS Same-Spin Scale       =       0.3333333333333333 [-]
	 SCS Opposite-Spin Scale   =       1.2000000000000000 [-]
	 SCS Same-Spin Energy      =      -0.2222786095456301 [Eh]
	 SCS Opposite-Spin Energy  =      -2.4600799885215658 [Eh]
	 SCS Correlation Energy    =      -2.6823585980671960 [Eh]
	 SCS Total Energy          =    -686.2664519777644045 [Eh]
	-----------------------------------------------------------

  Dipole Moment: [D]
     X:     0.1246      Y:     2.0756      Z:     1.5040     Total:     2.5663

*** Psi4 exiting successfully. Buy a developer a beer!
