                               Psi4 1.3.2 release

  ==> Input File <==

--------------------------------------------------------------------------
#psi4
#
memory 32 gb

molecule  {
0 1
  O       -0.7087550    -1.1193400    -0.2546710
  O       -0.7529000     2.5454980     0.2011280
  O        1.9863450     1.9788980    -0.3426730
  O        2.9116540    -0.6744470     0.1695670
  O        0.9157630    -2.7262860    -0.0672430
  O       -3.3738998    -0.9039263     0.2143123
  C       -0.3205170     1.2520290    -0.2382820
  C        1.1174580     1.0033160     0.2012620
  C       -1.2273170     0.1250620     0.2312770
  C        1.5822600    -0.3816350    -0.2226430
  C        0.5842790    -1.4279170     0.2862350
  C       -2.6461720     0.2016390    -0.2964840
  H       -0.3421210     1.3021240    -1.3326030
  H        1.1389810     1.0438400     1.3116400
  H       -1.2614020     0.1027960     1.3365120
  H        1.5823060    -0.4261990    -1.3195550
  H        0.5265370    -1.4152780     1.3862880
  H       -2.6088310     0.2173240    -1.3960300
  H       -3.1281770     1.1200080     0.0454480
  H       -0.8264260     2.5110960     1.1737150
  H        1.5069660     2.8252470    -0.2509780
  H        3.0031740    -0.4532420     1.1134330
  H        1.2543330    -2.7122130    -0.9803670
  H       -2.8912910    -1.6827110    -0.0238270
units angstrom
no_reorient  #important for SAPT in psi4, default
symmetry c1  #important for SAPT in psi4, default
}

set PROPERTIES_ORIGIN ["COM"]
properties('MP2/aug-cc-pvtz', properties = ['dipole'])
--------------------------------------------------------------------------

    Molecular point group: c1
  Charge       = 0
  Multiplicity = 1
  Basis Set: AUG-CC-PVTZ
    Blend: AUG-CC-PVTZ
  Basis Set: (AUG-CC-PVTZ AUX)
    Blend: AUG-CC-PVTZ-JKFIT

    Orbital Energies [Eh]
    ---------------------

    Doubly Occupied:

       1A    -20.597995     2A    -20.587581     3A    -20.583306
       4A    -20.578812     5A    -20.576975     6A    -20.559444
       7A    -11.356302     8A    -11.309685     9A    -11.308986
      10A    -11.306770    11A    -11.304580    12A    -11.288264
      13A     -1.439666    14A     -1.404650    15A     -1.387794
      16A     -1.374974    17A     -1.365801    18A     -1.354778
      19A     -1.080355    20A     -1.050905    21A     -0.947200
      22A     -0.890696    23A     -0.855210    24A     -0.842088
      25A     -0.753835    26A     -0.729610    27A     -0.721079
      28A     -0.710480    29A     -0.694827    30A     -0.674144
      31A     -0.662004    32A     -0.654956    33A     -0.619846
      34A     -0.615045    35A     -0.600244    36A     -0.587148
      37A     -0.570071    38A     -0.561266    39A     -0.555502
      40A     -0.543156    41A     -0.526579    42A     -0.516372
      43A     -0.501963    44A     -0.487784    45A     -0.473771
      46A     -0.463483    47A     -0.445583    48A     -0.430144

  @DF-RHF Final Energy:  -683.60467775361144

   => Energetics <=

    Nuclear Repulsion Energy =            825.4484835802101088
    One-Electron Energy =               -2579.2029136349378859
    Two-Electron Energy =                1070.1497523011164503
    Total Energy =                       -683.6046777536114405
  Basis Set: (AUG-CC-PVTZ AUX)
    Blend: AUG-CC-PVTZ-RI
    Molecular point group: c1

    Geometry (in Angstrom), charge = 0, multiplicity = 1:

       Center              X                  Y                   Z               Mass
    ------------   -----------------  -----------------  -----------------  -----------------
         O           -0.723551300568    -1.104526764910    -0.250980681746    15.994914619570
         O           -0.767696300568     2.560311235090     0.204818318254    15.994914619570
         O            1.971548699432     1.993711235090    -0.338982681746    15.994914619570
         O            2.896857699432    -0.659633764910     0.173257318254    15.994914619570
         O            0.900966699432    -2.711472764910    -0.063552681746    15.994914619570
         O           -3.388696100568    -0.889113064910     0.218002618254    15.994914619570
         C           -0.335313300568     1.266842235090    -0.234591681746    12.000000000000
         C            1.102661699432     1.018129235090     0.204952318254    12.000000000000
         C           -1.242113300568     0.139875235090     0.234967318254    12.000000000000
         C            1.567463699432    -0.366821764910    -0.218952681746    12.000000000000
         C            0.569482699432    -1.413103764910     0.289925318254    12.000000000000
         C           -2.660968300568     0.216452235090    -0.292793681746    12.000000000000
         H           -0.356917300568     1.316937235090    -1.328912681746     1.007825032230
         H            1.124184699432     1.058653235090     1.315330318254     1.007825032230
         H           -1.276198300568     0.117609235090     1.340202318254     1.007825032230
         H            1.567509699432    -0.411385764910    -1.315864681746     1.007825032230
         H            0.511740699432    -1.400464764910     1.389978318254     1.007825032230
         H           -2.623627300568     0.232137235090    -1.392339681746     1.007825032230
         H           -3.142973300568     1.134821235090     0.049138318254     1.007825032230
         H           -0.841222300568     2.525909235090     1.177405318254     1.007825032230
         H            1.492169699432     2.840060235090    -0.247287681746     1.007825032230
         H            2.988377699432    -0.438428764910     1.117123318254     1.007825032230
         H            1.239536699432    -2.697399764910    -0.976676681746     1.007825032230
         H           -2.906087300568    -1.667897764910    -0.020136681746     1.007825032230

  Basis Set: AUG-CC-PVTZ
    Blend: AUG-CC-PVTZ
  Basis Set: (AUG-CC-PVTZ AUX)
    Blend: AUG-CC-PVTZ-JKFIT
	 Reference Energy          =    -683.6046777536114405 [Eh]
	 Singles Energy            =      -0.0000000000000000 [Eh]
	 Same-Spin Energy          =      -0.6650996320577426 [Eh]
	 Opposite-Spin Energy      =      -2.0439234964864434 [Eh]
	 Correlation Energy        =      -2.7090231285441861 [Eh]
	 Total Energy              =    -686.3137008821556719 [Eh]

	 ================> DF-SCS-MP2 Energies <==================
	-----------------------------------------------------------
	 SCS Same-Spin Scale       =       0.3333333333333333 [-]
	 SCS Opposite-Spin Scale   =       1.2000000000000000 [-]
	 SCS Same-Spin Energy      =      -0.2216998773525808 [Eh]
	 SCS Opposite-Spin Energy  =      -2.4527081957837322 [Eh]
	 SCS Correlation Energy    =      -2.6744080731363131 [Eh]
	 SCS Total Energy          =    -686.2790858267477461 [Eh]
	-----------------------------------------------------------

  Dipole Moment: [D]
     X:     0.1108      Y:     1.6199      Z:     1.3014     Total:     2.0809

*** Psi4 exiting successfully. Buy a developer a beer!
