                               Psi4 1.3.2 release

  ==> Input File <==

--------------------------------------------------------------------------
#psi4
#
memory 32 gb

molecule  {
0 1
  O       -0.7087550    -1.1193400    -0.2546710
  O       -0.7529000     2.5454980     0.2011280
  O        1.9863450     1.9788980    -0.3426730
  O        2.9116540    -0.6744470     0.1695670
  O        0.9157630    -2.7262860    -0.0672430
  O       -3.4138550    -0.8877920     0.1899090
  C       -0.3205170     1.2520290    -0.2382820
  C        1.1174580     1.0033160     0.2012620
  C       -1.2273170     0.1250620     0.2312770
  C        1.4884184    -0.3609655    -0.2503290
  C        0.5842790    -1.4279170     0.2862350
  C       -2.6461720     0.2016390    -0.2964840
  H       -0.3421210     1.3021240    -1.3326030
  H        1.1389810     1.0438400     1.3116400
  H       -1.2614020     0.1027960     1.3365120
  H        1.5823060    -0.4261990    -1.3195550
  H        0.5265370    -1.4152780     1.3862880
  H       -2.6088310     0.2173240    -1.3960300
  H       -3.1281770     1.1200080     0.0454480
  H       -0.8264260     2.5110960     1.1737150
  H        1.5069660     2.8252470    -0.2509780
  H        3.0031740    -0.4532420     1.1134330
  H        1.2543330    -2.7122130    -0.9803670
  H       -2.8912910    -1.6827110    -0.0238270
units angstrom
no_reorient  #important for SAPT in psi4, default
symmetry c1  #important for SAPT in psi4, default
}

set PROPERTIES_ORIGIN ["COM"]
properties('MP2/aug-cc-pvtz', properties = ['dipole'])
--------------------------------------------------------------------------

    Molecular point group: c1
  Charge       = 0
  Multiplicity = 1
  Basis Set: AUG-CC-PVTZ
    Blend: AUG-CC-PVTZ
  Basis Set: (AUG-CC-PVTZ AUX)
    Blend: AUG-CC-PVTZ-JKFIT

    Orbital Energies [Eh]
    ---------------------

    Doubly Occupied:

       1A    -20.599049     2A    -20.588770     3A    -20.587199
       4A    -20.579907     5A    -20.567387     6A    -20.563840
       7A    -11.360548     8A    -11.312423     9A    -11.311501
      10A    -11.309791    11A    -11.305911    12A    -11.288713
      13A     -1.443137    14A     -1.406428    15A     -1.380260
      16A     -1.374430    17A     -1.355403    18A     -1.338910
      19A     -1.091229    20A     -1.058491    21A     -0.949285
      22A     -0.895375    23A     -0.854922    24A     -0.845132
      25A     -0.757470    26A     -0.730170    27A     -0.714142
      28A     -0.710904    29A     -0.697578    30A     -0.668214
      31A     -0.663740    32A     -0.653853    33A     -0.619459
      34A     -0.612591    35A     -0.598314    36A     -0.581174
      37A     -0.569001    38A     -0.561246    39A     -0.552473
      40A     -0.544707    41A     -0.527453    42A     -0.513049
      43A     -0.506269    44A     -0.489122    45A     -0.480483
      46A     -0.463371    47A     -0.451567    48A     -0.434089

  @DF-RHF Final Energy:  -683.59284761054869

   => Energetics <=

    Nuclear Repulsion Energy =            825.4119975875174759
    One-Electron Energy =               -2579.0727267165134435
    Two-Electron Energy =                1070.0678815184473933
    Total Energy =                       -683.5928476105486880
  Basis Set: (AUG-CC-PVTZ AUX)
    Blend: AUG-CC-PVTZ-RI
    Molecular point group: c1

    Geometry (in Angstrom), charge = 0, multiplicity = 1:

       Center              X                  Y                   Z               Mass
    ------------   -----------------  -----------------  -----------------  -----------------
         O           -0.713748201609    -1.107337445950    -0.246967868772    15.994914619570
         O           -0.757893201609     2.557500554050     0.208831131228    15.994914619570
         O            1.981351798391     1.990900554050    -0.334969868772    15.994914619570
         O            2.906660798391    -0.662444445950     0.177270131228    15.994914619570
         O            0.910769798391    -2.714283445950    -0.059539868772    15.994914619570
         O           -3.418848201609    -0.875789445950     0.197612131228    15.994914619570
         C           -0.325510201609     1.264031554050    -0.230578868772    12.000000000000
         C            1.112464798391     1.015318554050     0.208965131228    12.000000000000
         C           -1.232310201609     0.137064554050     0.238980131228    12.000000000000
         C            1.483425198391    -0.348962945950    -0.242625868772    12.000000000000
         C            0.579285798391    -1.415914445950     0.293938131228    12.000000000000
         C           -2.651165201609     0.213641554050    -0.288780868772    12.000000000000
         H           -0.347114201609     1.314126554050    -1.324899868772     1.007825032230
         H            1.133987798391     1.055842554050     1.319343131228     1.007825032230
         H           -1.266395201609     0.114798554050     1.344215131228     1.007825032230
         H            1.577312798391    -0.414196445950    -1.311851868772     1.007825032230
         H            0.521543798391    -1.403275445950     1.393991131228     1.007825032230
         H           -2.613824201609     0.229326554050    -1.388326868772     1.007825032230
         H           -3.133170201609     1.132010554050     0.053151131228     1.007825032230
         H           -0.831419201609     2.523098554050     1.181418131228     1.007825032230
         H            1.501972798391     2.837249554050    -0.243274868772     1.007825032230
         H            2.998180798391    -0.441239445950     1.121136131228     1.007825032230
         H            1.249339798391    -2.700210445950    -0.972663868772     1.007825032230
         H           -2.896284201609    -1.670708445950    -0.016123868772     1.007825032230

  Basis Set: AUG-CC-PVTZ
    Blend: AUG-CC-PVTZ
  Basis Set: (AUG-CC-PVTZ AUX)
    Blend: AUG-CC-PVTZ-JKFIT
	 Reference Energy          =    -683.5928476105486880 [Eh]
	 Singles Energy            =      -0.0000000000000000 [Eh]
	 Same-Spin Energy          =      -0.6662713402326390 [Eh]
	 Opposite-Spin Energy      =      -2.0471318428858205 [Eh]
	 Correlation Energy        =      -2.7134031831184595 [Eh]
	 Total Energy              =    -686.3062507936671182 [Eh]

	 ================> DF-SCS-MP2 Energies <==================
	-----------------------------------------------------------
	 SCS Same-Spin Scale       =       0.3333333333333333 [-]
	 SCS Opposite-Spin Scale   =       1.2000000000000000 [-]
	 SCS Same-Spin Energy      =      -0.2220904467442130 [Eh]
	 SCS Opposite-Spin Energy  =      -2.4565582114629847 [Eh]
	 SCS Correlation Energy    =      -2.6786486582071976 [Eh]
	 SCS Total Energy          =    -686.2714962687558682 [Eh]
	-----------------------------------------------------------

  Dipole Moment: [D]
     X:    -0.1193      Y:     1.6447      Z:     1.2823     Total:     2.0889

*** Psi4 exiting successfully. Buy a developer a beer!
