                               Psi4 1.3.2 release

  ==> Input File <==

--------------------------------------------------------------------------
#psi4
#
memory 32 gb

molecule  {
0 1
  O       -0.7072400    -1.0964354    -0.2446460
  O       -0.7529000     2.5454980     0.2011280
  O        1.9863450     1.9788980    -0.3426730
  O        2.9116540    -0.6744470     0.1695670
  O        0.9157630    -2.7262860    -0.0672430
  O       -3.4138550    -0.8877920     0.1899090
  C       -0.3205170     1.2520290    -0.2382820
  C        1.1174580     1.0033160     0.2012620
  C       -1.2273170     0.1250620     0.2312770
  C        1.5822600    -0.3816350    -0.2226430
  C        0.5842790    -1.4279170     0.2862350
  C       -2.6461720     0.2016390    -0.2964840
  H       -0.3421210     1.3021240    -1.3326030
  H        1.1389810     1.0438400     1.3116400
  H       -1.2614020     0.1027960     1.3365120
  H        1.5823060    -0.4261990    -1.3195550
  H        0.5265370    -1.4152780     1.3862880
  H       -2.6088310     0.2173240    -1.3960300
  H       -3.1281770     1.1200080     0.0454480
  H       -0.8264260     2.5110960     1.1737150
  H        1.5069660     2.8252470    -0.2509780
  H        3.0031740    -0.4532420     1.1134330
  H        1.2543330    -2.7122130    -0.9803670
  H       -2.8912910    -1.6827110    -0.0238270
units angstrom
no_reorient  #important for SAPT in psi4, default
symmetry c1  #important for SAPT in psi4, default
}

set PROPERTIES_ORIGIN ["COM"]
properties('MP2/aug-cc-pvtz', properties = ['dipole'])
--------------------------------------------------------------------------

    Molecular point group: c1
  Charge       = 0
  Multiplicity = 1
  Basis Set: AUG-CC-PVTZ
    Blend: AUG-CC-PVTZ
  Basis Set: (AUG-CC-PVTZ AUX)
    Blend: AUG-CC-PVTZ-JKFIT

    Orbital Energies [Eh]
    ---------------------

    Doubly Occupied:

       1A    -20.597156     2A    -20.587761     3A    -20.585737
       4A    -20.579123     5A    -20.577189     6A    -20.562689
       7A    -11.358105     8A    -11.309636     9A    -11.308846
      10A    -11.306137    11A    -11.305098    12A    -11.286663
      13A     -1.443560    14A     -1.404377    15A     -1.388576
      16A     -1.374296    17A     -1.365672    18A     -1.355268
      19A     -1.079565    20A     -1.052497    21A     -0.945696
      22A     -0.891990    23A     -0.854897    24A     -0.842320
      25A     -0.755413    26A     -0.730642    27A     -0.721211
      28A     -0.710538    29A     -0.694468    30A     -0.675177
      31A     -0.661692    32A     -0.655258    33A     -0.619519
      34A     -0.615965    35A     -0.597762    36A     -0.587787
      37A     -0.570710    38A     -0.562500    39A     -0.555702
      40A     -0.543478    41A     -0.528333    42A     -0.518146
      43A     -0.502501    44A     -0.486938    45A     -0.473509
      46A     -0.461550    47A     -0.446222    48A     -0.429698

  @DF-RHF Final Energy:  -683.60451611258782

   => Energetics <=

    Nuclear Repulsion Energy =            825.2912991907268179
    One-Electron Energy =               -2578.8564854794622079
    Two-Electron Energy =                1069.9606701761474596
    Total Energy =                       -683.6045161125878167
  Basis Set: (AUG-CC-PVTZ AUX)
    Blend: AUG-CC-PVTZ-RI
    Molecular point group: c1

    Geometry (in Angstrom), charge = 0, multiplicity = 1:

       Center              X                  Y                   Z               Mass
    ------------   -----------------  -----------------  -----------------  -----------------
         O           -0.718621682397    -1.085089965215    -0.239678466632    15.994914619570
         O           -0.764281682397     2.556843434785     0.206095533368    15.994914619570
         O            1.974963317603     1.990243434785    -0.337705466632    15.994914619570
         O            2.900272317603    -0.663101565215     0.174534533368    15.994914619570
         O            0.904381317603    -2.714940565215    -0.062275466632    15.994914619570
         O           -3.425236682397    -0.876446565215     0.194876533368    15.994914619570
         C           -0.331898682397     1.263374434785    -0.233314466632    12.000000000000
         C            1.106076317603     1.014661434785     0.206229533368    12.000000000000
         C           -1.238698682397     0.136407434785     0.236244533368    12.000000000000
         C            1.570878317603    -0.370289565215    -0.217675466632    12.000000000000
         C            0.572897317603    -1.416571565215     0.291202533368    12.000000000000
         C           -2.657553682397     0.212984434785    -0.291516466632    12.000000000000
         H           -0.353502682397     1.313469434785    -1.327635466632     1.007825032230
         H            1.127599317603     1.055185434785     1.316607533368     1.007825032230
         H           -1.272783682397     0.114141434785     1.341479533368     1.007825032230
         H            1.570924317603    -0.414853565215    -1.314587466632     1.007825032230
         H            0.515155317603    -1.403932565215     1.391255533368     1.007825032230
         H           -2.620212682397     0.228669434785    -1.391062466632     1.007825032230
         H           -3.139558682397     1.131353434785     0.050415533368     1.007825032230
         H           -0.837807682397     2.522441434785     1.178682533368     1.007825032230
         H            1.495584317603     2.836592434785    -0.246010466632     1.007825032230
         H            2.991792317603    -0.441896565215     1.118400533368     1.007825032230
         H            1.242951317603    -2.700867565215    -0.975399466632     1.007825032230
         H           -2.902672682397    -1.671365565215    -0.018859466632     1.007825032230

  Basis Set: AUG-CC-PVTZ
    Blend: AUG-CC-PVTZ
  Basis Set: (AUG-CC-PVTZ AUX)
    Blend: AUG-CC-PVTZ-JKFIT
	 Reference Energy          =    -683.6045161125878167 [Eh]
	 Singles Energy            =      -0.0000000000000000 [Eh]
	 Same-Spin Energy          =      -0.6653399163451731 [Eh]
	 Opposite-Spin Energy      =      -2.0442120129309047 [Eh]
	 Correlation Energy        =      -2.7095519292760777 [Eh]
	 Total Energy              =    -686.3140680418639477 [Eh]

	 ================> DF-SCS-MP2 Energies <==================
	-----------------------------------------------------------
	 SCS Same-Spin Scale       =       0.3333333333333333 [-]
	 SCS Opposite-Spin Scale   =       1.2000000000000000 [-]
	 SCS Same-Spin Energy      =      -0.2217799721150577 [Eh]
	 SCS Opposite-Spin Energy  =      -2.4530544155170855 [Eh]
	 SCS Correlation Energy    =      -2.6748343876321430 [Eh]
	 SCS Total Energy          =    -686.2793505002199481 [Eh]
	-----------------------------------------------------------

  Dipole Moment: [D]
     X:     0.2359      Y:     1.5110      Z:     1.3423     Total:     2.0349

*** Psi4 exiting successfully. Buy a developer a beer!
