                               Psi4 1.4a3.dev225

  ==> Input File <==

--------------------------------------------------------------------------
#psi4
#
memory 32 gb

molecule  {
0 1
  O       -0.7087730    -1.1193010    -0.2547420
  O       -0.7528450     2.5455330     0.2012150
  O        1.9863940     1.9788490    -0.3427120
  O        2.9116460    -0.6744970     0.1694850
  O        0.9156910    -2.7263170    -0.0671110
  O       -3.4138470    -0.8877920     0.1898460
  C       -0.3205030     1.2520640    -0.2382550
  C        1.1174820     1.0032940     0.2012350
  C       -1.2273260     0.1250970     0.2312670
  C        1.5822430    -0.3816820    -0.2226620
  C        0.5794364    -1.4091731     0.2913637
  C       -2.6461850     0.2016990    -0.2964600
  H       -0.3421180     1.3022200    -1.3325700
  H        1.1390340     1.0438120     1.3116130
  H       -1.2614040     0.1027740     1.3364960
  H        1.5822050    -0.4262820    -1.3195710
  H        0.5263940    -1.4152120     1.3863080
  H       -2.6088500     0.2174640    -1.3960030
  H       -3.1281860     1.1200450     0.0455410
  H       -0.8261980     2.5111300     1.1738140
  H        1.5071200     2.8252430    -0.2509020
  H        3.0032160    -0.4533580     1.1133610
  H        1.2544120    -2.7122960    -0.9801810
  H       -2.8913510    -1.6827050    -0.0240770
units angstrom
no_reorient  #important for SAPT in psi4, default
symmetry c1  #important for SAPT in psi4, default
}

set PROPERTIES_ORIGIN ["COM"]
properties('MP2/aug-cc-pvtz', properties = ['dipole'])
--------------------------------------------------------------------------

    Molecular point group: c1
  Charge       = 0
  Multiplicity = 1
  Basis Set: AUG-CC-PVTZ
    Blend: AUG-CC-PVTZ
  Basis Set: (AUG-CC-PVTZ AUX)
    Blend: AUG-CC-PVTZ-JKFIT

    Orbital Energies [Eh]
    ---------------------

    Doubly Occupied:

       1A    -20.598924     2A    -20.590819     3A    -20.580485
       4A    -20.579733     5A    -20.577723     6A    -20.563303
       7A    -11.356681     8A    -11.311191     9A    -11.309998
      10A    -11.308798    11A    -11.305422    12A    -11.287890
      13A     -1.439278    14A     -1.405062    15A     -1.388162
      16A     -1.370754    17A     -1.365755    18A     -1.351517
      19A     -1.082261    20A     -1.052788    21A     -0.946989
      22A     -0.891160    23A     -0.854784    24A     -0.843351
      25A     -0.752887    26A     -0.730814    27A     -0.721741
      28A     -0.708934    29A     -0.693380    30A     -0.674734
      31A     -0.659129    32A     -0.654160    33A     -0.620769
      34A     -0.615847    35A     -0.597720    36A     -0.586625
      37A     -0.569494    38A     -0.563011    39A     -0.556341
      40A     -0.543762    41A     -0.527715    42A     -0.515506
      43A     -0.503943    44A     -0.488174    45A     -0.474945
      46A     -0.462951    47A     -0.447157    48A     -0.432853

  @DF-RHF Final Energy:  -683.60309925696436

   => Energetics <=

    Nuclear Repulsion Energy =            824.8155773291376818
    One-Electron Energy =               -2577.9065107986839394
    Two-Electron Energy =                1069.4878342125816744
    Total Energy =                       -683.6030992569644695
  Basis Set: (AUG-CC-PVTZ AUX)
    Blend: AUG-CC-PVTZ-RI
    Molecular point group: c1

    Geometry (in Angstrom), charge = 0, multiplicity = 1:

       Center              X                  Y                   Z               Mass
    ------------   -----------------  -----------------  -----------------  -----------------
         O           -0.719699815880    -1.107169449272    -0.249223070594    15.994914619570
         O           -0.763771815880     2.557664550728     0.206733929406    15.994914619570
         O            1.975467184120     1.990980550728    -0.337193070594    15.994914619570
         O            2.900719184120    -0.662365449272     0.175003929406    15.994914619570
         O            0.904764184120    -2.714185449272    -0.061592070594    15.994914619570
         O           -3.424773815880    -0.875660449272     0.195364929406    15.994914619570
         C           -0.331429815880     1.264195550728    -0.232736070594    12.000000000000
         C            1.106555184120     1.015425550728     0.206753929406    12.000000000000
         C           -1.238252815880     0.137228550728     0.236785929406    12.000000000000
         C            1.571316184120    -0.369550449272    -0.217143070594    12.000000000000
         C            0.568509584120    -1.397041549272     0.296882629406    12.000000000000
         C           -2.657111815880     0.213830550728    -0.290941070594    12.000000000000
         H           -0.353044815880     1.314351550728    -1.327051070594     1.007825032230
         H            1.128107184120     1.055943550728     1.317131929406     1.007825032230
         H           -1.272330815880     0.114905550728     1.342014929406     1.007825032230
         H            1.571278184120    -0.414150449272    -1.314052070594     1.007825032230
         H            0.515467184120    -1.403080449272     1.391826929406     1.007825032230
         H           -2.619776815880     0.229595550728    -1.390484070594     1.007825032230
         H           -3.139112815880     1.132176550728     0.051059929406     1.007825032230
         H           -0.837124815880     2.523261550728     1.179332929406     1.007825032230
         H            1.496193184120     2.837374550728    -0.245383070594     1.007825032230
         H            2.992289184120    -0.441226449272     1.118879929406     1.007825032230
         H            1.243485184120    -2.700164449272    -0.974662070594     1.007825032230
         H           -2.902277815880    -1.670573449272    -0.018558070594     1.007825032230

  Basis Set: AUG-CC-PVTZ
    Blend: AUG-CC-PVTZ
  Basis Set: (AUG-CC-PVTZ AUX)
    Blend: AUG-CC-PVTZ-JKFIT
	 Reference Energy          =    -683.6030992569643558 [Eh]
	 Singles Energy            =      -0.0000000000000000 [Eh]
	 Same-Spin Energy          =      -0.6655281563518858 [Eh]
	 Opposite-Spin Energy      =      -2.0451936913506028 [Eh]
	 Correlation Energy        =      -2.7107218477024886 [Eh]
	 Total Energy              =    -686.3138211046668857 [Eh]

	 ================> DF-SCS-MP2 Energies <==================
	-----------------------------------------------------------
	 SCS Same-Spin Scale       =       0.3333333333333333 [-]
	 SCS Opposite-Spin Scale   =       1.2000000000000000 [-]
	 SCS Same-Spin Energy      =      -0.2218427187839619 [Eh]
	 SCS Opposite-Spin Energy  =      -2.4542324296207232 [Eh]
	 SCS Correlation Energy    =      -2.6760751484046850 [Eh]
	 SCS Total Energy          =    -686.2791744053690763 [Eh]
	-----------------------------------------------------------

  Dipole Moment: [D]
     X:     0.1680      Y:     1.7039      Z:     1.3885     Total:     2.2044

*** Psi4 exiting successfully. Buy a developer a beer!
