                               Psi4 1.3.2 release

  ==> Input File <==

--------------------------------------------------------------------------
#psi4
#
memory 32 gb

molecule  {
0 1
  O       -0.7087550    -1.1193400    -0.2546710
  O       -0.6740516     2.5842291     0.1533229
  O        1.9863450     1.9788980    -0.3426730
  O        2.9116540    -0.6744470     0.1695670
  O        0.9157630    -2.7262860    -0.0672430
  O       -3.4138550    -0.8877920     0.1899090
  C       -0.3205170     1.2520290    -0.2382820
  C        1.1174580     1.0033160     0.2012620
  C       -1.2273170     0.1250620     0.2312770
  C        1.5822600    -0.3816350    -0.2226430
  C        0.5842790    -1.4279170     0.2862350
  C       -2.6461720     0.2016390    -0.2964840
  H       -0.3421210     1.3021240    -1.3326030
  H        1.1389810     1.0438400     1.3116400
  H       -1.2614020     0.1027960     1.3365120
  H        1.5823060    -0.4261990    -1.3195550
  H        0.5265370    -1.4152780     1.3862880
  H       -2.6088310     0.2173240    -1.3960300
  H       -3.1281770     1.1200080     0.0454480
  H       -0.8264260     2.5110960     1.1737150
  H        1.5069660     2.8252470    -0.2509780
  H        3.0031740    -0.4532420     1.1134330
  H        1.2543330    -2.7122130    -0.9803670
  H       -2.8912910    -1.6827110    -0.0238270
units angstrom
no_reorient  #important for SAPT in psi4, default
symmetry c1  #important for SAPT in psi4, default
}

set PROPERTIES_ORIGIN ["COM"]
properties('MP2/aug-cc-pvtz', properties = ['dipole'])
--------------------------------------------------------------------------

    Molecular point group: c1
  Charge       = 0
  Multiplicity = 1
  Basis Set: AUG-CC-PVTZ
    Blend: AUG-CC-PVTZ
  Basis Set: (AUG-CC-PVTZ AUX)
    Blend: AUG-CC-PVTZ-JKFIT

    Orbital Energies [Eh]
    ---------------------

    Doubly Occupied:

       1A    -20.605766     2A    -20.590621     3A    -20.584018
       4A    -20.578188     5A    -20.574578     6A    -20.564026
       7A    -11.357156     8A    -11.310979     9A    -11.309412
      10A    -11.307689    11A    -11.303913    12A    -11.289206
      13A     -1.440911    14A     -1.401114    15A     -1.385606
      16A     -1.371841    17A     -1.362197    18A     -1.354182
      19A     -1.079302    20A     -1.051593    21A     -0.945317
      22A     -0.889029    23A     -0.854569    24A     -0.840543
      25A     -0.753172    26A     -0.730351    27A     -0.721003
      28A     -0.705518    29A     -0.689200    30A     -0.674683
      31A     -0.660312    32A     -0.654064    33A     -0.621705
      34A     -0.611715    35A     -0.598213    36A     -0.588011
      37A     -0.569875    38A     -0.561667    39A     -0.555782
      40A     -0.538385    41A     -0.529384    42A     -0.518318
      43A     -0.502965    44A     -0.487821    45A     -0.473526
      46A     -0.462500    47A     -0.445816    48A     -0.431958

  @DF-RHF Final Energy:  -683.59532743944760

   => Energetics <=

    Nuclear Repulsion Energy =            824.3257853085299303
    One-Electron Energy =               -2576.9668291426069118
    Two-Electron Energy =                1069.0457163946293804
    Total Energy =                       -683.5953274394476011
  Basis Set: (AUG-CC-PVTZ AUX)
    Blend: AUG-CC-PVTZ-RI
    Molecular point group: c1

    Geometry (in Angstrom), charge = 0, multiplicity = 1:

       Center              X                  Y                   Z               Mass
    ------------   -----------------  -----------------  -----------------  -----------------
         O           -0.727006158437    -1.109400423002    -0.244566456151    15.994914619570
         O           -0.692302758437     2.594168676998     0.163427443849    15.994914619570
         O            1.968093841563     1.988837576998    -0.332568456151    15.994914619570
         O            2.893402841563    -0.664507423002     0.179671543849    15.994914619570
         O            0.897511841563    -2.716346423002    -0.057138456151    15.994914619570
         O           -3.432106158437    -0.877852423002     0.200013543849    15.994914619570
         C           -0.338768158437     1.261968576998    -0.228177456151    12.000000000000
         C            1.099206841563     1.013255576998     0.211366543849    12.000000000000
         C           -1.245568158437     0.135001576998     0.241381543849    12.000000000000
         C            1.564008841563    -0.371695423002    -0.212538456151    12.000000000000
         C            0.566027841563    -1.417977423002     0.296339543849    12.000000000000
         C           -2.664423158437     0.211578576998    -0.286379456151    12.000000000000
         H           -0.360372158437     1.312063576998    -1.322498456151     1.007825032230
         H            1.120729841563     1.053779576998     1.321744543849     1.007825032230
         H           -1.279653158437     0.112735576998     1.346616543849     1.007825032230
         H            1.564054841563    -0.416259423002    -1.309450456151     1.007825032230
         H            0.508285841563    -1.405338423002     1.396392543849     1.007825032230
         H           -2.627082158437     0.227263576998    -1.385925456151     1.007825032230
         H           -3.146428158437     1.129947576998     0.055552543849     1.007825032230
         H           -0.844677158437     2.521035576998     1.183819543849     1.007825032230
         H            1.488714841563     2.835186576998    -0.240873456151     1.007825032230
         H            2.984922841563    -0.443302423002     1.123537543849     1.007825032230
         H            1.236081841563    -2.702273423002    -0.970262456151     1.007825032230
         H           -2.909542158437    -1.672771423002    -0.013722456151     1.007825032230

  Basis Set: AUG-CC-PVTZ
    Blend: AUG-CC-PVTZ
  Basis Set: (AUG-CC-PVTZ AUX)
    Blend: AUG-CC-PVTZ-JKFIT
	 Reference Energy          =    -683.5953274394476011 [Eh]
	 Singles Energy            =      -0.0000000000000000 [Eh]
	 Same-Spin Energy          =      -0.6664950851438584 [Eh]
	 Opposite-Spin Energy      =      -2.0473200078913054 [Eh]
	 Correlation Energy        =      -2.7138150930351639 [Eh]
	 Total Energy              =    -686.3091425324827242 [Eh]

	 ================> DF-SCS-MP2 Energies <==================
	-----------------------------------------------------------
	 SCS Same-Spin Scale       =       0.3333333333333333 [-]
	 SCS Opposite-Spin Scale   =       1.2000000000000000 [-]
	 SCS Same-Spin Energy      =      -0.2221650283812861 [Eh]
	 SCS Opposite-Spin Energy  =      -2.4567840094695663 [Eh]
	 SCS Correlation Energy    =      -2.6789490378508525 [Eh]
	 SCS Total Energy          =    -686.2742764772984856 [Eh]
	-----------------------------------------------------------

  Dipole Moment: [D]
     X:    -0.0025      Y:     1.5308      Z:     1.4132     Total:     2.0834

*** Psi4 exiting successfully. Buy a developer a beer!
