                               Psi4 1.3.2 release

  ==> Input File <==

--------------------------------------------------------------------------
#psi4
#
memory 32 gb

molecule  {
0 1
  O       -0.7087550    -1.1193400    -0.2546710
  O       -0.7529000     2.5454980     0.2011280
  O        2.0053718     1.9679513    -0.3313523
  O        2.9116540    -0.6744470     0.1695670
  O        0.9157630    -2.7262860    -0.0672430
  O       -3.4138550    -0.8877920     0.1899090
  C       -0.3205170     1.2520290    -0.2382820
  C        1.1174580     1.0033160     0.2012620
  C       -1.2273170     0.1250620     0.2312770
  C        1.5822600    -0.3816350    -0.2226430
  C        0.5842790    -1.4279170     0.2862350
  C       -2.6461720     0.2016390    -0.2964840
  H       -0.3421210     1.3021240    -1.3326030
  H        1.1389810     1.0438400     1.3116400
  H       -1.2614020     0.1027960     1.3365120
  H        1.5823060    -0.4261990    -1.3195550
  H        0.5265370    -1.4152780     1.3862880
  H       -2.6088310     0.2173240    -1.3960300
  H       -3.1281770     1.1200080     0.0454480
  H       -0.8264260     2.5110960     1.1737150
  H        1.5069660     2.8252470    -0.2509780
  H        3.0031740    -0.4532420     1.1134330
  H        1.2543330    -2.7122130    -0.9803670
  H       -2.8912910    -1.6827110    -0.0238270
units angstrom
no_reorient  #important for SAPT in psi4, default
symmetry c1  #important for SAPT in psi4, default
}

set PROPERTIES_ORIGIN ["COM"]
properties('MP2/aug-cc-pvtz', properties = ['dipole'])
--------------------------------------------------------------------------

    Molecular point group: c1
  Charge       = 0
  Multiplicity = 1
  Basis Set: AUG-CC-PVTZ
    Blend: AUG-CC-PVTZ
  Basis Set: (AUG-CC-PVTZ AUX)
    Blend: AUG-CC-PVTZ-JKFIT

    Orbital Energies [Eh]
    ---------------------

    Doubly Occupied:

       1A    -20.598777     2A    -20.588600     3A    -20.583559
       4A    -20.579426     5A    -20.578906     6A    -20.562919
       7A    -11.356607     8A    -11.311092     9A    -11.309371
      10A    -11.308428    11A    -11.304594    12A    -11.287564
      13A     -1.440103    14A     -1.404397    15A     -1.387449
      16A     -1.372580    17A     -1.364158    18A     -1.353108
      19A     -1.080535    20A     -1.050886    21A     -0.946038
      22A     -0.890603    23A     -0.853959    24A     -0.842475
      25A     -0.753192    26A     -0.729082    27A     -0.720573
      28A     -0.710192    29A     -0.693380    30A     -0.674516
      31A     -0.659649    32A     -0.652253    33A     -0.620326
      34A     -0.615624    35A     -0.598135    36A     -0.587282
      37A     -0.570387    38A     -0.561771    39A     -0.556325
      40A     -0.544034    41A     -0.527442    42A     -0.516770
      43A     -0.502685    44A     -0.487182    45A     -0.473435
      46A     -0.462350    47A     -0.446655    48A     -0.431148

  @DF-RHF Final Energy:  -683.60218816511713

   => Energetics <=

    Nuclear Repulsion Energy =            824.5321041353408873
    One-Electron Energy =               -2577.3675331088388702
    Two-Electron Energy =                1069.2332408083807422
    Total Energy =                       -683.6021881651172407
  Basis Set: (AUG-CC-PVTZ AUX)
    Blend: AUG-CC-PVTZ-RI
    Molecular point group: c1

    Geometry (in Angstrom), charge = 0, multiplicity = 1:

       Center              X                  Y                   Z               Mass
    ------------   -----------------  -----------------  -----------------  -----------------
         O           -0.721692244296    -1.104987576071    -0.249818562827    15.994914619570
         O           -0.765837244296     2.559850423929     0.205980437173    15.994914619570
         O            1.992434555704     1.982303723929    -0.326499862827    15.994914619570
         O            2.898716755704    -0.660094576071     0.174419437173    15.994914619570
         O            0.902825755704    -2.711933576071    -0.062390562827    15.994914619570
         O           -3.426792244296    -0.873439576071     0.194761437173    15.994914619570
         C           -0.333454244296     1.266381423929    -0.233429562827    12.000000000000
         C            1.104520755704     1.017668423929     0.206114437173    12.000000000000
         C           -1.240254244296     0.139414423929     0.236129437173    12.000000000000
         C            1.569322755704    -0.367282576071    -0.217790562827    12.000000000000
         C            0.571341755704    -1.413564576071     0.291087437173    12.000000000000
         C           -2.659109244296     0.215991423929    -0.291631562827    12.000000000000
         H           -0.355058244296     1.316476423929    -1.327750562827     1.007825032230
         H            1.126043755704     1.058192423929     1.316492437173     1.007825032230
         H           -1.274339244296     0.117148423929     1.341364437173     1.007825032230
         H            1.569368755704    -0.411846576071    -1.314702562827     1.007825032230
         H            0.513599755704    -1.400925576071     1.391140437173     1.007825032230
         H           -2.621768244296     0.231676423929    -1.391177562827     1.007825032230
         H           -3.141114244296     1.134360423929     0.050300437173     1.007825032230
         H           -0.839363244296     2.525448423929     1.178567437173     1.007825032230
         H            1.494028755704     2.839599423929    -0.246125562827     1.007825032230
         H            2.990236755704    -0.438889576071     1.118285437173     1.007825032230
         H            1.241395755704    -2.697860576071    -0.975514562827     1.007825032230
         H           -2.904228244296    -1.668358576071    -0.018974562827     1.007825032230

  Basis Set: AUG-CC-PVTZ
    Blend: AUG-CC-PVTZ
  Basis Set: (AUG-CC-PVTZ AUX)
    Blend: AUG-CC-PVTZ-JKFIT
	 Reference Energy          =    -683.6021881651171270 [Eh]
	 Singles Energy            =      -0.0000000000000000 [Eh]
	 Same-Spin Energy          =      -0.6657449052745271 [Eh]
	 Opposite-Spin Energy      =      -2.0455532169006609 [Eh]
	 Correlation Energy        =      -2.7112981221751880 [Eh]
	 Total Energy              =    -686.3134862872923350 [Eh]

	 ================> DF-SCS-MP2 Energies <==================
	-----------------------------------------------------------
	 SCS Same-Spin Scale       =       0.3333333333333333 [-]
	 SCS Opposite-Spin Scale   =       1.2000000000000000 [-]
	 SCS Same-Spin Energy      =      -0.2219149684248424 [Eh]
	 SCS Opposite-Spin Energy  =      -2.4546638602807929 [Eh]
	 SCS Correlation Energy    =      -2.6765788287056353 [Eh]
	 SCS Total Energy          =    -686.2787669938227282 [Eh]
	-----------------------------------------------------------

  Dipole Moment: [D]
     X:     0.1804      Y:     1.6185      Z:     1.3422     Total:     2.1103

*** Psi4 exiting successfully. Buy a developer a beer!
