                               Psi4 1.3.2 release

  ==> Input File <==

--------------------------------------------------------------------------
#psi4
#
memory 32 gb

molecule  {
0 1
  O       -0.6937772    -0.9835655    -0.1921583
  O       -0.7529000     2.5454980     0.2011280
  O        1.9863450     1.9788980    -0.3426730
  O        2.9116540    -0.6744470     0.1695670
  O        0.9157630    -2.7262860    -0.0672430
  O       -3.4138550    -0.8877920     0.1899090
  C       -0.3205170     1.2520290    -0.2382820
  C        1.1174580     1.0033160     0.2012620
  C       -1.2273170     0.1250620     0.2312770
  C        1.5822600    -0.3816350    -0.2226430
  C        0.5842790    -1.4279170     0.2862350
  C       -2.6461720     0.2016390    -0.2964840
  H       -0.3421210     1.3021240    -1.3326030
  H        1.1389810     1.0438400     1.3116400
  H       -1.2614020     0.1027960     1.3365120
  H        1.5823060    -0.4261990    -1.3195550
  H        0.5265370    -1.4152780     1.3862880
  H       -2.6088310     0.2173240    -1.3960300
  H       -3.1281770     1.1200080     0.0454480
  H       -0.8264260     2.5110960     1.1737150
  H        1.5069660     2.8252470    -0.2509780
  H        3.0031740    -0.4532420     1.1134330
  H        1.2543330    -2.7122130    -0.9803670
  H       -2.8912910    -1.6827110    -0.0238270
units angstrom
no_reorient  #important for SAPT in psi4, default
symmetry c1  #important for SAPT in psi4, default
}

set PROPERTIES_ORIGIN ["COM"]
properties('MP2/aug-cc-pvtz', properties = ['dipole'])
--------------------------------------------------------------------------

    Molecular point group: c1
  Charge       = 0
  Multiplicity = 1
  Basis Set: AUG-CC-PVTZ
    Blend: AUG-CC-PVTZ
  Basis Set: (AUG-CC-PVTZ AUX)
    Blend: AUG-CC-PVTZ-JKFIT

    Orbital Energies [Eh]
    ---------------------

    Doubly Occupied:

       1A    -20.595646     2A    -20.590809     3A    -20.582558
       4A    -20.578618     5A    -20.575799     6A    -20.562674
       7A    -11.365436     8A    -11.307790     9A    -11.305391
      10A    -11.301446    11A    -11.297088    12A    -11.283233
      13A     -1.468436    14A     -1.400966    15A     -1.399120
      16A     -1.378929    17A     -1.364269    18A     -1.359989
      19A     -1.073677    20A     -1.060981    21A     -0.944901
      22A     -0.896993    23A     -0.856651    24A     -0.843015
      25A     -0.764301    26A     -0.736442    27A     -0.723179
      28A     -0.713015    29A     -0.701967    30A     -0.677148
      31A     -0.667946    32A     -0.656406    33A     -0.619339
      34A     -0.615459    35A     -0.596568    36A     -0.591618
      37A     -0.574231    38A     -0.562730    39A     -0.553891
      40A     -0.542667    41A     -0.532072    42A     -0.524786
      43A     -0.501113    44A     -0.482983    45A     -0.469072
      46A     -0.457784    47A     -0.443183    48A     -0.420354

  @DF-RHF Final Energy:  -683.59214428297264

   => Energetics <=

    Nuclear Repulsion Energy =            828.5187123663955617
    One-Electron Energy =               -2585.1763674596372766
    Two-Electron Energy =                1073.0655108102691884
    Total Energy =                       -683.5921442829726402
  Basis Set: (AUG-CC-PVTZ AUX)
    Blend: AUG-CC-PVTZ-RI
    Molecular point group: c1

    Geometry (in Angstrom), charge = 0, multiplicity = 1:

       Center              X                  Y                   Z               Mass
    ------------   -----------------  -----------------  -----------------  -----------------
         O           -0.706354774237    -0.982246225628    -0.191853215167    15.994914619570
         O           -0.765477574237     2.546817274372     0.201433084833    15.994914619570
         O            1.973767425763     1.980217274372    -0.342367915167    15.994914619570
         O            2.899076425763    -0.673127725628     0.169872084833    15.994914619570
         O            0.903185425763    -2.724966725628    -0.066937915167    15.994914619570
         O           -3.426432574237    -0.886472725628     0.190214084833    15.994914619570
         C           -0.333094574237     1.253348274372    -0.237976915167    12.000000000000
         C            1.104880425763     1.004635274372     0.201567084833    12.000000000000
         C           -1.239894574237     0.126381274372     0.231582084833    12.000000000000
         C            1.569682425763    -0.380315725628    -0.222337915167    12.000000000000
         C            0.571701425763    -1.426597725628     0.286540084833    12.000000000000
         C           -2.658749574237     0.202958274372    -0.296178915167    12.000000000000
         H           -0.354698574237     1.303443274372    -1.332297915167     1.007825032230
         H            1.126403425763     1.045159274372     1.311945084833     1.007825032230
         H           -1.273979574237     0.104115274372     1.336817084833     1.007825032230
         H            1.569728425763    -0.424879725628    -1.319249915167     1.007825032230
         H            0.513959425763    -1.413958725628     1.386593084833     1.007825032230
         H           -2.621408574237     0.218643274372    -1.395724915167     1.007825032230
         H           -3.140754574237     1.121327274372     0.045753084833     1.007825032230
         H           -0.839003574237     2.512415274372     1.174020084833     1.007825032230
         H            1.494388425763     2.826566274372    -0.250672915167     1.007825032230
         H            2.990596425763    -0.451922725628     1.113738084833     1.007825032230
         H            1.241755425763    -2.710893725628    -0.980061915167     1.007825032230
         H           -2.903868574237    -1.681391725628    -0.023521915167     1.007825032230

  Basis Set: AUG-CC-PVTZ
    Blend: AUG-CC-PVTZ
  Basis Set: (AUG-CC-PVTZ AUX)
    Blend: AUG-CC-PVTZ-JKFIT
	 Reference Energy          =    -683.5921442829726402 [Eh]
	 Singles Energy            =      -0.0000000000000000 [Eh]
	 Same-Spin Energy          =      -0.6652732522987042 [Eh]
	 Opposite-Spin Energy      =      -2.0419541641417185 [Eh]
	 Correlation Energy        =      -2.7072274164404226 [Eh]
	 Total Energy              =    -686.2993716994130864 [Eh]

	 ================> DF-SCS-MP2 Energies <==================
	-----------------------------------------------------------
	 SCS Same-Spin Scale       =       0.3333333333333333 [-]
	 SCS Opposite-Spin Scale   =       1.2000000000000000 [-]
	 SCS Same-Spin Energy      =      -0.2217577507662347 [Eh]
	 SCS Opposite-Spin Energy  =      -2.4503449969700619 [Eh]
	 SCS Correlation Energy    =      -2.6721027477362966 [Eh]
	 SCS Total Energy          =    -686.2642470307089297 [Eh]
	-----------------------------------------------------------

  Dipole Moment: [D]
     X:     0.3454      Y:     1.0291      Z:     1.1881     Total:     1.6093

*** Psi4 exiting successfully. Buy a developer a beer!
