                               Psi4 1.3.2 release

  ==> Input File <==

--------------------------------------------------------------------------
#psi4
#
memory 32 gb

molecule  {
0 1
  O       -0.7087550    -1.1193400    -0.2546710
  O       -0.7529000     2.5454980     0.2011280
  O        1.9863450     1.9788980    -0.3426730
  O        2.9116540    -0.6744470     0.1695670
  O        0.9157630    -2.7262860    -0.0672430
  O       -3.4138550    -0.8877920     0.1899090
  C       -0.3205170     1.2520290    -0.2382820
  C        1.1174580     1.0033160     0.2012620
  C       -1.2273170     0.1250620     0.2312770
  C        1.5822600    -0.3816350    -0.2226430
  C        0.5364408    -1.2405424     0.3372473
  C       -2.6461720     0.2016390    -0.2964840
  H       -0.3421210     1.3021240    -1.3326030
  H        1.1389810     1.0438400     1.3116400
  H       -1.2614020     0.1027960     1.3365120
  H        1.5823060    -0.4261990    -1.3195550
  H        0.5265370    -1.4152780     1.3862880
  H       -2.6088310     0.2173240    -1.3960300
  H       -3.1281770     1.1200080     0.0454480
  H       -0.8264260     2.5110960     1.1737150
  H        1.5069660     2.8252470    -0.2509780
  H        3.0031740    -0.4532420     1.1134330
  H        1.2543330    -2.7122130    -0.9803670
  H       -2.8912910    -1.6827110    -0.0238270
units angstrom
no_reorient  #important for SAPT in psi4, default
symmetry c1  #important for SAPT in psi4, default
}

set PROPERTIES_ORIGIN ["COM"]
properties('MP2/aug-cc-pvtz', properties = ['dipole'])
--------------------------------------------------------------------------

    Molecular point group: c1
  Charge       = 0
  Multiplicity = 1
  Basis Set: AUG-CC-PVTZ
    Blend: AUG-CC-PVTZ
  Basis Set: (AUG-CC-PVTZ AUX)
    Blend: AUG-CC-PVTZ-JKFIT

    Orbital Energies [Eh]
    ---------------------

    Doubly Occupied:

       1A    -20.609198     2A    -20.604459     3A    -20.584255
       4A    -20.580130     5A    -20.568242     6A    -20.549905
       7A    -11.360889     8A    -11.317696     9A    -11.315813
      10A    -11.313057    11A    -11.309185    12A    -11.292897
      13A     -1.454016    14A     -1.409625    15A     -1.391743
      16A     -1.370754    17A     -1.367777    18A     -1.303132
      19A     -1.097506    20A     -1.066054    21A     -0.955186
      22A     -0.893472    23A     -0.858383    24A     -0.853401
      25A     -0.754520    26A     -0.743647    27A     -0.727551
      28A     -0.703937    29A     -0.696163    30A     -0.677805
      31A     -0.655229    32A     -0.648167    33A     -0.625928
      34A     -0.611076    35A     -0.598900    36A     -0.587080
      37A     -0.571601    38A     -0.570680    39A     -0.553709
      40A     -0.546344    41A     -0.518613    42A     -0.512667
      43A     -0.507676    44A     -0.484406    45A     -0.471182
      46A     -0.467773    47A     -0.447531    48A     -0.442692

  @DF-RHF Final Energy:  -683.56444124984262

   => Energetics <=

    Nuclear Repulsion Energy =            826.2767661813376208
    One-Electron Energy =               -2580.5791029562101357
    Two-Electron Energy =                1070.7378955250298986
    Total Energy =                       -683.5644412498425027
  Basis Set: (AUG-CC-PVTZ AUX)
    Blend: AUG-CC-PVTZ-RI
    Molecular point group: c1

    Geometry (in Angstrom), charge = 0, multiplicity = 1:

       Center              X                  Y                   Z               Mass
    ------------   -----------------  -----------------  -----------------  -----------------
         O           -0.716814015297    -1.118447206912    -0.252212575150    15.994914619570
         O           -0.760959015297     2.546390793088     0.203586424850    15.994914619570
         O            1.978285984703     1.979790793088    -0.340214575150    15.994914619570
         O            2.903594984703    -0.673554206912     0.172025424850    15.994914619570
         O            0.907703984703    -2.725393206912    -0.064784575150    15.994914619570
         O           -3.421914015297    -0.886899206912     0.192367424850    15.994914619570
         C           -0.328576015297     1.252921793088    -0.235823575150    12.000000000000
         C            1.109398984703     1.004208793088     0.203720424850    12.000000000000
         C           -1.235376015297     0.125954793088     0.233735424850    12.000000000000
         C            1.574200984703    -0.380742206912    -0.220184575150    12.000000000000
         C            0.528381784703    -1.239649606912     0.339705724850    12.000000000000
         C           -2.654231015297     0.202531793088    -0.294025575150    12.000000000000
         H           -0.350180015297     1.303016793088    -1.330144575150     1.007825032230
         H            1.130921984703     1.044732793088     1.314098424850     1.007825032230
         H           -1.269461015297     0.103688793088     1.338970424850     1.007825032230
         H            1.574246984703    -0.425306206912    -1.317096575150     1.007825032230
         H            0.518477984703    -1.414385206912     1.388746424850     1.007825032230
         H           -2.616890015297     0.218216793088    -1.393571575150     1.007825032230
         H           -3.136236015297     1.120900793088     0.047906424850     1.007825032230
         H           -0.834485015297     2.511988793088     1.176173424850     1.007825032230
         H            1.498906984703     2.826139793088    -0.248519575150     1.007825032230
         H            2.995114984703    -0.452349206912     1.115891424850     1.007825032230
         H            1.246273984703    -2.711320206912    -0.977908575150     1.007825032230
         H           -2.899350015297    -1.681818206912    -0.021368575150     1.007825032230

  Basis Set: AUG-CC-PVTZ
    Blend: AUG-CC-PVTZ
  Basis Set: (AUG-CC-PVTZ AUX)
    Blend: AUG-CC-PVTZ-JKFIT
	 Reference Energy          =    -683.5644412498426163 [Eh]
	 Singles Energy            =      -0.0000000000000000 [Eh]
	 Same-Spin Energy          =      -0.6679275560379276 [Eh]
	 Opposite-Spin Energy      =      -2.0510229082449287 [Eh]
	 Correlation Energy        =      -2.7189504642828561 [Eh]
	 Total Energy              =    -686.2833917141255142 [Eh]

	 ================> DF-SCS-MP2 Energies <==================
	-----------------------------------------------------------
	 SCS Same-Spin Scale       =       0.3333333333333333 [-]
	 SCS Opposite-Spin Scale   =       1.2000000000000000 [-]
	 SCS Same-Spin Energy      =      -0.2226425186793092 [Eh]
	 SCS Opposite-Spin Energy  =      -2.4612274898939144 [Eh]
	 SCS Correlation Energy    =      -2.6838700085732237 [Eh]
	 SCS Total Energy          =    -686.2483112584158107 [Eh]
	-----------------------------------------------------------

  Dipole Moment: [D]
     X:    -0.2264      Y:     2.5488      Z:     1.5293     Total:     2.9810

*** Psi4 exiting successfully. Buy a developer a beer!
