                               Psi4 1.4a3.dev225

  ==> Input File <==

--------------------------------------------------------------------------
#psi4
#
memory 32 gb

molecule  {
0 1
  O       -0.7087730    -1.1193010    -0.2547420
  O       -0.7528450     2.5455330     0.2012150
  O        1.9863940     1.9788490    -0.3427120
  O        2.9116460    -0.6744970     0.1694850
  O        0.9156910    -2.7263170    -0.0671110
  O       -3.4138470    -0.8877920     0.1898460
  C       -0.3205030     1.2520640    -0.2382550
  C        1.0867812     0.9688253     0.2204540
  C       -1.2273260     0.1250970     0.2312670
  C        1.5822430    -0.3816820    -0.2226620
  C        0.5842200    -1.4279110     0.2862640
  C       -2.6461850     0.2016990    -0.2964600
  H       -0.3421180     1.3022200    -1.3325700
  H        1.1390340     1.0438120     1.3116130
  H       -1.2614040     0.1027740     1.3364960
  H        1.5822050    -0.4262820    -1.3195710
  H        0.5263940    -1.4152120     1.3863080
  H       -2.6088500     0.2174640    -1.3960030
  H       -3.1281860     1.1200450     0.0455410
  H       -0.8261980     2.5111300     1.1738140
  H        1.5071200     2.8252430    -0.2509020
  H        3.0032160    -0.4533580     1.1133610
  H        1.2544120    -2.7122960    -0.9801810
  H       -2.8913510    -1.6827050    -0.0240770
units angstrom
no_reorient  #important for SAPT in psi4, default
symmetry c1  #important for SAPT in psi4, default
}

set PROPERTIES_ORIGIN ["COM"]
properties('MP2/aug-cc-pvtz', properties = ['dipole'])
--------------------------------------------------------------------------

    Molecular point group: c1
  Charge       = 0
  Multiplicity = 1
  Basis Set: AUG-CC-PVTZ
    Blend: AUG-CC-PVTZ
  Basis Set: (AUG-CC-PVTZ AUX)
    Blend: AUG-CC-PVTZ-JKFIT

    Orbital Energies [Eh]
    ---------------------

    Doubly Occupied:

       1A    -20.599498     2A    -20.589653     3A    -20.584016
       4A    -20.580811     5A    -20.571946     6A    -20.562998
       7A    -11.357294     8A    -11.311730     9A    -11.309483
      10A    -11.308348    11A    -11.306283    12A    -11.287552
      13A     -1.441083    14A     -1.402408    15A     -1.386596
      16A     -1.372343    17A     -1.355072    18A     -1.351930
      19A     -1.087414    20A     -1.053399    21A     -0.948145
      22A     -0.891536    23A     -0.855398    24A     -0.844300
      25A     -0.753016    26A     -0.729709    27A     -0.719190
      28A     -0.711995    29A     -0.694720    30A     -0.674356
      31A     -0.659446    32A     -0.648044    33A     -0.620152
      34A     -0.616073    35A     -0.597890    36A     -0.587541
      37A     -0.565727    38A     -0.560513    39A     -0.555573
      40A     -0.540672    41A     -0.527908    42A     -0.517477
      43A     -0.506897    44A     -0.487895    45A     -0.478333
      46A     -0.464873    47A     -0.448725    48A     -0.430609

  @DF-RHF Final Energy:  -683.60041840251597

   => Energetics <=

    Nuclear Repulsion Energy =            824.9500362030831866
    One-Electron Energy =               -2578.1877632598511809
    Two-Electron Energy =                1069.6373086542521378
    Total Energy =                       -683.6004184025159702
  Basis Set: (AUG-CC-PVTZ AUX)
    Blend: AUG-CC-PVTZ-RI
    Molecular point group: c1

    Geometry (in Angstrom), charge = 0, multiplicity = 1:

       Center              X                  Y                   Z               Mass
    ------------   -----------------  -----------------  -----------------  -----------------
         O           -0.717972610793    -1.103623591301    -0.250164025897    15.994914619570
         O           -0.762044610793     2.561210408699     0.205792974103    15.994914619570
         O            1.977194389207     1.994526408699    -0.338134025897    15.994914619570
         O            2.902446389207    -0.658819591301     0.174062974103    15.994914619570
         O            0.906491389207    -2.710639591301    -0.062533025897    15.994914619570
         O           -3.423046610793    -0.872114591301     0.194423974103    15.994914619570
         C           -0.329702610793     1.267741408699    -0.233677025897    12.000000000000
         C            1.077581589207     0.984502708699     0.225031974103    12.000000000000
         C           -1.236525610793     0.140774408699     0.235844974103    12.000000000000
         C            1.573043389207    -0.366004591301    -0.218084025897    12.000000000000
         C            0.575020389207    -1.412233591301     0.290841974103    12.000000000000
         C           -2.655384610793     0.217376408699    -0.291882025897    12.000000000000
         H           -0.351317610793     1.317897408699    -1.327992025897     1.007825032230
         H            1.129834389207     1.059489408699     1.316190974103     1.007825032230
         H           -1.270603610793     0.118451408699     1.341073974103     1.007825032230
         H            1.573005389207    -0.410604591301    -1.314993025897     1.007825032230
         H            0.517194389207    -1.399534591301     1.390885974103     1.007825032230
         H           -2.618049610793     0.233141408699    -1.391425025897     1.007825032230
         H           -3.137385610793     1.135722408699     0.050118974103     1.007825032230
         H           -0.835397610793     2.526807408699     1.178391974103     1.007825032230
         H            1.497920389207     2.840920408699    -0.246324025897     1.007825032230
         H            2.994016389207    -0.437680591301     1.117938974103     1.007825032230
         H            1.245212389207    -2.696618591301    -0.975603025897     1.007825032230
         H           -2.900550610793    -1.667027591301    -0.019499025897     1.007825032230

  Basis Set: AUG-CC-PVTZ
    Blend: AUG-CC-PVTZ
  Basis Set: (AUG-CC-PVTZ AUX)
    Blend: AUG-CC-PVTZ-JKFIT
	 Reference Energy          =    -683.6004184025159702 [Eh]
	 Singles Energy            =      -0.0000000000000000 [Eh]
	 Same-Spin Energy          =      -0.6658214212865080 [Eh]
	 Opposite-Spin Energy      =      -2.0460040291557280 [Eh]
	 Correlation Energy        =      -2.7118254504422361 [Eh]
	 Total Energy              =    -686.3122438529582041 [Eh]

	 ================> DF-SCS-MP2 Energies <==================
	-----------------------------------------------------------
	 SCS Same-Spin Scale       =       0.3333333333333333 [-]
	 SCS Opposite-Spin Scale   =       1.2000000000000000 [-]
	 SCS Same-Spin Energy      =      -0.2219404737621693 [Eh]
	 SCS Opposite-Spin Energy  =      -2.4552048349868736 [Eh]
	 SCS Correlation Energy    =      -2.6771453087490431 [Eh]
	 SCS Total Energy          =    -686.2775637112649747 [Eh]
	-----------------------------------------------------------

  Dipole Moment: [D]
     X:     0.1288      Y:     1.4767      Z:     1.4384     Total:     2.0655

*** Psi4 exiting successfully. Buy a developer a beer!
