                               Psi4 1.3.2 release

  ==> Input File <==

--------------------------------------------------------------------------
#psi4
#
memory 32 gb

molecule  {
0 1
  O       -0.7263414    -1.1151980    -0.2079481
  O       -0.7529000     2.5454980     0.2011280
  O        1.9863450     1.9788980    -0.3426730
  O        2.9116540    -0.6744470     0.1695670
  O        0.9157630    -2.7262860    -0.0672430
  O       -3.4138550    -0.8877920     0.1899090
  C       -0.3205170     1.2520290    -0.2382820
  C        1.1174580     1.0033160     0.2012620
  C       -1.2273170     0.1250620     0.2312770
  C        1.5822600    -0.3816350    -0.2226430
  C        0.5842790    -1.4279170     0.2862350
  C       -2.6461720     0.2016390    -0.2964840
  H       -0.3421210     1.3021240    -1.3326030
  H        1.1389810     1.0438400     1.3116400
  H       -1.2614020     0.1027960     1.3365120
  H        1.5823060    -0.4261990    -1.3195550
  H        0.5265370    -1.4152780     1.3862880
  H       -2.6088310     0.2173240    -1.3960300
  H       -3.1281770     1.1200080     0.0454480
  H       -0.8264260     2.5110960     1.1737150
  H        1.5069660     2.8252470    -0.2509780
  H        3.0031740    -0.4532420     1.1134330
  H        1.2543330    -2.7122130    -0.9803670
  H       -2.8912910    -1.6827110    -0.0238270
units angstrom
no_reorient  #important for SAPT in psi4, default
symmetry c1  #important for SAPT in psi4, default
}

set PROPERTIES_ORIGIN ["COM"]
properties('MP2/aug-cc-pvtz', properties = ['dipole'])
--------------------------------------------------------------------------

    Molecular point group: c1
  Charge       = 0
  Multiplicity = 1
  Basis Set: AUG-CC-PVTZ
    Blend: AUG-CC-PVTZ
  Basis Set: (AUG-CC-PVTZ AUX)
    Blend: AUG-CC-PVTZ-JKFIT

    Orbital Energies [Eh]
    ---------------------

    Doubly Occupied:

       1A    -20.598041     2A    -20.587555     3A    -20.585772
       4A    -20.580223     5A    -20.577536     6A    -20.561933
       7A    -11.358122     8A    -11.310270     9A    -11.309631
      10A    -11.306427    11A    -11.305706    12A    -11.286368
      13A     -1.443647    14A     -1.404980    15A     -1.389331
      16A     -1.374538    17A     -1.366224    18A     -1.354609
      19A     -1.080678    20A     -1.052266    21A     -0.945652
      22A     -0.892925    23A     -0.855731    24A     -0.841596
      25A     -0.754911    26A     -0.730867    27A     -0.722039
      28A     -0.711255    29A     -0.694180    30A     -0.675068
      31A     -0.661976    32A     -0.655714    33A     -0.620306
      34A     -0.616680    35A     -0.597414    36A     -0.587978
      37A     -0.571455    38A     -0.563084    39A     -0.556404
      40A     -0.544021    41A     -0.527591    42A     -0.517067
      43A     -0.502196    44A     -0.487117    45A     -0.473767
      46A     -0.461620    47A     -0.445112    48A     -0.430969

  @DF-RHF Final Energy:  -683.60422919888913

   => Energetics <=

    Nuclear Repulsion Energy =            825.0541520784208842
    One-Electron Energy =               -2578.3596560404262164
    Two-Electron Energy =                1069.7012747631163165
    Total Energy =                       -683.6042291988890156
  Basis Set: (AUG-CC-PVTZ AUX)
    Blend: AUG-CC-PVTZ-RI
    Molecular point group: c1

    Geometry (in Angstrom), charge = 0, multiplicity = 1:

       Center              X                  Y                   Z               Mass
    ------------   -----------------  -----------------  -----------------  -----------------
         O           -0.736026317356    -1.102185895560    -0.206240417417    15.994914619570
         O           -0.762584917356     2.558510104440     0.202835682583    15.994914619570
         O            1.976660082644     1.991910104440    -0.340965317417    15.994914619570
         O            2.901969082644    -0.661434895560     0.171274682583    15.994914619570
         O            0.906078082644    -2.713273895560    -0.065535317417    15.994914619570
         O           -3.423539917356    -0.874779895560     0.191616682583    15.994914619570
         C           -0.330201917356     1.265041104440    -0.236574317417    12.000000000000
         C            1.107773082644     1.016328104440     0.202969682583    12.000000000000
         C           -1.237001917356     0.138074104440     0.232984682583    12.000000000000
         C            1.572575082644    -0.368622895560    -0.220935317417    12.000000000000
         C            0.574594082644    -1.414904895560     0.287942682583    12.000000000000
         C           -2.655856917356     0.214651104440    -0.294776317417    12.000000000000
         H           -0.351805917356     1.315136104440    -1.330895317417     1.007825032230
         H            1.129296082644     1.056852104440     1.313347682583     1.007825032230
         H           -1.271086917356     0.115808104440     1.338219682583     1.007825032230
         H            1.572621082644    -0.413186895560    -1.317847317417     1.007825032230
         H            0.516852082644    -1.402265895560     1.387995682583     1.007825032230
         H           -2.618515917356     0.230336104440    -1.394322317417     1.007825032230
         H           -3.137861917356     1.133020104440     0.047155682583     1.007825032230
         H           -0.836110917356     2.524108104440     1.175422682583     1.007825032230
         H            1.497281082644     2.838259104440    -0.249270317417     1.007825032230
         H            2.993489082644    -0.440229895560     1.115140682583     1.007825032230
         H            1.244648082644    -2.699200895560    -0.978659317417     1.007825032230
         H           -2.900975917356    -1.669698895560    -0.022119317417     1.007825032230

  Basis Set: AUG-CC-PVTZ
    Blend: AUG-CC-PVTZ
  Basis Set: (AUG-CC-PVTZ AUX)
    Blend: AUG-CC-PVTZ-JKFIT
	 Reference Energy          =    -683.6042291988891293 [Eh]
	 Singles Energy            =      -0.0000000000000000 [Eh]
	 Same-Spin Energy          =      -0.6653309444553690 [Eh]
	 Opposite-Spin Energy      =      -2.0441563061133174 [Eh]
	 Correlation Energy        =      -2.7094872505686864 [Eh]
	 Total Energy              =    -686.3137164494578428 [Eh]

	 ================> DF-SCS-MP2 Energies <==================
	-----------------------------------------------------------
	 SCS Same-Spin Scale       =       0.3333333333333333 [-]
	 SCS Opposite-Spin Scale   =       1.2000000000000000 [-]
	 SCS Same-Spin Energy      =      -0.2217769814851230 [Eh]
	 SCS Opposite-Spin Energy  =      -2.4529875673359807 [Eh]
	 SCS Correlation Energy    =      -2.6747645488211038 [Eh]
	 SCS Total Energy          =    -686.2789937477102740 [Eh]
	-----------------------------------------------------------

  Dipole Moment: [D]
     X:     0.2980      Y:     1.5524      Z:     1.2803     Total:     2.0341

*** Psi4 exiting successfully. Buy a developer a beer!
