                               Psi4 1.4a3.dev225

  ==> Input File <==

--------------------------------------------------------------------------
#psi4
#
memory 32 gb

molecule  {
0 1
  O       -0.7087730    -1.1193010    -0.2547420
  O       -0.7528450     2.5455330     0.2012150
  O        1.9863940     1.9788490    -0.3427120
  O        2.9116460    -0.6744970     0.1694850
  O        0.9156910    -2.7263170    -0.0671110
  O       -3.4138470    -0.8877920     0.1898460
  C       -0.3355896     1.2971996    -0.2229197
  C        1.1174820     1.0032940     0.2012350
  C       -1.2273260     0.1250970     0.2312670
  C        1.5822430    -0.3816820    -0.2226620
  C        0.5842200    -1.4279110     0.2862640
  C       -2.6461850     0.2016990    -0.2964600
  H       -0.3421180     1.3022200    -1.3325700
  H        1.1390340     1.0438120     1.3116130
  H       -1.2614040     0.1027740     1.3364960
  H        1.5822050    -0.4262820    -1.3195710
  H        0.5263940    -1.4152120     1.3863080
  H       -2.6088500     0.2174640    -1.3960030
  H       -3.1281860     1.1200450     0.0455410
  H       -0.8261980     2.5111300     1.1738140
  H        1.5071200     2.8252430    -0.2509020
  H        3.0032160    -0.4533580     1.1133610
  H        1.2544120    -2.7122960    -0.9801810
  H       -2.8913510    -1.6827050    -0.0240770
units angstrom
no_reorient  #important for SAPT in psi4, default
symmetry c1  #important for SAPT in psi4, default
}

set PROPERTIES_ORIGIN ["COM"]
properties('MP2/aug-cc-pvtz', properties = ['dipole'])
--------------------------------------------------------------------------

    Molecular point group: c1
  Charge       = 0
  Multiplicity = 1
  Basis Set: AUG-CC-PVTZ
    Blend: AUG-CC-PVTZ
  Basis Set: (AUG-CC-PVTZ AUX)
    Blend: AUG-CC-PVTZ-JKFIT

    Orbital Energies [Eh]
    ---------------------

    Doubly Occupied:

       1A    -20.604234     2A    -20.588535     3A    -20.583122
       4A    -20.578980     5A    -20.576417     6A    -20.561570
       7A    -11.356106     8A    -11.310863     9A    -11.308506
      10A    -11.306906    11A    -11.304647    12A    -11.286202
      13A     -1.439879    14A     -1.420515    15A     -1.389000
      16A     -1.373766    17A     -1.366086    18A     -1.352035
      19A     -1.074781    20A     -1.048887    21A     -0.944257
      22A     -0.891284    23A     -0.852429    24A     -0.843206
      25A     -0.754742    26A     -0.729784    27A     -0.721441
      28A     -0.716581    29A     -0.693445    30A     -0.673445
      31A     -0.659049    32A     -0.654395    33A     -0.630478
      34A     -0.615262    35A     -0.597757    36A     -0.587181
      37A     -0.568944    38A     -0.563773    39A     -0.558099
      40A     -0.542835    41A     -0.527098    42A     -0.517016
      43A     -0.499183    44A     -0.486314    45A     -0.471698
      46A     -0.459557    47A     -0.444746    48A     -0.426112

  @DF-RHF Final Energy:  -683.60248401777460

   => Energetics <=

    Nuclear Repulsion Energy =            824.3758663884997304
    One-Electron Energy =               -2577.0344022178051091
    Two-Electron Energy =                1069.0560518115307787
    Total Energy =                       -683.6024840177747137
  Basis Set: (AUG-CC-PVTZ AUX)
    Blend: AUG-CC-PVTZ-RI
    Molecular point group: c1

    Geometry (in Angstrom), charge = 0, multiplicity = 1:

       Center              X                  Y                   Z               Mass
    ------------   -----------------  -----------------  -----------------  -----------------
         O           -0.719013191013    -1.108928676416    -0.249905203710    15.994914619570
         O           -0.763085191013     2.555905323584     0.206051796290    15.994914619570
         O            1.976153808987     1.989221323584    -0.337875203710    15.994914619570
         O            2.901405808987    -0.664124676416     0.174321796290    15.994914619570
         O            0.905450808987    -2.715944676416    -0.062274203710    15.994914619570
         O           -3.424087191013    -0.877419676416     0.194682796290    15.994914619570
         C           -0.345829791013     1.307571923584    -0.218082903710    12.000000000000
         C            1.107241808987     1.013666323584     0.206071796290    12.000000000000
         C           -1.237566191013     0.135469323584     0.236103796290    12.000000000000
         C            1.572002808987    -0.371309676416    -0.217825203710    12.000000000000
         C            0.573979808987    -1.417538676416     0.291100796290    12.000000000000
         C           -2.656425191013     0.212071323584    -0.291623203710    12.000000000000
         H           -0.352358191013     1.312592323584    -1.327733203710     1.007825032230
         H            1.128793808987     1.054184323584     1.316449796290     1.007825032230
         H           -1.271644191013     0.113146323584     1.341332796290     1.007825032230
         H            1.571964808987    -0.415909676416    -1.314734203710     1.007825032230
         H            0.516153808987    -1.404839676416     1.391144796290     1.007825032230
         H           -2.619090191013     0.227836323584    -1.391166203710     1.007825032230
         H           -3.138426191013     1.130417323584     0.050377796290     1.007825032230
         H           -0.836438191013     2.521502323584     1.178650796290     1.007825032230
         H            1.496879808987     2.835615323584    -0.246065203710     1.007825032230
         H            2.992975808987    -0.442985676416     1.118197796290     1.007825032230
         H            1.244171808987    -2.701923676416    -0.975344203710     1.007825032230
         H           -2.901591191013    -1.672332676416    -0.019240203710     1.007825032230

  Basis Set: AUG-CC-PVTZ
    Blend: AUG-CC-PVTZ
  Basis Set: (AUG-CC-PVTZ AUX)
    Blend: AUG-CC-PVTZ-JKFIT
	 Reference Energy          =    -683.6024840177746000 [Eh]
	 Singles Energy            =      -0.0000000000000000 [Eh]
	 Same-Spin Energy          =      -0.6653563292596780 [Eh]
	 Opposite-Spin Energy      =      -2.0442549744533682 [Eh]
	 Correlation Energy        =      -2.7096113037130465 [Eh]
	 Total Energy              =    -686.3120953214876181 [Eh]

	 ================> DF-SCS-MP2 Energies <==================
	-----------------------------------------------------------
	 SCS Same-Spin Scale       =       0.3333333333333333 [-]
	 SCS Opposite-Spin Scale   =       1.2000000000000000 [-]
	 SCS Same-Spin Energy      =      -0.2217854430865593 [Eh]
	 SCS Opposite-Spin Energy  =      -2.4531059693440418 [Eh]
	 SCS Correlation Energy    =      -2.6748914124306009 [Eh]
	 SCS Total Energy          =    -686.2773754302052112 [Eh]
	-----------------------------------------------------------

  Dipole Moment: [D]
     X:     0.1779      Y:     1.7612      Z:     1.4137     Total:     2.2654

*** Psi4 exiting successfully. Buy a developer a beer!
