                               Psi4 1.3.2 release

  ==> Input File <==

--------------------------------------------------------------------------
#psi4
#
memory 32 gb

molecule  {
0 1
  O       -0.7087550    -1.1193400    -0.2546710
  O       -0.7529000     2.5454980     0.2011280
  O        1.9863450     1.9788980    -0.3426730
  O        2.9116540    -0.6744470     0.1695670
  O        0.9160669    -2.7323568    -0.0438318
  O       -3.4138550    -0.8877920     0.1899090
  C       -0.3205170     1.2520290    -0.2382820
  C        1.1174580     1.0033160     0.2012620
  C       -1.2273170     0.1250620     0.2312770
  C        1.5822600    -0.3816350    -0.2226430
  C        0.5842790    -1.4279170     0.2862350
  C       -2.6461720     0.2016390    -0.2964840
  H       -0.3421210     1.3021240    -1.3326030
  H        1.1389810     1.0438400     1.3116400
  H       -1.2614020     0.1027960     1.3365120
  H        1.5823060    -0.4261990    -1.3195550
  H        0.5265370    -1.4152780     1.3862880
  H       -2.6088310     0.2173240    -1.3960300
  H       -3.1281770     1.1200080     0.0454480
  H       -0.8264260     2.5110960     1.1737150
  H        1.5069660     2.8252470    -0.2509780
  H        3.0031740    -0.4532420     1.1134330
  H        1.2543330    -2.7122130    -0.9803670
  H       -2.8912910    -1.6827110    -0.0238270
units angstrom
no_reorient  #important for SAPT in psi4, default
symmetry c1  #important for SAPT in psi4, default
}

set PROPERTIES_ORIGIN ["COM"]
properties('MP2/aug-cc-pvtz', properties = ['dipole'])
--------------------------------------------------------------------------

    Molecular point group: c1
  Charge       = 0
  Multiplicity = 1
  Basis Set: AUG-CC-PVTZ
    Blend: AUG-CC-PVTZ
  Basis Set: (AUG-CC-PVTZ AUX)
    Blend: AUG-CC-PVTZ-JKFIT

    Orbital Energies [Eh]
    ---------------------

    Doubly Occupied:

       1A    -20.598382     2A    -20.588697     3A    -20.586637
       4A    -20.579256     5A    -20.577556     6A    -20.562745
       7A    -11.356399     8A    -11.310616     9A    -11.309808
      10A    -11.308132    11A    -11.305357    12A    -11.287346
      13A     -1.439089    14A     -1.404942    15A     -1.387711
      16A     -1.371791    17A     -1.365795    18A     -1.352251
      19A     -1.080967    20A     -1.050673    21A     -0.945663
      22A     -0.889647    23A     -0.854159    24A     -0.842378
      25A     -0.752747    26A     -0.729564    27A     -0.721054
      28A     -0.708256    29A     -0.693536    30A     -0.674922
      31A     -0.659856    32A     -0.653105    33A     -0.620118
      34A     -0.615052    35A     -0.598182    36A     -0.587322
      37A     -0.570631    38A     -0.561923    39A     -0.556218
      40A     -0.543576    41A     -0.526975    42A     -0.517118
      43A     -0.502512    44A     -0.487078    45A     -0.474368
      46A     -0.462243    47A     -0.446639    48A     -0.431169

  @DF-RHF Final Energy:  -683.60178271481675

   => Energetics <=

    Nuclear Repulsion Energy =            824.4441721543250878
    One-Electron Energy =               -2577.1915859707314667
    Two-Electron Energy =                1069.1456311015895153
    Total Energy =                       -683.6017827148168635
  Basis Set: (AUG-CC-PVTZ AUX)
    Blend: AUG-CC-PVTZ-RI
    Molecular point group: c1

    Geometry (in Angstrom), charge = 0, multiplicity = 1:

       Center              X                  Y                   Z               Mass
    ------------   -----------------  -----------------  -----------------  -----------------
         O           -0.720029101165    -1.105420699123    -0.250892554143    15.994914619570
         O           -0.764174101165     2.559417300877     0.204906445857    15.994914619570
         O            1.975070898835     1.992817300877    -0.338894554143    15.994914619570
         O            2.900379898835    -0.660527699123     0.173345445857    15.994914619570
         O            0.904792798835    -2.718437499123    -0.040053354143    15.994914619570
         O           -3.425129101165    -0.873872699123     0.193687445857    15.994914619570
         C           -0.331791101165     1.265948300877    -0.234503554143    12.000000000000
         C            1.106183898835     1.017235300877     0.205040445857    12.000000000000
         C           -1.238591101165     0.138981300877     0.235055445857    12.000000000000
         C            1.570985898835    -0.367715699123    -0.218864554143    12.000000000000
         C            0.573004898835    -1.413997699123     0.290013445857    12.000000000000
         C           -2.657446101165     0.215558300877    -0.292705554143    12.000000000000
         H           -0.353395101165     1.316043300877    -1.328824554143     1.007825032230
         H            1.127706898835     1.057759300877     1.315418445857     1.007825032230
         H           -1.272676101165     0.116715300877     1.340290445857     1.007825032230
         H            1.571031898835    -0.412279699123    -1.315776554143     1.007825032230
         H            0.515262898835    -1.401358699123     1.390066445857     1.007825032230
         H           -2.620105101165     0.231243300877    -1.392251554143     1.007825032230
         H           -3.139451101165     1.133927300877     0.049226445857     1.007825032230
         H           -0.837700101165     2.525015300877     1.177493445857     1.007825032230
         H            1.495691898835     2.839166300877    -0.247199554143     1.007825032230
         H            2.991899898835    -0.439322699123     1.117211445857     1.007825032230
         H            1.243058898835    -2.698293699123    -0.976588554143     1.007825032230
         H           -2.902565101165    -1.668791699123    -0.020048554143     1.007825032230

  Basis Set: AUG-CC-PVTZ
    Blend: AUG-CC-PVTZ
  Basis Set: (AUG-CC-PVTZ AUX)
    Blend: AUG-CC-PVTZ-JKFIT
	 Reference Energy          =    -683.6017827148167498 [Eh]
	 Singles Energy            =      -0.0000000000000000 [Eh]
	 Same-Spin Energy          =      -0.6657688950238896 [Eh]
	 Opposite-Spin Energy      =      -2.0456732483756150 [Eh]
	 Correlation Energy        =      -2.7114421433995046 [Eh]
	 Total Energy              =    -686.3132248582162447 [Eh]

	 ================> DF-SCS-MP2 Energies <==================
	-----------------------------------------------------------
	 SCS Same-Spin Scale       =       0.3333333333333333 [-]
	 SCS Opposite-Spin Scale   =       1.2000000000000000 [-]
	 SCS Same-Spin Energy      =      -0.2219229650079632 [Eh]
	 SCS Opposite-Spin Energy  =      -2.4548078980507380 [Eh]
	 SCS Correlation Energy    =      -2.6767308630587010 [Eh]
	 SCS Total Energy          =    -686.2785135778754011 [Eh]
	-----------------------------------------------------------

  Dipole Moment: [D]
     X:     0.2136      Y:     1.6023      Z:     1.3396     Total:     2.0994

*** Psi4 exiting successfully. Buy a developer a beer!
