                               Psi4 1.3.2 release

  ==> Input File <==

--------------------------------------------------------------------------
#psi4
#
memory 32 gb

molecule  {
0 1
  O       -0.7087550    -1.1193400    -0.2546710
  O       -0.7529000     2.5454980     0.2011280
  O        1.9863450     1.9788980    -0.3426730
  O        2.9116540    -0.6744470     0.1695670
  O        0.9157630    -2.7262860    -0.0672430
  O       -3.4138550    -0.8877920     0.1899090
  C       -0.3205170     1.2520290    -0.2382820
  C        1.1174580     1.0033160     0.2012620
  C       -1.2273170     0.1250620     0.2312770
  C        1.5822600    -0.3816350    -0.2226430
  C        0.5603599    -1.3342297     0.3117412
  C       -2.6461720     0.2016390    -0.2964840
  H       -0.3421210     1.3021240    -1.3326030
  H        1.1389810     1.0438400     1.3116400
  H       -1.2614020     0.1027960     1.3365120
  H        1.5823060    -0.4261990    -1.3195550
  H        0.5265370    -1.4152780     1.3862880
  H       -2.6088310     0.2173240    -1.3960300
  H       -3.1281770     1.1200080     0.0454480
  H       -0.8264260     2.5110960     1.1737150
  H        1.5069660     2.8252470    -0.2509780
  H        3.0031740    -0.4532420     1.1134330
  H        1.2543330    -2.7122130    -0.9803670
  H       -2.8912910    -1.6827110    -0.0238270
units angstrom
no_reorient  #important for SAPT in psi4, default
symmetry c1  #important for SAPT in psi4, default
}

set PROPERTIES_ORIGIN ["COM"]
properties('MP2/aug-cc-pvtz', properties = ['dipole'])
--------------------------------------------------------------------------

    Molecular point group: c1
  Charge       = 0
  Multiplicity = 1
  Basis Set: AUG-CC-PVTZ
    Blend: AUG-CC-PVTZ
  Basis Set: (AUG-CC-PVTZ AUX)
    Blend: AUG-CC-PVTZ-JKFIT

    Orbital Energies [Eh]
    ---------------------

    Doubly Occupied:

       1A    -20.601320     2A    -20.599339     3A    -20.581679
       4A    -20.578721     5A    -20.567245     6A    -20.565550
       7A    -11.357085     8A    -11.313979     9A    -11.311877
      10A    -11.311203    11A    -11.306840    12A    -11.290148
      13A     -1.443008    14A     -1.406547    15A     -1.389654
      16A     -1.369293    17A     -1.365424    18A     -1.333340
      19A     -1.088264    20A     -1.059258    21A     -0.950780
      22A     -0.891688    23A     -0.856344    24A     -0.847612
      25A     -0.751532    26A     -0.736087    27A     -0.724427
      28A     -0.705291    29A     -0.694232    30A     -0.675536
      31A     -0.656170    32A     -0.650565    33A     -0.623232
      34A     -0.615693    35A     -0.597924    36A     -0.585646
      37A     -0.568067    38A     -0.566761    39A     -0.554647
      40A     -0.544419    41A     -0.525247    42A     -0.513992
      43A     -0.507191    44A     -0.486815    45A     -0.477255
      46A     -0.465493    47A     -0.448860    48A     -0.438500

  @DF-RHF Final Energy:  -683.59222405408786

   => Energetics <=

    Nuclear Repulsion Energy =            825.4445181140052910
    One-Electron Energy =               -2579.0739236310778324
    Two-Electron Energy =                1070.0371814629845630
    Total Energy =                       -683.5922240540878647
  Basis Set: (AUG-CC-PVTZ AUX)
    Blend: AUG-CC-PVTZ-RI
    Molecular point group: c1

    Geometry (in Angstrom), charge = 0, multiplicity = 1:

       Center              X                  Y                   Z               Mass
    ------------   -----------------  -----------------  -----------------  -----------------
         O           -0.718408060611    -1.112203585642    -0.250512767081    15.994914619570
         O           -0.762553060611     2.552634414358     0.205286232919    15.994914619570
         O            1.976691939389     1.986034414358    -0.338514767081    15.994914619570
         O            2.902000939389    -0.667310585642     0.173725232919    15.994914619570
         O            0.906109939389    -2.719149585642    -0.063084767081    15.994914619570
         O           -3.423508060611    -0.880655585642     0.194067232919    15.994914619570
         C           -0.330170060611     1.259165414358    -0.234123767081    12.000000000000
         C            1.107804939389     1.010452414358     0.205420232919    12.000000000000
         C           -1.236970060611     0.132198414358     0.235435232919    12.000000000000
         C            1.572606939389    -0.374498585642    -0.218484767081    12.000000000000
         C            0.550706839389    -1.327093285642     0.315899432919    12.000000000000
         C           -2.655825060611     0.208775414358    -0.292325767081    12.000000000000
         H           -0.351774060611     1.309260414358    -1.328444767081     1.007825032230
         H            1.129327939389     1.050976414358     1.315798232919     1.007825032230
         H           -1.271055060611     0.109932414358     1.340670232919     1.007825032230
         H            1.572652939389    -0.419062585642    -1.315396767081     1.007825032230
         H            0.516883939389    -1.408141585642     1.390446232919     1.007825032230
         H           -2.618484060611     0.224460414358    -1.391871767081     1.007825032230
         H           -3.137830060611     1.127144414358     0.049606232919     1.007825032230
         H           -0.836079060611     2.518232414358     1.177873232919     1.007825032230
         H            1.497312939389     2.832383414358    -0.246819767081     1.007825032230
         H            2.993520939389    -0.446105585642     1.117591232919     1.007825032230
         H            1.244679939389    -2.705076585642    -0.976208767081     1.007825032230
         H           -2.900944060611    -1.675574585642    -0.019668767081     1.007825032230

  Basis Set: AUG-CC-PVTZ
    Blend: AUG-CC-PVTZ
  Basis Set: (AUG-CC-PVTZ AUX)
    Blend: AUG-CC-PVTZ-JKFIT
	 Reference Energy          =    -683.5922240540878647 [Eh]
	 Singles Energy            =      -0.0000000000000000 [Eh]
	 Same-Spin Energy          =      -0.6662111431031748 [Eh]
	 Opposite-Spin Energy      =      -2.0471653894202793 [Eh]
	 Correlation Energy        =      -2.7133765325234540 [Eh]
	 Total Energy              =    -686.3056005866112628 [Eh]

	 ================> DF-SCS-MP2 Energies <==================
	-----------------------------------------------------------
	 SCS Same-Spin Scale       =       0.3333333333333333 [-]
	 SCS Opposite-Spin Scale   =       1.2000000000000000 [-]
	 SCS Same-Spin Energy      =      -0.2220703810343916 [Eh]
	 SCS Opposite-Spin Energy  =      -2.4565984673043348 [Eh]
	 SCS Correlation Energy    =      -2.6786688483387264 [Eh]
	 SCS Total Energy          =    -686.2708929024265672 [Eh]
	-----------------------------------------------------------

  Dipole Moment: [D]
     X:    -0.0183      Y:     2.0971      Z:     1.4572     Total:     2.5538

*** Psi4 exiting successfully. Buy a developer a beer!
