                               Psi4 1.3.2 release

  ==> Input File <==

--------------------------------------------------------------------------
#psi4
#
memory 32 gb

molecule  {
0 1
  O       -0.7087550    -1.1193400    -0.2546710
  O       -0.7529000     2.5454980     0.2011280
  O        1.9863450     1.9788980    -0.3426730
  O        2.9116540    -0.6744470     0.1695670
  O        0.9157630    -2.7262860    -0.0672430
  O       -3.4138550    -0.8877920     0.1899090
  C       -0.3205170     1.2520290    -0.2382820
  C        0.9933560     0.9313681     0.2703485
  C       -1.2273170     0.1250620     0.2312770
  C        1.5822600    -0.3816350    -0.2226430
  C        0.5842790    -1.4279170     0.2862350
  C       -2.6461720     0.2016390    -0.2964840
  H       -0.3421210     1.3021240    -1.3326030
  H        1.1389810     1.0438400     1.3116400
  H       -1.2614020     0.1027960     1.3365120
  H        1.5823060    -0.4261990    -1.3195550
  H        0.5265370    -1.4152780     1.3862880
  H       -2.6088310     0.2173240    -1.3960300
  H       -3.1281770     1.1200080     0.0454480
  H       -0.8264260     2.5110960     1.1737150
  H        1.5069660     2.8252470    -0.2509780
  H        3.0031740    -0.4532420     1.1134330
  H        1.2543330    -2.7122130    -0.9803670
  H       -2.8912910    -1.6827110    -0.0238270
units angstrom
no_reorient  #important for SAPT in psi4, default
symmetry c1  #important for SAPT in psi4, default
}

set PROPERTIES_ORIGIN ["COM"]
properties('MP2/aug-cc-pvtz', properties = ['dipole'])
--------------------------------------------------------------------------

    Molecular point group: c1
  Charge       = 0
  Multiplicity = 1
  Basis Set: AUG-CC-PVTZ
    Blend: AUG-CC-PVTZ
  Basis Set: (AUG-CC-PVTZ AUX)
    Blend: AUG-CC-PVTZ-JKFIT

    Orbital Energies [Eh]
    ---------------------

    Doubly Occupied:

       1A    -20.600620     2A    -20.591930     3A    -20.584310
       4A    -20.583737     5A    -20.563968     6A    -20.561140
       7A    -11.357136     8A    -11.312773     9A    -11.311051
      10A    -11.310349    11A    -11.309951    12A    -11.288595
      13A     -1.442881    14A     -1.403040    15A     -1.386555
      16A     -1.373012    17A     -1.355202    18A     -1.323918
      19A     -1.101297    20A     -1.055384    21A     -0.955037
      22A     -0.889026    23A     -0.859827    24A     -0.848511
      25A     -0.752710    26A     -0.733660    27A     -0.716666
      28A     -0.713508    29A     -0.699582    30A     -0.675251
      31A     -0.660788    32A     -0.628330    33A     -0.622160
      34A     -0.617377    35A     -0.598251    36A     -0.589281
      37A     -0.565543    38A     -0.561483    39A     -0.549632
      40A     -0.530189    41A     -0.528852    42A     -0.517714
      43A     -0.514509    44A     -0.487899    45A     -0.479653
      46A     -0.469209    47A     -0.451086    48A     -0.427127

  @DF-RHF Final Energy:  -683.57818179547178

   => Energetics <=

    Nuclear Repulsion Energy =            825.4635747309133649
    One-Electron Energy =               -2579.1640920185900541
    Two-Electron Energy =                1070.1223354922046838
    Total Energy =                       -683.5781817954718917
  Basis Set: (AUG-CC-PVTZ AUX)
    Blend: AUG-CC-PVTZ-RI
    Molecular point group: c1

    Geometry (in Angstrom), charge = 0, multiplicity = 1:

       Center              X                  Y                   Z               Mass
    ------------   -----------------  -----------------  -----------------  -----------------
         O           -0.711731551784    -1.101165126236    -0.253417097637    15.994914619570
         O           -0.755876551784     2.563672873764     0.202381902363    15.994914619570
         O            1.983368448216     1.997072873764    -0.341419097637    15.994914619570
         O            2.908677448216    -0.656272126236     0.170820902363    15.994914619570
         O            0.912786448216    -2.708111126236    -0.065989097637    15.994914619570
         O           -3.416831551784    -0.869617126236     0.191162902363    15.994914619570
         C           -0.323493551784     1.270203873764    -0.237028097637    12.000000000000
         C            0.990379448216     0.949542973764     0.271602402363    12.000000000000
         C           -1.230293551784     0.143236873764     0.232530902363    12.000000000000
         C            1.579283448216    -0.363460126236    -0.221389097637    12.000000000000
         C            0.581302448216    -1.409742126236     0.287488902363    12.000000000000
         C           -2.649148551784     0.219813873764    -0.295230097637    12.000000000000
         H           -0.345097551784     1.320298873764    -1.331349097637     1.007825032230
         H            1.136004448216     1.062014873764     1.312893902363     1.007825032230
         H           -1.264378551784     0.120970873764     1.337765902363     1.007825032230
         H            1.579329448216    -0.408024126236    -1.318301097637     1.007825032230
         H            0.523560448216    -1.397103126236     1.387541902363     1.007825032230
         H           -2.611807551784     0.235498873764    -1.394776097637     1.007825032230
         H           -3.131153551784     1.138182873764     0.046701902363     1.007825032230
         H           -0.829402551784     2.529270873764     1.174968902363     1.007825032230
         H            1.503989448216     2.843421873764    -0.249724097637     1.007825032230
         H            3.000197448216    -0.435067126236     1.114686902363     1.007825032230
         H            1.251356448216    -2.694038126236    -0.979113097637     1.007825032230
         H           -2.894267551784    -1.664536126236    -0.022573097637     1.007825032230

  Basis Set: AUG-CC-PVTZ
    Blend: AUG-CC-PVTZ
  Basis Set: (AUG-CC-PVTZ AUX)
    Blend: AUG-CC-PVTZ-JKFIT
	 Reference Energy          =    -683.5781817954717781 [Eh]
	 Singles Energy            =      -0.0000000000000000 [Eh]
	 Same-Spin Energy          =      -0.6673193460568575 [Eh]
	 Opposite-Spin Energy      =      -2.0497421998724787 [Eh]
	 Correlation Energy        =      -2.7170615459293361 [Eh]
	 Total Energy              =    -686.2952433414011466 [Eh]

	 ================> DF-SCS-MP2 Energies <==================
	-----------------------------------------------------------
	 SCS Same-Spin Scale       =       0.3333333333333333 [-]
	 SCS Opposite-Spin Scale   =       1.2000000000000000 [-]
	 SCS Same-Spin Energy      =      -0.2224397820189525 [Eh]
	 SCS Opposite-Spin Energy  =      -2.4596906398469742 [Eh]
	 SCS Correlation Energy    =      -2.6821304218659265 [Eh]
	 SCS Total Energy          =    -686.2603122173377415 [Eh]
	-----------------------------------------------------------

  Dipole Moment: [D]
     X:    -0.0320      Y:     1.2602      Z:     1.5546     Total:     2.0015

*** Psi4 exiting successfully. Buy a developer a beer!
