                               Psi4 1.3.2 release

  ==> Input File <==

--------------------------------------------------------------------------
#psi4
#
memory 32 gb

molecule  {
0 1
  O       -0.7087550    -1.1193400    -0.2546710
  O       -0.7529000     2.5454980     0.2011280
  O        1.9863450     1.9788980    -0.3426730
  O        2.9116540    -0.6744470     0.1695670
  O        0.9157630    -2.7262860    -0.0672430
  O       -3.4138550    -0.8877920     0.1899090
  C       -0.3205170     1.2520290    -0.2382820
  C        1.1386744     1.0138510     0.1892748
  C       -1.2273170     0.1250620     0.2312770
  C        1.5822600    -0.3816350    -0.2226430
  C        0.5842790    -1.4279170     0.2862350
  C       -2.6461720     0.2016390    -0.2964840
  H       -0.3421210     1.3021240    -1.3326030
  H        1.1389810     1.0438400     1.3116400
  H       -1.2614020     0.1027960     1.3365120
  H        1.5823060    -0.4261990    -1.3195550
  H        0.5265370    -1.4152780     1.3862880
  H       -2.6088310     0.2173240    -1.3960300
  H       -3.1281770     1.1200080     0.0454480
  H       -0.8264260     2.5110960     1.1737150
  H        1.5069660     2.8252470    -0.2509780
  H        3.0031740    -0.4532420     1.1134330
  H        1.2543330    -2.7122130    -0.9803670
  H       -2.8912910    -1.6827110    -0.0238270
units angstrom
no_reorient  #important for SAPT in psi4, default
symmetry c1  #important for SAPT in psi4, default
}

set PROPERTIES_ORIGIN ["COM"]
properties('MP2/aug-cc-pvtz', properties = ['dipole'])
--------------------------------------------------------------------------

    Molecular point group: c1
  Charge       = 0
  Multiplicity = 1
  Basis Set: AUG-CC-PVTZ
    Blend: AUG-CC-PVTZ
  Basis Set: (AUG-CC-PVTZ AUX)
    Blend: AUG-CC-PVTZ-JKFIT

    Orbital Energies [Eh]
    ---------------------

    Doubly Occupied:

       1A    -20.597981     2A    -20.588080     3A    -20.583888
       4A    -20.580000     5A    -20.578448     6A    -20.562514
       7A    -11.357015     8A    -11.310631     9A    -11.309819
      10A    -11.307738    11A    -11.304418    12A    -11.287088
      13A     -1.439982    14A     -1.408438    15A     -1.389165
      16A     -1.374107    17A     -1.368805    18A     -1.352884
      19A     -1.077785    20A     -1.050424    21A     -0.944475
      22A     -0.891944    23A     -0.853835    24A     -0.841295
      25A     -0.755296    26A     -0.730719    27A     -0.721135
      28A     -0.709112    29A     -0.692546    30A     -0.675488
      31A     -0.663067    32A     -0.656873    33A     -0.620215
      34A     -0.615286    35A     -0.598092    36A     -0.587353
      37A     -0.572938    38A     -0.562232    39A     -0.555906
      40A     -0.544913    41A     -0.527098    42A     -0.516692
      43A     -0.501287    44A     -0.486720    45A     -0.472052
      46A     -0.460406    47A     -0.444853    48A     -0.430790

  @DF-RHF Final Energy:  -683.60369776512152

   => Energetics <=

    Nuclear Repulsion Energy =            824.5643738124167612
    One-Electron Energy =               -2577.4124950707446260
    Two-Electron Energy =                1069.2444234932063409
    Total Energy =                       -683.6036977651215238
  Basis Set: (AUG-CC-PVTZ AUX)
    Blend: AUG-CC-PVTZ-RI
    Molecular point group: c1

    Geometry (in Angstrom), charge = 0, multiplicity = 1:

       Center              X                  Y                   Z               Mass
    ------------   -----------------  -----------------  -----------------  -----------------
         O           -0.721416034667    -1.106662050461    -0.248014087007    15.994914619570
         O           -0.765561034667     2.558175949539     0.207784912993    15.994914619570
         O            1.973683965333     1.991575949539    -0.336016087007    15.994914619570
         O            2.898992965333    -0.661769050461     0.176223912993    15.994914619570
         O            0.903101965333    -2.713608050461    -0.060586087007    15.994914619570
         O           -3.426516034667    -0.875114050461     0.196565912993    15.994914619570
         C           -0.333178034667     1.264706949539    -0.231625087007    12.000000000000
         C            1.126013365333     1.026528949539     0.195931712993    12.000000000000
         C           -1.239978034667     0.137739949539     0.237933912993    12.000000000000
         C            1.569598965333    -0.368957050461    -0.215986087007    12.000000000000
         C            0.571617965333    -1.415239050461     0.292891912993    12.000000000000
         C           -2.658833034667     0.214316949539    -0.289827087007    12.000000000000
         H           -0.354782034667     1.314801949539    -1.325946087007     1.007825032230
         H            1.126319965333     1.056517949539     1.318296912993     1.007825032230
         H           -1.274063034667     0.115473949539     1.343168912993     1.007825032230
         H            1.569644965333    -0.413521050461    -1.312898087007     1.007825032230
         H            0.513875965333    -1.402600050461     1.392944912993     1.007825032230
         H           -2.621492034667     0.230001949539    -1.389373087007     1.007825032230
         H           -3.140838034667     1.132685949539     0.052104912993     1.007825032230
         H           -0.839087034667     2.523773949539     1.180371912993     1.007825032230
         H            1.494304965333     2.837924949539    -0.244321087007     1.007825032230
         H            2.990512965333    -0.440564050461     1.120089912993     1.007825032230
         H            1.241671965333    -2.699535050461    -0.973710087007     1.007825032230
         H           -2.903952034667    -1.670033050461    -0.017170087007     1.007825032230

  Basis Set: AUG-CC-PVTZ
    Blend: AUG-CC-PVTZ
  Basis Set: (AUG-CC-PVTZ AUX)
    Blend: AUG-CC-PVTZ-JKFIT
	 Reference Energy          =    -683.6036977651215238 [Eh]
	 Singles Energy            =      -0.0000000000000000 [Eh]
	 Same-Spin Energy          =      -0.6653707884402127 [Eh]
	 Opposite-Spin Energy      =      -2.0444315875822672 [Eh]
	 Correlation Energy        =      -2.7098023760224796 [Eh]
	 Total Energy              =    -686.3135001411440044 [Eh]

	 ================> DF-SCS-MP2 Energies <==================
	-----------------------------------------------------------
	 SCS Same-Spin Scale       =       0.3333333333333333 [-]
	 SCS Opposite-Spin Scale   =       1.2000000000000000 [-]
	 SCS Same-Spin Energy      =      -0.2217902628134042 [Eh]
	 SCS Opposite-Spin Energy  =      -2.4533179050987206 [Eh]
	 SCS Correlation Energy    =      -2.6751081679121249 [Eh]
	 SCS Total Energy          =    -686.2788059330335955 [Eh]
	-----------------------------------------------------------

  Dipole Moment: [D]
     X:     0.2641      Y:     1.6600      Z:     1.3275     Total:     2.1419

*** Psi4 exiting successfully. Buy a developer a beer!
