                               Psi4 1.3.2 release

  ==> Input File <==

--------------------------------------------------------------------------
#psi4
#
memory 32 gb

molecule  {
0 1
  O       -0.7087550    -1.1193400    -0.2546710
  O       -0.7529000     2.5454980     0.2011280
  O        1.9863450     1.9788980    -0.3426730
  O        2.9116540    -0.6744470     0.1695670
  O        0.9162698    -2.7380302    -0.0203201
  O       -3.4138550    -0.8877920     0.1899090
  C       -0.3205170     1.2520290    -0.2382820
  C        1.1174580     1.0033160     0.2012620
  C       -1.2273170     0.1250620     0.2312770
  C        1.5822600    -0.3816350    -0.2226430
  C        0.5842790    -1.4279170     0.2862350
  C       -2.6461720     0.2016390    -0.2964840
  H       -0.3421210     1.3021240    -1.3326030
  H        1.1389810     1.0438400     1.3116400
  H       -1.2614020     0.1027960     1.3365120
  H        1.5823060    -0.4261990    -1.3195550
  H        0.5265370    -1.4152780     1.3862880
  H       -2.6088310     0.2173240    -1.3960300
  H       -3.1281770     1.1200080     0.0454480
  H       -0.8264260     2.5110960     1.1737150
  H        1.5069660     2.8252470    -0.2509780
  H        3.0031740    -0.4532420     1.1134330
  H        1.2543330    -2.7122130    -0.9803670
  H       -2.8912910    -1.6827110    -0.0238270
units angstrom
no_reorient  #important for SAPT in psi4, default
symmetry c1  #important for SAPT in psi4, default
}

set PROPERTIES_ORIGIN ["COM"]
properties('MP2/aug-cc-pvtz', properties = ['dipole'])
--------------------------------------------------------------------------

    Molecular point group: c1
  Charge       = 0
  Multiplicity = 1
  Basis Set: AUG-CC-PVTZ
    Blend: AUG-CC-PVTZ
  Basis Set: (AUG-CC-PVTZ AUX)
    Blend: AUG-CC-PVTZ-JKFIT

    Orbital Energies [Eh]
    ---------------------

    Doubly Occupied:

       1A    -20.598439     2A    -20.589389     3A    -20.588841
       4A    -20.579259     5A    -20.577640     6A    -20.562775
       7A    -11.355940     8A    -11.310704     9A    -11.309938
      10A    -11.308253    11A    -11.305615    12A    -11.287396
      13A     -1.438111    14A     -1.404828    15A     -1.387677
      16A     -1.371027    17A     -1.365675    18A     -1.351354
      19A     -1.081033    20A     -1.050348    21A     -0.945381
      22A     -0.888189    23A     -0.853873    24A     -0.842375
      25A     -0.751585    26A     -0.729492    27A     -0.721057
      28A     -0.706615    29A     -0.693749    30A     -0.675031
      31A     -0.659736    32A     -0.651036    33A     -0.620120
      34A     -0.614451    35A     -0.598375    36A     -0.587279
      37A     -0.570941    38A     -0.561744    39A     -0.556291
      40A     -0.543625    41A     -0.526580    42A     -0.517351
      43A     -0.502144    44A     -0.486928    45A     -0.474407
      46A     -0.462291    47A     -0.446798    48A     -0.431238

  @DF-RHF Final Energy:  -683.59872598556524

   => Energetics <=

    Nuclear Repulsion Energy =            824.2270630688229858
    One-Electron Energy =               -2576.7657270635277200
    Two-Electron Energy =                1068.9399380091394960
    Total Energy =                       -683.5987259855651246
  Basis Set: (AUG-CC-PVTZ AUX)
    Blend: AUG-CC-PVTZ-RI
    Molecular point group: c1

    Geometry (in Angstrom), charge = 0, multiplicity = 1:

       Center              X                  Y                   Z               Mass
    ------------   -----------------  -----------------  -----------------  -----------------
         O           -0.720047124642    -1.104916734661    -0.252981083288    15.994914619570
         O           -0.764192124642     2.559921265339     0.202817916712    15.994914619570
         O            1.975052875358     1.993321265339    -0.340983083288    15.994914619570
         O            2.900361875358    -0.660023734661     0.171256916712    15.994914619570
         O            0.904977675358    -2.723606934661    -0.018630183288    15.994914619570
         O           -3.425147124642    -0.873368734661     0.191598916712    15.994914619570
         C           -0.331809124642     1.266452265339    -0.236592083288    12.000000000000
         C            1.106165875358     1.017739265339     0.202951916712    12.000000000000
         C           -1.238609124642     0.139485265339     0.232966916712    12.000000000000
         C            1.570967875358    -0.367211734661    -0.220953083288    12.000000000000
         C            0.572986875358    -1.413493734661     0.287924916712    12.000000000000
         C           -2.657464124642     0.216062265339    -0.294794083288    12.000000000000
         H           -0.353413124642     1.316547265339    -1.330913083288     1.007825032230
         H            1.127688875358     1.058263265339     1.313329916712     1.007825032230
         H           -1.272694124642     0.117219265339     1.338201916712     1.007825032230
         H            1.571013875358    -0.411775734661    -1.317865083288     1.007825032230
         H            0.515244875358    -1.400854734661     1.387977916712     1.007825032230
         H           -2.620123124642     0.231747265339    -1.394340083288     1.007825032230
         H           -3.139469124642     1.134431265339     0.047137916712     1.007825032230
         H           -0.837718124642     2.525519265339     1.175404916712     1.007825032230
         H            1.495673875358     2.839670265339    -0.249288083288     1.007825032230
         H            2.991881875358    -0.438818734661     1.115122916712     1.007825032230
         H            1.243040875358    -2.697789734661    -0.978677083288     1.007825032230
         H           -2.902583124642    -1.668287734661    -0.022137083288     1.007825032230

  Basis Set: AUG-CC-PVTZ
    Blend: AUG-CC-PVTZ
  Basis Set: (AUG-CC-PVTZ AUX)
    Blend: AUG-CC-PVTZ-JKFIT
	 Reference Energy          =    -683.5987259855652383 [Eh]
	 Singles Energy            =      -0.0000000000000000 [Eh]
	 Same-Spin Energy          =      -0.6660912221171791 [Eh]
	 Opposite-Spin Energy      =      -2.0465234350720154 [Eh]
	 Correlation Energy        =      -2.7126146571891945 [Eh]
	 Total Energy              =    -686.3113406427544305 [Eh]

	 ================> DF-SCS-MP2 Energies <==================
	-----------------------------------------------------------
	 SCS Same-Spin Scale       =       0.3333333333333333 [-]
	 SCS Opposite-Spin Scale   =       1.2000000000000000 [-]
	 SCS Same-Spin Energy      =      -0.2220304073723930 [Eh]
	 SCS Opposite-Spin Energy  =      -2.4558281220864182 [Eh]
	 SCS Correlation Energy    =      -2.6778585294588111 [Eh]
	 SCS Total Energy          =    -686.2765845150240693 [Eh]
	-----------------------------------------------------------

  Dipole Moment: [D]
     X:     0.2097      Y:     1.6051      Z:     1.3114     Total:     2.0833

*** Psi4 exiting successfully. Buy a developer a beer!
