                               Psi4 1.3.2 release

  ==> Input File <==

--------------------------------------------------------------------------
#psi4
#
memory 32 gb

molecule  {
0 1
  O       -0.7087550    -1.1193400    -0.2546710
  O       -0.7529000     2.5454980     0.2011280
  O        2.0241282     1.9567107    -0.3198694
  O        2.9116540    -0.6744470     0.1695670
  O        0.9157630    -2.7262860    -0.0672430
  O       -3.4138550    -0.8877920     0.1899090
  C       -0.3205170     1.2520290    -0.2382820
  C        1.1174580     1.0033160     0.2012620
  C       -1.2273170     0.1250620     0.2312770
  C        1.5822600    -0.3816350    -0.2226430
  C        0.5842790    -1.4279170     0.2862350
  C       -2.6461720     0.2016390    -0.2964840
  H       -0.3421210     1.3021240    -1.3326030
  H        1.1389810     1.0438400     1.3116400
  H       -1.2614020     0.1027960     1.3365120
  H        1.5823060    -0.4261990    -1.3195550
  H        0.5265370    -1.4152780     1.3862880
  H       -2.6088310     0.2173240    -1.3960300
  H       -3.1281770     1.1200080     0.0454480
  H       -0.8264260     2.5110960     1.1737150
  H        1.5069660     2.8252470    -0.2509780
  H        3.0031740    -0.4532420     1.1134330
  H        1.2543330    -2.7122130    -0.9803670
  H       -2.8912910    -1.6827110    -0.0238270
units angstrom
no_reorient  #important for SAPT in psi4, default
symmetry c1  #important for SAPT in psi4, default
}

set PROPERTIES_ORIGIN ["COM"]
properties('MP2/aug-cc-pvtz', properties = ['dipole'])
--------------------------------------------------------------------------

    Molecular point group: c1
  Charge       = 0
  Multiplicity = 1
  Basis Set: AUG-CC-PVTZ
    Blend: AUG-CC-PVTZ
  Basis Set: (AUG-CC-PVTZ AUX)
    Blend: AUG-CC-PVTZ-JKFIT

    Orbital Energies [Eh]
    ---------------------

    Doubly Occupied:

       1A    -20.599222     2A    -20.588632     3A    -20.583311
       4A    -20.581332     5A    -20.578552     6A    -20.563117
       7A    -11.356289     8A    -11.311707     9A    -11.309040
      10A    -11.308824    11A    -11.304088    12A    -11.287823
      13A     -1.440002    14A     -1.403893    15A     -1.387134
      16A     -1.372490    17A     -1.362346    18A     -1.353091
      19A     -1.080210    20A     -1.050701    21A     -0.946092
      22A     -0.889977    23A     -0.853515    24A     -0.842561
      25A     -0.752449    26A     -0.728546    27A     -0.720034
      28A     -0.710388    29A     -0.693453    30A     -0.674320
      31A     -0.659394    32A     -0.649078    33A     -0.620493
      34A     -0.615660    35A     -0.598289    36A     -0.587178
      37A     -0.570539    38A     -0.561491    39A     -0.556490
      40A     -0.544469    41A     -0.527513    42A     -0.516630
      43A     -0.502552    44A     -0.487123    45A     -0.472576
      46A     -0.462474    47A     -0.446849    48A     -0.431151

  @DF-RHF Final Energy:  -683.59978014336571

   => Energetics <=

    Nuclear Repulsion Energy =            824.4045156723421997
    One-Electron Energy =               -2577.1224151870783317
    Two-Electron Energy =                1069.1181193713703124
    Total Energy =                       -683.5997801433657060
  Basis Set: (AUG-CC-PVTZ AUX)
    Blend: AUG-CC-PVTZ-RI
    Molecular point group: c1

    Geometry (in Angstrom), charge = 0, multiplicity = 1:

       Center              X                  Y                   Z               Mass
    ------------   -----------------  -----------------  -----------------  -----------------
         O           -0.723358363209    -1.103989080824    -0.250838581427    15.994914619570
         O           -0.767503363209     2.560848919176     0.204960418573    15.994914619570
         O            2.009524836791     1.972061619176    -0.316036981427    15.994914619570
         O            2.897050636791    -0.659096080824     0.173399418573    15.994914619570
         O            0.901159636791    -2.710935080824    -0.063410581427    15.994914619570
         O           -3.428458363209    -0.872441080824     0.193741418573    15.994914619570
         C           -0.335120363209     1.267379919176    -0.234449581427    12.000000000000
         C            1.102854636791     1.018666919176     0.205094418573    12.000000000000
         C           -1.241920363209     0.140412919176     0.235109418573    12.000000000000
         C            1.567656636791    -0.366284080824    -0.218810581427    12.000000000000
         C            0.569675636791    -1.412566080824     0.290067418573    12.000000000000
         C           -2.660775363209     0.216989919176    -0.292651581427    12.000000000000
         H           -0.356724363209     1.317474919176    -1.328770581427     1.007825032230
         H            1.124377636791     1.059190919176     1.315472418573     1.007825032230
         H           -1.276005363209     0.118146919176     1.340344418573     1.007825032230
         H            1.567702636791    -0.410848080824    -1.315722581427     1.007825032230
         H            0.511933636791    -1.399927080824     1.390120418573     1.007825032230
         H           -2.623434363209     0.232674919176    -1.392197581427     1.007825032230
         H           -3.142780363209     1.135358919176     0.049280418573     1.007825032230
         H           -0.841029363209     2.526446919176     1.177547418573     1.007825032230
         H            1.492362636791     2.840597919176    -0.247145581427     1.007825032230
         H            2.988570636791    -0.437891080824     1.117265418573     1.007825032230
         H            1.239729636791    -2.696862080824    -0.976534581427     1.007825032230
         H           -2.905894363209    -1.667360080824    -0.019994581427     1.007825032230

  Basis Set: AUG-CC-PVTZ
    Blend: AUG-CC-PVTZ
  Basis Set: (AUG-CC-PVTZ AUX)
    Blend: AUG-CC-PVTZ-JKFIT
	 Reference Energy          =    -683.5997801433657060 [Eh]
	 Singles Energy            =      -0.0000000000000000 [Eh]
	 Same-Spin Energy          =      -0.6660468159560859 [Eh]
	 Opposite-Spin Energy      =      -2.0462821040935379 [Eh]
	 Correlation Energy        =      -2.7123289200496239 [Eh]
	 Total Energy              =    -686.3121090634152779 [Eh]

	 ================> DF-SCS-MP2 Energies <==================
	-----------------------------------------------------------
	 SCS Same-Spin Scale       =       0.3333333333333333 [-]
	 SCS Opposite-Spin Scale   =       1.2000000000000000 [-]
	 SCS Same-Spin Energy      =      -0.2220156053186953 [Eh]
	 SCS Opposite-Spin Energy  =      -2.4555385249122454 [Eh]
	 SCS Correlation Energy    =      -2.6775541302309409 [Eh]
	 SCS Total Energy          =    -686.2773342735966935 [Eh]
	-----------------------------------------------------------

  Dipole Moment: [D]
     X:     0.1445      Y:     1.6372      Z:     1.3156     Total:     2.1052

*** Psi4 exiting successfully. Buy a developer a beer!
