                               Psi4 1.4a3.dev225

  ==> Input File <==

--------------------------------------------------------------------------
#psi4
#
memory 32 gb

molecule  {
0 1
  O       -0.7087730    -1.1193010    -0.2547420
  O       -0.7528450     2.5455330     0.2012150
  O        1.9863940     1.9788490    -0.3427120
  O        2.9116460    -0.6744970     0.1694850
  O        0.9156910    -2.7263170    -0.0671110
  O       -3.4138470    -0.8877920     0.1898460
  C       -0.3205030     1.2520640    -0.2382550
  C        1.1174820     1.0032940     0.2012350
  C       -1.2273260     0.1250970     0.2312670
  C        1.5822430    -0.3816820    -0.2226620
  C        0.5842200    -1.4279110     0.2862640
  C       -2.6649064     0.2027097    -0.3034232
  H       -0.3421180     1.3022200    -1.3325700
  H        1.1390340     1.0438120     1.3116130
  H       -1.2614040     0.1027740     1.3364960
  H        1.5822050    -0.4262820    -1.3195710
  H        0.5263940    -1.4152120     1.3863080
  H       -2.6088500     0.2174640    -1.3960030
  H       -3.1281860     1.1200450     0.0455410
  H       -0.8261980     2.5111300     1.1738140
  H        1.5071200     2.8252430    -0.2509020
  H        3.0032160    -0.4533580     1.1133610
  H        1.2544120    -2.7122960    -0.9801810
  H       -2.8913510    -1.6827050    -0.0240770
units angstrom
no_reorient  #important for SAPT in psi4, default
symmetry c1  #important for SAPT in psi4, default
}

set PROPERTIES_ORIGIN ["COM"]
properties('MP2/aug-cc-pvtz', properties = ['dipole'])
--------------------------------------------------------------------------

    Molecular point group: c1
  Charge       = 0
  Multiplicity = 1
  Basis Set: AUG-CC-PVTZ
    Blend: AUG-CC-PVTZ
  Basis Set: (AUG-CC-PVTZ AUX)
    Blend: AUG-CC-PVTZ-JKFIT

    Orbital Energies [Eh]
    ---------------------

    Doubly Occupied:

       1A    -20.598015     2A    -20.588254     3A    -20.583623
       4A    -20.579053     5A    -20.577169     6A    -20.563155
       7A    -11.356679     8A    -11.310007     9A    -11.309274
      10A    -11.307935    11A    -11.304856    12A    -11.287362
      13A     -1.439764    14A     -1.404738    15A     -1.387542
      16A     -1.373302    17A     -1.365810    18A     -1.354210
      19A     -1.079992    20A     -1.048499    21A     -0.945142
      22A     -0.890813    23A     -0.855214    24A     -0.842201
      25A     -0.753660    26A     -0.729161    27A     -0.720666
      28A     -0.709773    29A     -0.693396    30A     -0.673667
      31A     -0.661125    32A     -0.654974    33A     -0.620007
      34A     -0.615894    35A     -0.600440    36A     -0.587419
      37A     -0.570229    38A     -0.561826    39A     -0.555736
      40A     -0.543142    41A     -0.526984    42A     -0.516561
      43A     -0.502732    44A     -0.487290    45A     -0.473972
      46A     -0.462547    47A     -0.444655    48A     -0.429924

  @DF-RHF Final Energy:  -683.60385706018860

   => Energetics <=

    Nuclear Repulsion Energy =            824.3135418608565033
    One-Electron Energy =               -2576.9380171988809707
    Two-Electron Energy =                1069.0206182778358652
    Total Energy =                       -683.6038570601886022
  Basis Set: (AUG-CC-PVTZ AUX)
    Blend: AUG-CC-PVTZ-RI
    Molecular point group: c1

    Geometry (in Angstrom), charge = 0, multiplicity = 1:

       Center              X                  Y                   Z               Mass
    ------------   -----------------  -----------------  -----------------  -----------------
         O           -0.718770956317    -1.105988051975    -0.248419160362    15.994914619570
         O           -0.762842956317     2.558845948025     0.207537839638    15.994914619570
         O            1.976396043683     1.992161948025    -0.336389160362    15.994914619570
         O            2.901648043683    -0.661184051975     0.175807839638    15.994914619570
         O            0.905693043683    -2.713004051975    -0.060788160362    15.994914619570
         O           -3.423844956317    -0.874479051975     0.196168839638    15.994914619570
         C           -0.330500956317     1.265376948025    -0.231932160362    12.000000000000
         C            1.107484043683     1.016606948025     0.207557839638    12.000000000000
         C           -1.237323956317     0.138409948025     0.237589839638    12.000000000000
         C            1.572245043683    -0.368369051975    -0.216339160362    12.000000000000
         C            0.574222043683    -1.414598051975     0.292586839638    12.000000000000
         C           -2.674904356317     0.216022648025    -0.297100360362    12.000000000000
         H           -0.352115956317     1.315532948025    -1.326247160362     1.007825032230
         H            1.129036043683     1.057124948025     1.317935839638     1.007825032230
         H           -1.271401956317     0.116086948025     1.342818839638     1.007825032230
         H            1.572207043683    -0.412969051975    -1.313248160362     1.007825032230
         H            0.516396043683    -1.401899051975     1.392630839638     1.007825032230
         H           -2.618847956317     0.230776948025    -1.389680160362     1.007825032230
         H           -3.138183956317     1.133357948025     0.051863839638     1.007825032230
         H           -0.836195956317     2.524442948025     1.180136839638     1.007825032230
         H            1.497122043683     2.838555948025    -0.244579160362     1.007825032230
         H            2.993218043683    -0.440045051975     1.119683839638     1.007825032230
         H            1.244414043683    -2.698983051975    -0.973858160362     1.007825032230
         H           -2.901348956317    -1.669392051975    -0.017754160362     1.007825032230

  Basis Set: AUG-CC-PVTZ
    Blend: AUG-CC-PVTZ
  Basis Set: (AUG-CC-PVTZ AUX)
    Blend: AUG-CC-PVTZ-JKFIT
	 Reference Energy          =    -683.6038570601886022 [Eh]
	 Singles Energy            =      -0.0000000000000000 [Eh]
	 Same-Spin Energy          =      -0.6653214621797943 [Eh]
	 Opposite-Spin Energy      =      -2.0446264358648962 [Eh]
	 Correlation Energy        =      -2.7099478980446907 [Eh]
	 Total Energy              =    -686.3138049582332769 [Eh]

	 ================> DF-SCS-MP2 Energies <==================
	-----------------------------------------------------------
	 SCS Same-Spin Scale       =       0.3333333333333333 [-]
	 SCS Opposite-Spin Scale   =       1.2000000000000000 [-]
	 SCS Same-Spin Energy      =      -0.2217738207265981 [Eh]
	 SCS Opposite-Spin Energy  =      -2.4535517230378754 [Eh]
	 SCS Correlation Energy    =      -2.6753255437644734 [Eh]
	 SCS Total Energy          =    -686.2791826039531315 [Eh]
	-----------------------------------------------------------

  Dipole Moment: [D]
     X:     0.1779      Y:     1.5834      Z:     1.3624     Total:     2.0964

*** Psi4 exiting successfully. Buy a developer a beer!
