                               Psi4 1.3.2 release

  ==> Input File <==

--------------------------------------------------------------------------
#psi4
#
memory 32 gb

molecule  {
0 1
  O       -0.6466388    -1.1339994    -0.3906621
  O       -0.7529000     2.5454980     0.2011280
  O        1.9863450     1.9788980    -0.3426730
  O        2.9116540    -0.6744470     0.1695670
  O        0.9157630    -2.7262860    -0.0672430
  O       -3.4138550    -0.8877920     0.1899090
  C       -0.3205170     1.2520290    -0.2382820
  C        1.1174580     1.0033160     0.2012620
  C       -1.2273170     0.1250620     0.2312770
  C        1.5822600    -0.3816350    -0.2226430
  C        0.5842790    -1.4279170     0.2862350
  C       -2.6461720     0.2016390    -0.2964840
  H       -0.3421210     1.3021240    -1.3326030
  H        1.1389810     1.0438400     1.3116400
  H       -1.2614020     0.1027960     1.3365120
  H        1.5823060    -0.4261990    -1.3195550
  H        0.5265370    -1.4152780     1.3862880
  H       -2.6088310     0.2173240    -1.3960300
  H       -3.1281770     1.1200080     0.0454480
  H       -0.8264260     2.5110960     1.1737150
  H        1.5069660     2.8252470    -0.2509780
  H        3.0031740    -0.4532420     1.1134330
  H        1.2543330    -2.7122130    -0.9803670
  H       -2.8912910    -1.6827110    -0.0238270
units angstrom
no_reorient  #important for SAPT in psi4, default
symmetry c1  #important for SAPT in psi4, default
}

set PROPERTIES_ORIGIN ["COM"]
properties('MP2/aug-cc-pvtz', properties = ['dipole'])
--------------------------------------------------------------------------

    Molecular point group: c1
  Charge       = 0
  Multiplicity = 1
  Basis Set: AUG-CC-PVTZ
    Blend: AUG-CC-PVTZ
  Basis Set: (AUG-CC-PVTZ AUX)
    Blend: AUG-CC-PVTZ-JKFIT

    Orbital Energies [Eh]
    ---------------------

    Doubly Occupied:

       1A    -20.599495     2A    -20.590654     3A    -20.577547
       4A    -20.577287     5A    -20.576150     6A    -20.565407
       7A    -11.353392     8A    -11.316128     9A    -11.312124
      10A    -11.309363    11A    -11.301047    12A    -11.290641
      13A     -1.431729    14A     -1.405564    15A     -1.384457
      16A     -1.369782    17A     -1.364892    18A     -1.343008
      19A     -1.082374    20A     -1.047358    21A     -0.947270
      22A     -0.887881    23A     -0.850381    24A     -0.844156
      25A     -0.751430    26A     -0.726126    27A     -0.717953
      28A     -0.707223    29A     -0.690228    30A     -0.675123
      31A     -0.654127    32A     -0.652119    33A     -0.619967
      34A     -0.612357    35A     -0.599824    36A     -0.586518
      37A     -0.567995    38A     -0.558542    39A     -0.555127
      40A     -0.541222    41A     -0.524846    42A     -0.518421
      43A     -0.504575    44A     -0.483601    45A     -0.475336
      46A     -0.464578    47A     -0.447854    48A     -0.430879

  @DF-RHF Final Energy:  -683.59195426665951

   => Energetics <=

    Nuclear Repulsion Energy =            823.3696070959063036
    One-Electron Energy =               -2575.1350061443858976
    Two-Electron Energy =                1068.1734447818200806
    Total Energy =                       -683.5919542666595135
  Basis Set: (AUG-CC-PVTZ AUX)
    Blend: AUG-CC-PVTZ-RI
    Molecular point group: c1

    Geometry (in Angstrom), charge = 0, multiplicity = 1:

       Center              X                  Y                   Z               Mass
    ------------   -----------------  -----------------  -----------------  -----------------
         O           -0.663403647904    -1.119317179325    -0.372724050653    15.994914619570
         O           -0.769664847904     2.560180220675     0.219066049347    15.994914619570
         O            1.969580152096     1.993580220675    -0.324734950653    15.994914619570
         O            2.894889152096    -0.659764779325     0.187505049347    15.994914619570
         O            0.898998152096    -2.711603779325    -0.049304950653    15.994914619570
         O           -3.430619847904    -0.873109779325     0.207847049347    15.994914619570
         C           -0.337281847904     1.266711220675    -0.220343950653    12.000000000000
         C            1.100693152096     1.017998220675     0.219200049347    12.000000000000
         C           -1.244081847904     0.139744220675     0.249215049347    12.000000000000
         C            1.565495152096    -0.366952779325    -0.204704950653    12.000000000000
         C            0.567514152096    -1.413234779325     0.304173049347    12.000000000000
         C           -2.662936847904     0.216321220675    -0.278545950653    12.000000000000
         H           -0.358885847904     1.316806220675    -1.314664950653     1.007825032230
         H            1.122216152096     1.058522220675     1.329578049347     1.007825032230
         H           -1.278166847904     0.117478220675     1.354450049347     1.007825032230
         H            1.565541152096    -0.411516779325    -1.301616950653     1.007825032230
         H            0.509772152096    -1.400595779325     1.404226049347     1.007825032230
         H           -2.625595847904     0.232006220675    -1.378091950653     1.007825032230
         H           -3.144941847904     1.134690220675     0.063386049347     1.007825032230
         H           -0.843190847904     2.525778220675     1.191653049347     1.007825032230
         H            1.490201152096     2.839929220675    -0.233039950653     1.007825032230
         H            2.986409152096    -0.438559779325     1.131371049347     1.007825032230
         H            1.237568152096    -2.697530779325    -0.962428950653     1.007825032230
         H           -2.908055847904    -1.668028779325    -0.005888950653     1.007825032230

  Basis Set: AUG-CC-PVTZ
    Blend: AUG-CC-PVTZ
  Basis Set: (AUG-CC-PVTZ AUX)
    Blend: AUG-CC-PVTZ-JKFIT
	 Reference Energy          =    -683.5919542666595135 [Eh]
	 Singles Energy            =      -0.0000000000000000 [Eh]
	 Same-Spin Energy          =      -0.6662730460865001 [Eh]
	 Opposite-Spin Energy      =      -2.0480102531242768 [Eh]
	 Correlation Energy        =      -2.7142832992107770 [Eh]
	 Total Energy              =    -686.3062375658703331 [Eh]

	 ================> DF-SCS-MP2 Energies <==================
	-----------------------------------------------------------
	 SCS Same-Spin Scale       =       0.3333333333333333 [-]
	 SCS Opposite-Spin Scale   =       1.2000000000000000 [-]
	 SCS Same-Spin Energy      =      -0.2220910153621667 [Eh]
	 SCS Opposite-Spin Energy  =      -2.4576123037491322 [Eh]
	 SCS Correlation Energy    =      -2.6797033191112991 [Eh]
	 SCS Total Energy          =    -686.2716575857708676 [Eh]
	-----------------------------------------------------------

  Dipole Moment: [D]
     X:    -0.0449      Y:     1.7435      Z:     1.6155     Total:     2.3774

*** Psi4 exiting successfully. Buy a developer a beer!
