                               Psi4 1.3.2 release

  ==> Input File <==

--------------------------------------------------------------------------
#psi4
#
memory 32 gb

molecule  {
0 1
  O       -0.7087550    -1.1193400    -0.2546710
  O       -0.7529000     2.5454980     0.2011280
  O        1.9863450     1.9788980    -0.3426730
  O        2.9116540    -0.6744470     0.1695670
  O        0.9157630    -2.7262860    -0.0672430
  O       -3.4138550    -0.8877920     0.1899090
  C       -0.3205170     1.2520290    -0.2382820
  C        1.1174580     1.0033160     0.2012620
  C       -1.2273170     0.1250620     0.2312770
  C        1.5822600    -0.3816350    -0.2226430
  C        0.6081981    -1.5216043     0.2607288
  C       -2.6461720     0.2016390    -0.2964840
  H       -0.3421210     1.3021240    -1.3326030
  H        1.1389810     1.0438400     1.3116400
  H       -1.2614020     0.1027960     1.3365120
  H        1.5823060    -0.4261990    -1.3195550
  H        0.5265370    -1.4152780     1.3862880
  H       -2.6088310     0.2173240    -1.3960300
  H       -3.1281770     1.1200080     0.0454480
  H       -0.8264260     2.5110960     1.1737150
  H        1.5069660     2.8252470    -0.2509780
  H        3.0031740    -0.4532420     1.1134330
  H        1.2543330    -2.7122130    -0.9803670
  H       -2.8912910    -1.6827110    -0.0238270
units angstrom
no_reorient  #important for SAPT in psi4, default
symmetry c1  #important for SAPT in psi4, default
}

set PROPERTIES_ORIGIN ["COM"]
properties('MP2/aug-cc-pvtz', properties = ['dipole'])
--------------------------------------------------------------------------

    Molecular point group: c1
  Charge       = 0
  Multiplicity = 1
  Basis Set: AUG-CC-PVTZ
    Blend: AUG-CC-PVTZ
  Basis Set: (AUG-CC-PVTZ AUX)
    Blend: AUG-CC-PVTZ-JKFIT

    Orbital Energies [Eh]
    ---------------------

    Doubly Occupied:

       1A    -20.601278     2A    -20.595213     3A    -20.577039
       4A    -20.576197     5A    -20.576126     6A    -20.559521
       7A    -11.359984     8A    -11.308473     9A    -11.306642
      10A    -11.303750    11A    -11.303613    12A    -11.284017
      13A     -1.467855    14A     -1.405737    15A     -1.384464
      16A     -1.378379    17A     -1.364775    18A     -1.350964
      19A     -1.074561    20A     -1.041872    21A     -0.940946
      22A     -0.894195    23A     -0.853474    24A     -0.838101
      25A     -0.764812    26A     -0.725716    27A     -0.718516
      28A     -0.713072    29A     -0.695879    30A     -0.678859
      31A     -0.664935    32A     -0.658080    33A     -0.617202
      34A     -0.613210    35A     -0.602077    36A     -0.590003
      37A     -0.572555    38A     -0.556800    39A     -0.553299
      40A     -0.541318    41A     -0.527995    42A     -0.520282
      43A     -0.494727    44A     -0.479134    45A     -0.471032
      46A     -0.457469    47A     -0.442052    48A     -0.419602

  @DF-RHF Final Energy:  -683.59326298609005

   => Energetics <=

    Nuclear Repulsion Energy =            824.0154471749091272
    One-Electron Energy =               -2576.3658176516942149
    Two-Electron Energy =                1068.7571074906948070
    Total Energy =                       -683.5932629860901670
  Basis Set: (AUG-CC-PVTZ AUX)
    Blend: AUG-CC-PVTZ-RI
    Molecular point group: c1

    Geometry (in Angstrom), charge = 0, multiplicity = 1:

       Center              X                  Y                   Z               Mass
    ------------   -----------------  -----------------  -----------------  -----------------
         O           -0.721596151238    -1.099716343101    -0.247113137615    15.994914619570
         O           -0.765741151238     2.565121656899     0.208685862385    15.994914619570
         O            1.973503848762     1.998521656899    -0.335115137615    15.994914619570
         O            2.898812848762    -0.654823343101     0.177124862385    15.994914619570
         O            0.902921848762    -2.706662343101    -0.059685137615    15.994914619570
         O           -3.426696151238    -0.868168343101     0.197466862385    15.994914619570
         C           -0.333358151238     1.271652656899    -0.230724137615    12.000000000000
         C            1.104616848762     1.022939656899     0.208819862385    12.000000000000
         C           -1.240158151238     0.144685656899     0.238834862385    12.000000000000
         C            1.569418848762    -0.362011343101    -0.215085137615    12.000000000000
         C            0.595356948762    -1.501980643101     0.268286662385    12.000000000000
         C           -2.659013151238     0.221262656899    -0.288926137615    12.000000000000
         H           -0.354962151238     1.321747656899    -1.325045137615     1.007825032230
         H            1.126139848762     1.063463656899     1.319197862385     1.007825032230
         H           -1.274243151238     0.122419656899     1.344069862385     1.007825032230
         H            1.569464848762    -0.406575343101    -1.311997137615     1.007825032230
         H            0.513695848762    -1.395654343101     1.393845862385     1.007825032230
         H           -2.621672151238     0.236947656899    -1.388472137615     1.007825032230
         H           -3.141018151238     1.139631656899     0.053005862385     1.007825032230
         H           -0.839267151238     2.530719656899     1.181272862385     1.007825032230
         H            1.494124848762     2.844870656899    -0.243420137615     1.007825032230
         H            2.990332848762    -0.433618343101     1.120990862385     1.007825032230
         H            1.241491848762    -2.692589343101    -0.972809137615     1.007825032230
         H           -2.904132151238    -1.663087343101    -0.016269137615     1.007825032230

  Basis Set: AUG-CC-PVTZ
    Blend: AUG-CC-PVTZ
  Basis Set: (AUG-CC-PVTZ AUX)
    Blend: AUG-CC-PVTZ-JKFIT
	 Reference Energy          =    -683.5932629860900533 [Eh]
	 Singles Energy            =      -0.0000000000000000 [Eh]
	 Same-Spin Energy          =      -0.6657134173785637 [Eh]
	 Opposite-Spin Energy      =      -2.0442480371162812 [Eh]
	 Correlation Energy        =      -2.7099614544948452 [Eh]
	 Total Energy              =    -686.3032244405849269 [Eh]

	 ================> DF-SCS-MP2 Energies <==================
	-----------------------------------------------------------
	 SCS Same-Spin Scale       =       0.3333333333333333 [-]
	 SCS Opposite-Spin Scale   =       1.2000000000000000 [-]
	 SCS Same-Spin Energy      =      -0.2219044724595212 [Eh]
	 SCS Opposite-Spin Energy  =      -2.4530976445395374 [Eh]
	 SCS Correlation Energy    =      -2.6750021169990585 [Eh]
	 SCS Total Energy          =    -686.2682651030891066 [Eh]
	-----------------------------------------------------------

  Dipole Moment: [D]
     X:     0.4958      Y:     1.0304      Z:     1.2589     Total:     1.7007

*** Psi4 exiting successfully. Buy a developer a beer!
