                               Psi4 1.3.2 release

  ==> Input File <==

--------------------------------------------------------------------------
#psi4
#
memory 32 gb

molecule  {
0 1
  O       -0.7087550    -1.1193400    -0.2546710
  O       -0.7722977     2.5348225     0.2127537
  O        1.9863450     1.9788980    -0.3426730
  O        2.9116540    -0.6744470     0.1695670
  O        0.9157630    -2.7262860    -0.0672430
  O       -3.4138550    -0.8877920     0.1899090
  C       -0.3205170     1.2520290    -0.2382820
  C        1.1174580     1.0033160     0.2012620
  C       -1.2273170     0.1250620     0.2312770
  C        1.5822600    -0.3816350    -0.2226430
  C        0.5842790    -1.4279170     0.2862350
  C       -2.6461720     0.2016390    -0.2964840
  H       -0.3421210     1.3021240    -1.3326030
  H        1.1389810     1.0438400     1.3116400
  H       -1.2614020     0.1027960     1.3365120
  H        1.5823060    -0.4261990    -1.3195550
  H        0.5265370    -1.4152780     1.3862880
  H       -2.6088310     0.2173240    -1.3960300
  H       -3.1281770     1.1200080     0.0454480
  H       -0.8264260     2.5110960     1.1737150
  H        1.5069660     2.8252470    -0.2509780
  H        3.0031740    -0.4532420     1.1134330
  H        1.2543330    -2.7122130    -0.9803670
  H       -2.8912910    -1.6827110    -0.0238270
units angstrom
no_reorient  #important for SAPT in psi4, default
symmetry c1  #important for SAPT in psi4, default
}

set PROPERTIES_ORIGIN ["COM"]
properties('MP2/aug-cc-pvtz', properties = ['dipole'])
--------------------------------------------------------------------------

    Molecular point group: c1
  Charge       = 0
  Multiplicity = 1
  Basis Set: AUG-CC-PVTZ
    Blend: AUG-CC-PVTZ
  Basis Set: (AUG-CC-PVTZ AUX)
    Blend: AUG-CC-PVTZ-JKFIT

    Orbital Energies [Eh]
    ---------------------

    Doubly Occupied:

       1A    -20.596494     2A    -20.588022     3A    -20.583741
       4A    -20.579523     5A    -20.578173     6A    -20.562372
       7A    -11.356854     8A    -11.310847     9A    -11.310146
      10A    -11.307320    11A    -11.305399    12A    -11.286794
      13A     -1.440035    14A     -1.406290    15A     -1.388394
      16A     -1.372969    17A     -1.366526    18A     -1.352802
      19A     -1.081342    20A     -1.050924    21A     -0.946162
      22A     -0.891856    23A     -0.854435    24A     -0.842720
      25A     -0.754298    26A     -0.729490    27A     -0.721089
      28A     -0.711547    29A     -0.693954    30A     -0.674776
      31A     -0.660124    32A     -0.655156    33A     -0.619838
      34A     -0.616346    35A     -0.597855    36A     -0.587181
      37A     -0.570404    38A     -0.561989    39A     -0.556293
      40A     -0.544623    41A     -0.526857    42A     -0.516499
      43A     -0.502625    44A     -0.487091    45A     -0.474518
      46A     -0.462132    47A     -0.446583    48A     -0.430838

  @DF-RHF Final Energy:  -683.60469271381487

   => Energetics <=

    Nuclear Repulsion Energy =            824.7768776406262532
    One-Electron Energy =               -2577.8386450764942310
    Two-Electron Energy =                1069.4570747220529938
    Total Energy =                       -683.6046927138149840
  Basis Set: (AUG-CC-PVTZ AUX)
    Blend: AUG-CC-PVTZ-RI
    Molecular point group: c1

    Geometry (in Angstrom), charge = 0, multiplicity = 1:

       Center              X                  Y                   Z               Mass
    ------------   -----------------  -----------------  -----------------  -----------------
         O           -0.718279020745    -1.105011666592    -0.249845655780    15.994914619570
         O           -0.781821720745     2.549150833408     0.217579044220    15.994914619570
         O            1.976820979255     1.993226333408    -0.337847655780    15.994914619570
         O            2.902129979255    -0.660118666592     0.174392344220    15.994914619570
         O            0.906238979255    -2.711957666592    -0.062417655780    15.994914619570
         O           -3.423379020745    -0.873463666592     0.194734344220    15.994914619570
         C           -0.330041020745     1.266357333408    -0.233456655780    12.000000000000
         C            1.107933979255     1.017644333408     0.206087344220    12.000000000000
         C           -1.236841020745     0.139390333408     0.236102344220    12.000000000000
         C            1.572735979255    -0.367306666592    -0.217817655780    12.000000000000
         C            0.574754979255    -1.413588666592     0.291060344220    12.000000000000
         C           -2.655696020745     0.215967333408    -0.291658655780    12.000000000000
         H           -0.351645020745     1.316452333408    -1.327777655780     1.007825032230
         H            1.129456979255     1.058168333408     1.316465344220     1.007825032230
         H           -1.270926020745     0.117124333408     1.341337344220     1.007825032230
         H            1.572781979255    -0.411870666592    -1.314729655780     1.007825032230
         H            0.517012979255    -1.400949666592     1.391113344220     1.007825032230
         H           -2.618355020745     0.231652333408    -1.391204655780     1.007825032230
         H           -3.137701020745     1.134336333408     0.050273344220     1.007825032230
         H           -0.835950020745     2.525424333408     1.178540344220     1.007825032230
         H            1.497441979255     2.839575333408    -0.246152655780     1.007825032230
         H            2.993649979255    -0.438913666592     1.118258344220     1.007825032230
         H            1.244808979255    -2.697884666592    -0.975541655780     1.007825032230
         H           -2.900815020745    -1.668382666592    -0.019001655780     1.007825032230

  Basis Set: AUG-CC-PVTZ
    Blend: AUG-CC-PVTZ
  Basis Set: (AUG-CC-PVTZ AUX)
    Blend: AUG-CC-PVTZ-JKFIT
	 Reference Energy          =    -683.6046927138148703 [Eh]
	 Singles Energy            =      -0.0000000000000000 [Eh]
	 Same-Spin Energy          =      -0.6652408682367266 [Eh]
	 Opposite-Spin Energy      =      -2.0443578333988901 [Eh]
	 Correlation Energy        =      -2.7095987016356169 [Eh]
	 Total Energy              =    -686.3142914154504979 [Eh]

	 ================> DF-SCS-MP2 Energies <==================
	-----------------------------------------------------------
	 SCS Same-Spin Scale       =       0.3333333333333333 [-]
	 SCS Opposite-Spin Scale   =       1.2000000000000000 [-]
	 SCS Same-Spin Energy      =      -0.2217469560789088 [Eh]
	 SCS Opposite-Spin Energy  =      -2.4532294000786679 [Eh]
	 SCS Correlation Energy    =      -2.6749763561575768 [Eh]
	 SCS Total Energy          =    -686.2796690699724422 [Eh]
	-----------------------------------------------------------

  Dipole Moment: [D]
     X:     0.2737      Y:     1.6203      Z:     1.3573     Total:     2.1313

*** Psi4 exiting successfully. Buy a developer a beer!
