                               Psi4 1.3.2 release

  ==> Input File <==

--------------------------------------------------------------------------
#psi4
#
memory 32 gb

molecule  {
0 1
  O       -0.5810688    -1.0846906    -0.1839943
  O       -0.7529000     2.5454980     0.2011280
  O        1.9863450     1.9788980    -0.3426730
  O        2.9116540    -0.6744470     0.1695670
  O        0.9157630    -2.7262860    -0.0672430
  O       -3.4138550    -0.8877920     0.1899090
  C       -0.3205170     1.2520290    -0.2382820
  C        1.1174580     1.0033160     0.2012620
  C       -1.2273170     0.1250620     0.2312770
  C        1.5822600    -0.3816350    -0.2226430
  C        0.5842790    -1.4279170     0.2862350
  C       -2.6461720     0.2016390    -0.2964840
  H       -0.3421210     1.3021240    -1.3326030
  H        1.1389810     1.0438400     1.3116400
  H       -1.2614020     0.1027960     1.3365120
  H        1.5823060    -0.4261990    -1.3195550
  H        0.5265370    -1.4152780     1.3862880
  H       -2.6088310     0.2173240    -1.3960300
  H       -3.1281770     1.1200080     0.0454480
  H       -0.8264260     2.5110960     1.1737150
  H        1.5069660     2.8252470    -0.2509780
  H        3.0031740    -0.4532420     1.1134330
  H        1.2543330    -2.7122130    -0.9803670
  H       -2.8912910    -1.6827110    -0.0238270
units angstrom
no_reorient  #important for SAPT in psi4, default
symmetry c1  #important for SAPT in psi4, default
}

set PROPERTIES_ORIGIN ["COM"]
properties('MP2/aug-cc-pvtz', properties = ['dipole'])
--------------------------------------------------------------------------

    Molecular point group: c1
  Charge       = 0
  Multiplicity = 1
  Basis Set: AUG-CC-PVTZ
    Blend: AUG-CC-PVTZ
  Basis Set: (AUG-CC-PVTZ AUX)
    Blend: AUG-CC-PVTZ-JKFIT

    Orbital Energies [Eh]
    ---------------------

    Doubly Occupied:

       1A    -20.598334     2A    -20.583310     3A    -20.576061
       4A    -20.575997     5A    -20.570788     6A    -20.570227
       7A    -11.343632     8A    -11.318460     9A    -11.311251
      10A    -11.307400    11A    -11.296712    12A    -11.294975
      13A     -1.473654    14A     -1.405246    15A     -1.384756
      16A     -1.373740    17A     -1.365580    18A     -1.358475
      19A     -1.087119    20A     -1.056864    21A     -0.947209
      22A     -0.890287    23A     -0.862164    24A     -0.844450
      25A     -0.760232    26A     -0.737485    27A     -0.721948
      28A     -0.714275    29A     -0.700631    30A     -0.675625
      31A     -0.672214    32A     -0.653766    33A     -0.620732
      34A     -0.614671    35A     -0.604430    36A     -0.587737
      37A     -0.574126    38A     -0.564067    39A     -0.550669
      40A     -0.540677    41A     -0.531016    42A     -0.508746
      43A     -0.502319    44A     -0.493184    45A     -0.471236
      46A     -0.464896    47A     -0.446858    48A     -0.418024

  @DF-RHF Final Energy:  -683.59435830933342

   => Energetics <=

    Nuclear Repulsion Energy =            828.1465483664489966
    One-Electron Energy =               -2584.4293112413351992
    Two-Electron Energy =                1072.6884045655529007
    Total Energy =                       -683.5943583093333018
  Basis Set: (AUG-CC-PVTZ AUX)
    Blend: AUG-CC-PVTZ-RI
    Molecular point group: c1

    Geometry (in Angstrom), charge = 0, multiplicity = 1:

       Center              X                  Y                   Z               Mass
    ------------   -----------------  -----------------  -----------------  -----------------
         O           -0.603658188709    -1.074388448224    -0.184414418021    15.994914619570
         O           -0.775489388709     2.555800151776     0.200707881979    15.994914619570
         O            1.963755611291     1.989200151776    -0.343093118021    15.994914619570
         O            2.889064611291    -0.664144848224     0.169146881979    15.994914619570
         O            0.893173611291    -2.715983848224    -0.067663118021    15.994914619570
         O           -3.436444388709    -0.877489848224     0.189488881979    15.994914619570
         C           -0.343106388709     1.262331151776    -0.238702118021    12.000000000000
         C            1.094868611291     1.013618151776     0.200841881979    12.000000000000
         C           -1.249906388709     0.135364151776     0.230856881979    12.000000000000
         C            1.559670611291    -0.371332848224    -0.223063118021    12.000000000000
         C            0.561689611291    -1.417614848224     0.285814881979    12.000000000000
         C           -2.668761388709     0.211941151776    -0.296904118021    12.000000000000
         H           -0.364710388709     1.312426151776    -1.333023118021     1.007825032230
         H            1.116391611291     1.054142151776     1.311219881979     1.007825032230
         H           -1.283991388709     0.113098151776     1.336091881979     1.007825032230
         H            1.559716611291    -0.415896848224    -1.319975118021     1.007825032230
         H            0.503947611291    -1.404975848224     1.385867881979     1.007825032230
         H           -2.631420388709     0.227626151776    -1.396450118021     1.007825032230
         H           -3.150766388709     1.130310151776     0.045027881979     1.007825032230
         H           -0.849015388709     2.521398151776     1.173294881979     1.007825032230
         H            1.484376611291     2.835549151776    -0.251398118021     1.007825032230
         H            2.980584611291    -0.442939848224     1.113012881979     1.007825032230
         H            1.231743611291    -2.701910848224    -0.980787118021     1.007825032230
         H           -2.913880388709    -1.672408848224    -0.024247118021     1.007825032230

  Basis Set: AUG-CC-PVTZ
    Blend: AUG-CC-PVTZ
  Basis Set: (AUG-CC-PVTZ AUX)
    Blend: AUG-CC-PVTZ-JKFIT
	 Reference Energy          =    -683.5943583093334155 [Eh]
	 Singles Energy            =      -0.0000000000000000 [Eh]
	 Same-Spin Energy          =      -0.6646249534133015 [Eh]
	 Opposite-Spin Energy      =      -2.0409332109588392 [Eh]
	 Correlation Energy        =      -2.7055581643721407 [Eh]
	 Total Energy              =    -686.2999164737055935 [Eh]

	 ================> DF-SCS-MP2 Energies <==================
	-----------------------------------------------------------
	 SCS Same-Spin Scale       =       0.3333333333333333 [-]
	 SCS Opposite-Spin Scale   =       1.2000000000000000 [-]
	 SCS Same-Spin Energy      =      -0.2215416511377672 [Eh]
	 SCS Opposite-Spin Energy  =      -2.4491198531506071 [Eh]
	 SCS Correlation Energy    =      -2.6706615042883741 [Eh]
	 SCS Total Energy          =    -686.2650198136217341 [Eh]
	-----------------------------------------------------------

  Dipole Moment: [D]
     X:    -0.5372      Y:     1.7497      Z:     1.1823     Total:     2.1789

*** Psi4 exiting successfully. Buy a developer a beer!
