                               Psi4 1.3.2 release

  ==> Input File <==

--------------------------------------------------------------------------
#psi4
#
memory 32 gb

molecule  {
0 1
  O       -0.7087550    -1.1193400    -0.2546710
  O       -0.7529000     2.5454980     0.2011280
  O        1.9863450     1.9788980    -0.3426730
  O        2.9116540    -0.6744470     0.1695670
  O        0.9157630    -2.7262860    -0.0672430
  O       -3.4138550    -0.8877920     0.1899090
  C       -0.2903409     1.1617574    -0.2689486
  C        1.1174580     1.0033160     0.2012620
  C       -1.2273170     0.1250620     0.2312770
  C        1.5822600    -0.3816350    -0.2226430
  C        0.5842790    -1.4279170     0.2862350
  C       -2.6461720     0.2016390    -0.2964840
  H       -0.3421210     1.3021240    -1.3326030
  H        1.1389810     1.0438400     1.3116400
  H       -1.2614020     0.1027960     1.3365120
  H        1.5823060    -0.4261990    -1.3195550
  H        0.5265370    -1.4152780     1.3862880
  H       -2.6088310     0.2173240    -1.3960300
  H       -3.1281770     1.1200080     0.0454480
  H       -0.8264260     2.5110960     1.1737150
  H        1.5069660     2.8252470    -0.2509780
  H        3.0031740    -0.4532420     1.1134330
  H        1.2543330    -2.7122130    -0.9803670
  H       -2.8912910    -1.6827110    -0.0238270
units angstrom
no_reorient  #important for SAPT in psi4, default
symmetry c1  #important for SAPT in psi4, default
}

set PROPERTIES_ORIGIN ["COM"]
properties('MP2/aug-cc-pvtz', properties = ['dipole'])
--------------------------------------------------------------------------

    Molecular point group: c1
  Charge       = 0
  Multiplicity = 1
  Basis Set: AUG-CC-PVTZ
    Blend: AUG-CC-PVTZ
  Basis Set: (AUG-CC-PVTZ AUX)
    Blend: AUG-CC-PVTZ-JKFIT

    Orbital Energies [Eh]
    ---------------------

    Doubly Occupied:

       1A    -20.589025     2A    -20.585387     3A    -20.585378
       4A    -20.579900     5A    -20.579590     6A    -20.564978
       7A    -11.358809     8A    -11.312632     9A    -11.311876
      10A    -11.310263    11A    -11.306298    12A    -11.289472
      13A     -1.442676    14A     -1.396014    15A     -1.383399
      16A     -1.369929    17A     -1.356070    18A     -1.350763
      19A     -1.093043    20A     -1.055633    21A     -0.949270
      22A     -0.892180    23A     -0.858598    24A     -0.842964
      25A     -0.755047    26A     -0.730450    27A     -0.721066
      28A     -0.700733    29A     -0.691352    30A     -0.679340
      31A     -0.662938    32A     -0.655969    33A     -0.615881
      34A     -0.606273    35A     -0.596764    36A     -0.585877
      37A     -0.572206    38A     -0.565977    39A     -0.549555
      40A     -0.541236    41A     -0.526389    42A     -0.515597
      43A     -0.505859    44A     -0.488797    45A     -0.478042
      46A     -0.467092    47A     -0.450368    48A     -0.435997

  @DF-RHF Final Energy:  -683.59308773433781

   => Energetics <=

    Nuclear Repulsion Energy =            825.3271885958238272
    One-Electron Energy =               -2578.9146551635540163
    Two-Electron Energy =                1069.9943788333923749
    Total Energy =                       -683.5930877343378143
  Basis Set: (AUG-CC-PVTZ AUX)
    Blend: AUG-CC-PVTZ-RI
    Molecular point group: c1

    Geometry (in Angstrom), charge = 0, multiplicity = 1:

       Center              X                  Y                   Z               Mass
    ------------   -----------------  -----------------  -----------------  -----------------
         O           -0.722013137727    -1.099943976272    -0.246769232057    15.994914619570
         O           -0.766158137727     2.564894023728     0.209029767943    15.994914619570
         O            1.973086862273     1.998294023728    -0.334771232057    15.994914619570
         O            2.898395862273    -0.655050976272     0.177468767943    15.994914619570
         O            0.902504862273    -2.706889976272    -0.059341232057    15.994914619570
         O           -3.427113137727    -0.868395976272     0.197810767943    15.994914619570
         C           -0.303599037727     1.181153423728    -0.261046832057    12.000000000000
         C            1.104199862273     1.022712023728     0.209163767943    12.000000000000
         C           -1.240575137727     0.144458023728     0.239178767943    12.000000000000
         C            1.569001862273    -0.362238976272    -0.214741232057    12.000000000000
         C            0.571020862273    -1.408520976272     0.294136767943    12.000000000000
         C           -2.659430137727     0.221035023728    -0.288582232057    12.000000000000
         H           -0.355379137727     1.321520023728    -1.324701232057     1.007825032230
         H            1.125722862273     1.063236023728     1.319541767943     1.007825032230
         H           -1.274660137727     0.122192023728     1.344413767943     1.007825032230
         H            1.569047862273    -0.406802976272    -1.311653232057     1.007825032230
         H            0.513278862273    -1.395881976272     1.394189767943     1.007825032230
         H           -2.622089137727     0.236720023728    -1.388128232057     1.007825032230
         H           -3.141435137727     1.139404023728     0.053349767943     1.007825032230
         H           -0.839684137727     2.530492023728     1.181616767943     1.007825032230
         H            1.493707862273     2.844643023728    -0.243076232057     1.007825032230
         H            2.989915862273    -0.433845976272     1.121334767943     1.007825032230
         H            1.241074862273    -2.692816976272    -0.972465232057     1.007825032230
         H           -2.904549137727    -1.663314976272    -0.015925232057     1.007825032230

  Basis Set: AUG-CC-PVTZ
    Blend: AUG-CC-PVTZ
  Basis Set: (AUG-CC-PVTZ AUX)
    Blend: AUG-CC-PVTZ-JKFIT
	 Reference Energy          =    -683.5930877343378143 [Eh]
	 Singles Energy            =      -0.0000000000000000 [Eh]
	 Same-Spin Energy          =      -0.6662943159209006 [Eh]
	 Opposite-Spin Energy      =      -2.0471332867747138 [Eh]
	 Correlation Energy        =      -2.7134276026956146 [Eh]
	 Total Energy              =    -686.3065153370333746 [Eh]

	 ================> DF-SCS-MP2 Energies <==================
	-----------------------------------------------------------
	 SCS Same-Spin Scale       =       0.3333333333333333 [-]
	 SCS Opposite-Spin Scale   =       1.2000000000000000 [-]
	 SCS Same-Spin Energy      =      -0.2220981053069669 [Eh]
	 SCS Opposite-Spin Energy  =      -2.4565599441296566 [Eh]
	 SCS Correlation Energy    =      -2.6786580494366237 [Eh]
	 SCS Total Energy          =    -686.2717457837744632 [Eh]
	-----------------------------------------------------------

  Dipole Moment: [D]
     X:     0.2939      Y:     1.2837      Z:     1.2881     Total:     1.8422

*** Psi4 exiting successfully. Buy a developer a beer!
