                               Psi4 1.4a3.dev225

  ==> Input File <==

--------------------------------------------------------------------------
#psi4
#
memory 32 gb

molecule  {
0 1
  O       -0.7087730    -1.1193010    -0.2547420
  O       -0.7528450     2.5455330     0.2012150
  O        1.9863940     1.9788490    -0.3427120
  O        2.9116460    -0.6744970     0.1694850
  O        0.9156910    -2.7263170    -0.0671110
  O       -3.4138470    -0.8877920     0.1898460
  C       -0.3205030     1.2520640    -0.2382550
  C        1.1481828     1.0377627     0.1820160
  C       -1.2273260     0.1250970     0.2312670
  C        1.5822430    -0.3816820    -0.2226620
  C        0.5842200    -1.4279110     0.2862640
  C       -2.6461850     0.2016990    -0.2964600
  H       -0.3421180     1.3022200    -1.3325700
  H        1.1390340     1.0438120     1.3116130
  H       -1.2614040     0.1027740     1.3364960
  H        1.5822050    -0.4262820    -1.3195710
  H        0.5263940    -1.4152120     1.3863080
  H       -2.6088500     0.2174640    -1.3960030
  H       -3.1281860     1.1200450     0.0455410
  H       -0.8261980     2.5111300     1.1738140
  H        1.5071200     2.8252430    -0.2509020
  H        3.0032160    -0.4533580     1.1133610
  H        1.2544120    -2.7122960    -0.9801810
  H       -2.8913510    -1.6827050    -0.0240770
units angstrom
no_reorient  #important for SAPT in psi4, default
symmetry c1  #important for SAPT in psi4, default
}

set PROPERTIES_ORIGIN ["COM"]
properties('MP2/aug-cc-pvtz', properties = ['dipole'])
--------------------------------------------------------------------------

    Molecular point group: c1
  Charge       = 0
  Multiplicity = 1
  Basis Set: AUG-CC-PVTZ
    Blend: AUG-CC-PVTZ
  Basis Set: (AUG-CC-PVTZ AUX)
    Blend: AUG-CC-PVTZ-JKFIT

    Orbital Energies [Eh]
    ---------------------

    Doubly Occupied:

       1A    -20.597150     2A    -20.587506     3A    -20.583596
       4A    -20.583063     5A    -20.577702     6A    -20.562427
       7A    -11.356594     8A    -11.311004     9A    -11.309077
      10A    -11.307681    11A    -11.303995    12A    -11.287038
      13A     -1.439668    14A     -1.414723    15A     -1.390352
      16A     -1.375834    17A     -1.369503    18A     -1.352591
      19A     -1.074677    20A     -1.048484    21A     -0.943874
      22A     -0.891184    23A     -0.853817    24A     -0.840473
      25A     -0.756543    26A     -0.731851    27A     -0.721604
      28A     -0.708169    29A     -0.692321    30A     -0.676722
      31A     -0.664858    32A     -0.656986    33A     -0.620819
      34A     -0.615177    35A     -0.598345    36A     -0.587545
      37A     -0.576382    38A     -0.562584    39A     -0.555529
      40A     -0.546010    41A     -0.526788    42A     -0.516274
      43A     -0.499582    44A     -0.486158    45A     -0.468440
      46A     -0.459382    47A     -0.442861    48A     -0.430610

  @DF-RHF Final Energy:  -683.60223889252472

   => Energetics <=

    Nuclear Repulsion Energy =            824.4121778626700916
    One-Electron Energy =               -2577.1017264165329834
    Two-Electron Energy =                1069.0873096613381676
    Total Energy =                       -683.6022388925248379
  Basis Set: (AUG-CC-PVTZ AUX)
    Blend: AUG-CC-PVTZ-RI
    Molecular point group: c1

    Geometry (in Angstrom), charge = 0, multiplicity = 1:

       Center              X                  Y                   Z               Mass
    ------------   -----------------  -----------------  -----------------  -----------------
         O           -0.722064609770    -1.108217800089    -0.247602394658    15.994914619570
         O           -0.766136609770     2.556616199911     0.208354605342    15.994914619570
         O            1.973102390230     1.989932199911    -0.335572394658    15.994914619570
         O            2.898354390230    -0.663413800089     0.176624605342    15.994914619570
         O            0.902399390230    -2.715233800089    -0.059971394658    15.994914619570
         O           -3.427138609770    -0.876708800089     0.196985605342    15.994914619570
         C           -0.333794609770     1.263147199911    -0.231115394658    12.000000000000
         C            1.134891190230     1.048845899911     0.189155605342    12.000000000000
         C           -1.240617609770     0.136180199911     0.238406605342    12.000000000000
         C            1.568951390230    -0.370598800089    -0.215522394658    12.000000000000
         C            0.570928390230    -1.416827800089     0.293403605342    12.000000000000
         C           -2.659476609770     0.212782199911    -0.289320394658    12.000000000000
         H           -0.355409609770     1.313303199911    -1.325430394658     1.007825032230
         H            1.125742390230     1.054895199911     1.318752605342     1.007825032230
         H           -1.274695609770     0.113857199911     1.343635605342     1.007825032230
         H            1.568913390230    -0.415198800089    -1.312431394658     1.007825032230
         H            0.513102390230    -1.404128800089     1.393447605342     1.007825032230
         H           -2.622141609770     0.228547199911    -1.388863394658     1.007825032230
         H           -3.141477609770     1.131128199911     0.052680605342     1.007825032230
         H           -0.839489609770     2.522213199911     1.180953605342     1.007825032230
         H            1.493828390230     2.836326199911    -0.243762394658     1.007825032230
         H            2.989924390230    -0.442274800089     1.120500605342     1.007825032230
         H            1.241120390230    -2.701212800089    -0.973041394658     1.007825032230
         H           -2.904642609770    -1.671621800089    -0.016937394658     1.007825032230

  Basis Set: AUG-CC-PVTZ
    Blend: AUG-CC-PVTZ
  Basis Set: (AUG-CC-PVTZ AUX)
    Blend: AUG-CC-PVTZ-JKFIT
	 Reference Energy          =    -683.6022388925247242 [Eh]
	 Singles Energy            =      -0.0000000000000000 [Eh]
	 Same-Spin Energy          =      -0.6653217401339037 [Eh]
	 Opposite-Spin Energy      =      -2.0441181508319364 [Eh]
	 Correlation Energy        =      -2.7094398909658399 [Eh]
	 Total Energy              =    -686.3116787834906063 [Eh]

	 ================> DF-SCS-MP2 Energies <==================
	-----------------------------------------------------------
	 SCS Same-Spin Scale       =       0.3333333333333333 [-]
	 SCS Opposite-Spin Scale   =       1.2000000000000000 [-]
	 SCS Same-Spin Energy      =      -0.2217739133779679 [Eh]
	 SCS Opposite-Spin Energy  =      -2.4529417809983234 [Eh]
	 SCS Correlation Energy    =      -2.6747156943762911 [Eh]
	 SCS Total Energy          =    -686.2769545869010699 [Eh]
	-----------------------------------------------------------

  Dipole Moment: [D]
     X:     0.3155      Y:     1.7314      Z:     1.2881     Total:     2.1809

*** Psi4 exiting successfully. Buy a developer a beer!
