                               Psi4 1.3.2 release

  ==> Input File <==

--------------------------------------------------------------------------
#psi4
#
memory 32 gb

molecule  {
0 1
  O       -0.7087550    -1.1193400    -0.2546710
  O       -0.7529000     2.5454980     0.2011280
  O        1.9863450     1.9788980    -0.3426730
  O        2.9116540    -0.6744470     0.1695670
  O        0.9157630    -2.7262860    -0.0672430
  O       -3.4138550    -0.8877920     0.1899090
  C       -0.3205170     1.2520290    -0.2382820
  C        1.1174580     1.0033160     0.2012620
  C       -1.2273170     0.1250620     0.2312770
  C        1.5822600    -0.3816350    -0.2226430
  C        0.5842790    -1.4279170     0.2862350
  C       -2.8333850     0.2117431    -0.3661202
  H       -0.3421210     1.3021240    -1.3326030
  H        1.1389810     1.0438400     1.3116400
  H       -1.2614020     0.1027960     1.3365120
  H        1.5823060    -0.4261990    -1.3195550
  H        0.5265370    -1.4152780     1.3862880
  H       -2.6088310     0.2173240    -1.3960300
  H       -3.1281770     1.1200080     0.0454480
  H       -0.8264260     2.5110960     1.1737150
  H        1.5069660     2.8252470    -0.2509780
  H        3.0031740    -0.4532420     1.1134330
  H        1.2543330    -2.7122130    -0.9803670
  H       -2.8912910    -1.6827110    -0.0238270
units angstrom
no_reorient  #important for SAPT in psi4, default
symmetry c1  #important for SAPT in psi4, default
}

set PROPERTIES_ORIGIN ["COM"]
properties('MP2/aug-cc-pvtz', properties = ['dipole'])
--------------------------------------------------------------------------

    Molecular point group: c1
  Charge       = 0
  Multiplicity = 1
  Basis Set: AUG-CC-PVTZ
    Blend: AUG-CC-PVTZ
  Basis Set: (AUG-CC-PVTZ AUX)
    Blend: AUG-CC-PVTZ-JKFIT

    Orbital Energies [Eh]
    ---------------------

    Doubly Occupied:

       1A    -20.594826     2A    -20.585261     3A    -20.581740
       4A    -20.576892     5A    -20.574034     6A    -20.568835
       7A    -11.354107     8A    -11.305770     9A    -11.304448
      10A    -11.303348    11A    -11.302264    12A    -11.293702
      13A     -1.436003    14A     -1.401361    15A     -1.390381
      16A     -1.381270    17A     -1.363811    18A     -1.356438
      19A     -1.073961    20A     -1.029999    21A     -0.940639
      22A     -0.887096    23A     -0.860259    24A     -0.838617
      25A     -0.750921    26A     -0.728210    27A     -0.717067
      28A     -0.710104    29A     -0.695603    30A     -0.668094
      31A     -0.664149    32A     -0.652550    33A     -0.636853
      34A     -0.616151    35A     -0.606824    36A     -0.587401
      37A     -0.568259    38A     -0.560060    39A     -0.552954
      40A     -0.539843    41A     -0.522391    42A     -0.513594
      43A     -0.502965    44A     -0.490572    45A     -0.470579
      46A     -0.460014    47A     -0.433545    48A     -0.400895

  @DF-RHF Final Energy:  -683.57613842839896

   => Energetics <=

    Nuclear Repulsion Energy =            821.2025716469745475
    One-Electron Energy =               -2570.8481004959667189
    Two-Electron Energy =                1066.0693904205932085
    Total Energy =                       -683.5761384283989628
  Basis Set: (AUG-CC-PVTZ AUX)
    Blend: AUG-CC-PVTZ-RI
    Molecular point group: c1

    Geometry (in Angstrom), charge = 0, multiplicity = 1:

       Center              X                  Y                   Z               Mass
    ------------   -----------------  -----------------  -----------------  -----------------
         O           -0.707525632924    -1.106633333907    -0.244172173293    15.994914619570
         O           -0.751670632924     2.558204666093     0.211626826707    15.994914619570
         O            1.987574367076     1.991604666093    -0.332174173293    15.994914619570
         O            2.912883367076    -0.661740333907     0.180065826707    15.994914619570
         O            0.916992367076    -2.713579333907    -0.056744173293    15.994914619570
         O           -3.412625632924    -0.875085333907     0.200407826707    15.994914619570
         C           -0.319287632924     1.264735666093    -0.227783173293    12.000000000000
         C            1.118687367076     1.016022666093     0.211760826707    12.000000000000
         C           -1.226087632924     0.137768666093     0.241775826707    12.000000000000
         C            1.583489367076    -0.368928333907    -0.212144173293    12.000000000000
         C            0.585508367076    -1.415210333907     0.296733826707    12.000000000000
         C           -2.832155632924     0.224449766093    -0.355621373293    12.000000000000
         H           -0.340891632924     1.314830666093    -1.322104173293     1.007825032230
         H            1.140210367076     1.056546666093     1.322138826707     1.007825032230
         H           -1.260172632924     0.115502666093     1.347010826707     1.007825032230
         H            1.583535367076    -0.413492333907    -1.309056173293     1.007825032230
         H            0.527766367076    -1.402571333907     1.396786826707     1.007825032230
         H           -2.607601632924     0.230030666093    -1.385531173293     1.007825032230
         H           -3.126947632924     1.132714666093     0.055946826707     1.007825032230
         H           -0.825196632924     2.523802666093     1.184213826707     1.007825032230
         H            1.508195367076     2.837953666093    -0.240479173293     1.007825032230
         H            3.004403367076    -0.440535333907     1.123931826707     1.007825032230
         H            1.255562367076    -2.699506333907    -0.969868173293     1.007825032230
         H           -2.890061632924    -1.670004333907    -0.013328173293     1.007825032230

  Basis Set: AUG-CC-PVTZ
    Blend: AUG-CC-PVTZ
  Basis Set: (AUG-CC-PVTZ AUX)
    Blend: AUG-CC-PVTZ-JKFIT
	 Reference Energy          =    -683.5761384283989628 [Eh]
	 Singles Energy            =      -0.0000000000000000 [Eh]
	 Same-Spin Energy          =      -0.6656303948198903 [Eh]
	 Opposite-Spin Energy      =      -2.0452473258644739 [Eh]
	 Correlation Energy        =      -2.7108777206843642 [Eh]
	 Total Energy              =    -686.2870161490833425 [Eh]

	 ================> DF-SCS-MP2 Energies <==================
	-----------------------------------------------------------
	 SCS Same-Spin Scale       =       0.3333333333333333 [-]
	 SCS Opposite-Spin Scale   =       1.2000000000000000 [-]
	 SCS Same-Spin Energy      =      -0.2218767982732968 [Eh]
	 SCS Opposite-Spin Energy  =      -2.4542967910373688 [Eh]
	 SCS Correlation Energy    =      -2.6761735893106655 [Eh]
	 SCS Total Energy          =    -686.2523120177096416 [Eh]
	-----------------------------------------------------------

  Dipole Moment: [D]
     X:    -0.2188      Y:     1.4210      Z:     1.2981     Total:     1.9371

*** Psi4 exiting successfully. Buy a developer a beer!
