                               Psi4 1.3.2 release

  ==> Input File <==

--------------------------------------------------------------------------
#psi4
#
memory 32 gb

molecule  {
0 1
  O       -0.7087550    -1.1193400    -0.2546710
  O       -0.7529000     2.5454980     0.2011280
  O        1.9863450     1.9788980    -0.3426730
  O        2.9116540    -0.6744470     0.1695670
  O        0.9157630    -2.7262860    -0.0672430
  O       -3.3330580    -0.9187136     0.2380933
  C       -0.3205170     1.2520290    -0.2382820
  C        1.1174580     1.0033160     0.2012620
  C       -1.2273170     0.1250620     0.2312770
  C        1.5822600    -0.3816350    -0.2226430
  C        0.5842790    -1.4279170     0.2862350
  C       -2.6461720     0.2016390    -0.2964840
  H       -0.3421210     1.3021240    -1.3326030
  H        1.1389810     1.0438400     1.3116400
  H       -1.2614020     0.1027960     1.3365120
  H        1.5823060    -0.4261990    -1.3195550
  H        0.5265370    -1.4152780     1.3862880
  H       -2.6088310     0.2173240    -1.3960300
  H       -3.1281770     1.1200080     0.0454480
  H       -0.8264260     2.5110960     1.1737150
  H        1.5069660     2.8252470    -0.2509780
  H        3.0031740    -0.4532420     1.1134330
  H        1.2543330    -2.7122130    -0.9803670
  H       -2.8912910    -1.6827110    -0.0238270
units angstrom
no_reorient  #important for SAPT in psi4, default
symmetry c1  #important for SAPT in psi4, default
}

set PROPERTIES_ORIGIN ["COM"]
properties('MP2/aug-cc-pvtz', properties = ['dipole'])
--------------------------------------------------------------------------

    Molecular point group: c1
  Charge       = 0
  Multiplicity = 1
  Basis Set: AUG-CC-PVTZ
    Blend: AUG-CC-PVTZ
  Basis Set: (AUG-CC-PVTZ AUX)
    Blend: AUG-CC-PVTZ-JKFIT

    Orbital Energies [Eh]
    ---------------------

    Doubly Occupied:

       1A    -20.597628     2A    -20.586547     3A    -20.582783
       4A    -20.578339     5A    -20.576448     6A    -20.556225
       7A    -11.355649     8A    -11.308842     9A    -11.308205
      10A    -11.305524    11A    -11.304023    12A    -11.289252
      13A     -1.439141    14A     -1.404190    15A     -1.388265
      16A     -1.377714    17A     -1.365554    18A     -1.355621
      19A     -1.079784    20A     -1.050799    21A     -0.948477
      22A     -0.890128    23A     -0.855883    24A     -0.841684
      25A     -0.753585    26A     -0.729796    27A     -0.721285
      28A     -0.711173    29A     -0.696070    30A     -0.673401
      31A     -0.663622    32A     -0.654641    33A     -0.619564
      34A     -0.614479    35A     -0.602446    36A     -0.586702
      37A     -0.569783    38A     -0.560390    39A     -0.554845
      40A     -0.542747    41A     -0.525478    42A     -0.515851
      43A     -0.501181    44A     -0.488326    45A     -0.473180
      46A     -0.464688    47A     -0.444462    48A     -0.429148

  @DF-RHF Final Energy:  -683.60318427444327

   => Energetics <=

    Nuclear Repulsion Energy =            826.2542189570748405
    One-Electron Energy =               -2580.8277051637105615
    Two-Electron Energy =                1070.9703019321923421
    Total Energy =                       -683.6031842744432652
  Basis Set: (AUG-CC-PVTZ AUX)
    Blend: AUG-CC-PVTZ-RI
    Molecular point group: c1

    Geometry (in Angstrom), charge = 0, multiplicity = 1:

       Center              X                  Y                   Z               Mass
    ------------   -----------------  -----------------  -----------------  -----------------
         O           -0.727179251318    -1.103213218589    -0.253093132637    15.994914619570
         O           -0.771324251318     2.561624781411     0.202705867363    15.994914619570
         O            1.967920748682     1.995024781411    -0.341095132637    15.994914619570
         O            2.893229748682    -0.658320218589     0.171144867363    15.994914619570
         O            0.897338748682    -2.710159218589    -0.065665132637    15.994914619570
         O           -3.351482251318    -0.902586818589     0.239671167363    15.994914619570
         C           -0.338941251318     1.268155781411    -0.236704132637    12.000000000000
         C            1.099033748682     1.019442781411     0.202839867363    12.000000000000
         C           -1.245741251318     0.141188781411     0.232854867363    12.000000000000
         C            1.563835748682    -0.365508218589    -0.221065132637    12.000000000000
         C            0.565854748682    -1.411790218589     0.287812867363    12.000000000000
         C           -2.664596251318     0.217765781411    -0.294906132637    12.000000000000
         H           -0.360545251318     1.318250781411    -1.331025132637     1.007825032230
         H            1.120556748682     1.059966781411     1.313217867363     1.007825032230
         H           -1.279826251318     0.118922781411     1.338089867363     1.007825032230
         H            1.563881748682    -0.410072218589    -1.317977132637     1.007825032230
         H            0.508112748682    -1.399151218589     1.387865867363     1.007825032230
         H           -2.627255251318     0.233450781411    -1.394452132637     1.007825032230
         H           -3.146601251318     1.136134781411     0.047025867363     1.007825032230
         H           -0.844850251318     2.527222781411     1.175292867363     1.007825032230
         H            1.488541748682     2.841373781411    -0.249400132637     1.007825032230
         H            2.984749748682    -0.437115218589     1.115010867363     1.007825032230
         H            1.235908748682    -2.696086218589    -0.978789132637     1.007825032230
         H           -2.909715251318    -1.666584218589    -0.022249132637     1.007825032230

  Basis Set: AUG-CC-PVTZ
    Blend: AUG-CC-PVTZ
  Basis Set: (AUG-CC-PVTZ AUX)
    Blend: AUG-CC-PVTZ-JKFIT
	 Reference Energy          =    -683.6031842744432652 [Eh]
	 Singles Energy            =      -0.0000000000000000 [Eh]
	 Same-Spin Energy          =      -0.6648061861678155 [Eh]
	 Opposite-Spin Energy      =      -2.0431377406760287 [Eh]
	 Correlation Energy        =      -2.7079439268438441 [Eh]
	 Total Energy              =    -686.3111282012871470 [Eh]

	 ================> DF-SCS-MP2 Energies <==================
	-----------------------------------------------------------
	 SCS Same-Spin Scale       =       0.3333333333333333 [-]
	 SCS Opposite-Spin Scale   =       1.2000000000000000 [-]
	 SCS Same-Spin Energy      =      -0.2216020620559385 [Eh]
	 SCS Opposite-Spin Energy  =      -2.4517652888112345 [Eh]
	 SCS Correlation Energy    =      -2.6733673508671729 [Eh]
	 SCS Total Energy          =    -686.2765516253103897 [Eh]
	-----------------------------------------------------------

  Dipole Moment: [D]
     X:    -0.0027      Y:     1.6377      Z:     1.2336     Total:     2.0503

*** Psi4 exiting successfully. Buy a developer a beer!
