                               Psi4 1.3.2 release

  ==> Input File <==

--------------------------------------------------------------------------
#psi4
#
memory 32 gb

molecule  {
0 1
  O       -0.7443695    -1.1992205    -0.2058290
  O       -0.7529000     2.5454980     0.2011280
  O        1.9863450     1.9788980    -0.3426730
  O        2.9116540    -0.6744470     0.1695670
  O        0.9157630    -2.7262860    -0.0672430
  O       -3.4138550    -0.8877920     0.1899090
  C       -0.3205170     1.2520290    -0.2382820
  C        1.1174580     1.0033160     0.2012620
  C       -1.2273170     0.1250620     0.2312770
  C        1.5822600    -0.3816350    -0.2226430
  C        0.5842790    -1.4279170     0.2862350
  C       -2.6461720     0.2016390    -0.2964840
  H       -0.3421210     1.3021240    -1.3326030
  H        1.1389810     1.0438400     1.3116400
  H       -1.2614020     0.1027960     1.3365120
  H        1.5823060    -0.4261990    -1.3195550
  H        0.5265370    -1.4152780     1.3862880
  H       -2.6088310     0.2173240    -1.3960300
  H       -3.1281770     1.1200080     0.0454480
  H       -0.8264260     2.5110960     1.1737150
  H        1.5069660     2.8252470    -0.2509780
  H        3.0031740    -0.4532420     1.1134330
  H        1.2543330    -2.7122130    -0.9803670
  H       -2.8912910    -1.6827110    -0.0238270
units angstrom
no_reorient  #important for SAPT in psi4, default
symmetry c1  #important for SAPT in psi4, default
}

set PROPERTIES_ORIGIN ["COM"]
properties('MP2/aug-cc-pvtz', properties = ['dipole'])
--------------------------------------------------------------------------

    Molecular point group: c1
  Charge       = 0
  Multiplicity = 1
  Basis Set: AUG-CC-PVTZ
    Blend: AUG-CC-PVTZ
  Basis Set: (AUG-CC-PVTZ AUX)
    Blend: AUG-CC-PVTZ-JKFIT

    Orbital Energies [Eh]
    ---------------------

    Doubly Occupied:

       1A    -20.602045     2A    -20.589538     3A    -20.581479
       4A    -20.580009     5A    -20.578673     6A    -20.561472
       7A    -11.354744     8A    -11.314688     9A    -11.311320
      10A    -11.311004    11A    -11.307596    12A    -11.288053
      13A     -1.434764    14A     -1.407474    15A     -1.388356
      16A     -1.370386    17A     -1.366920    18A     -1.346161
      19A     -1.085407    20A     -1.048203    21A     -0.946848
      22A     -0.891112    23A     -0.854910    24A     -0.841502
      25A     -0.751007    26A     -0.728260    27A     -0.722236
      28A     -0.709955    29A     -0.691359    30A     -0.673862
      31A     -0.657201    32A     -0.654629    33A     -0.622755
      34A     -0.616005    35A     -0.597630    36A     -0.587283
      37A     -0.571298    38A     -0.562661    39A     -0.557048
      40A     -0.544232    41A     -0.524251    42A     -0.512264
      43A     -0.502796    44A     -0.487656    45A     -0.476026
      46A     -0.463245    47A     -0.445409    48A     -0.435535

  @DF-RHF Final Energy:  -683.59893528785915

   => Energetics <=

    Nuclear Repulsion Energy =            823.0332691858470753
    One-Electron Energy =               -2574.3498774612353373
    Two-Electron Energy =                1067.7176729875291130
    Total Energy =                       -683.5989352878591490
  Basis Set: (AUG-CC-PVTZ AUX)
    Blend: AUG-CC-PVTZ-RI
    Molecular point group: c1

    Geometry (in Angstrom), charge = 0, multiplicity = 1:

       Center              X                  Y                   Z               Mass
    ------------   -----------------  -----------------  -----------------  -----------------
         O           -0.752452992862    -1.178744731082    -0.204309555704    15.994914619570
         O           -0.760983492862     2.565973768918     0.202647444296    15.994914619570
         O            1.978261507138     1.999373768918    -0.341153555704    15.994914619570
         O            2.903570507138    -0.653971231082     0.171086444296    15.994914619570
         O            0.907679507138    -2.705810231082    -0.065723555704    15.994914619570
         O           -3.421938492862    -0.867316231082     0.191428444296    15.994914619570
         C           -0.328600492862     1.272504768918    -0.236762555704    12.000000000000
         C            1.109374507138     1.023791768918     0.202781444296    12.000000000000
         C           -1.235400492862     0.145537768918     0.232796444296    12.000000000000
         C            1.574176507138    -0.361159231082    -0.221123555704    12.000000000000
         C            0.576195507138    -1.407441231082     0.287754444296    12.000000000000
         C           -2.654255492862     0.222114768918    -0.294964555704    12.000000000000
         H           -0.350204492862     1.322599768918    -1.331083555704     1.007825032230
         H            1.130897507138     1.064315768918     1.313159444296     1.007825032230
         H           -1.269485492862     0.123271768918     1.338031444296     1.007825032230
         H            1.574222507138    -0.405723231082    -1.318035555704     1.007825032230
         H            0.518453507138    -1.394802231082     1.387807444296     1.007825032230
         H           -2.616914492862     0.237799768918    -1.394510555704     1.007825032230
         H           -3.136260492862     1.140483768918     0.046967444296     1.007825032230
         H           -0.834509492862     2.531571768918     1.175234444296     1.007825032230
         H            1.498882507138     2.845722768918    -0.249458555704     1.007825032230
         H            2.995090507138    -0.432766231082     1.114952444296     1.007825032230
         H            1.246249507138    -2.691737231082    -0.978847555704     1.007825032230
         H           -2.899374492862    -1.662235231082    -0.022307555704     1.007825032230

  Basis Set: AUG-CC-PVTZ
    Blend: AUG-CC-PVTZ
  Basis Set: (AUG-CC-PVTZ AUX)
    Blend: AUG-CC-PVTZ-JKFIT
	 Reference Energy          =    -683.5989352878591490 [Eh]
	 Singles Energy            =      -0.0000000000000000 [Eh]
	 Same-Spin Energy          =      -0.6658220314318543 [Eh]
	 Opposite-Spin Energy      =      -2.0463487168761554 [Eh]
	 Correlation Energy        =      -2.7121707483080097 [Eh]
	 Total Energy              =    -686.3111060361671889 [Eh]

	 ================> DF-SCS-MP2 Energies <==================
	-----------------------------------------------------------
	 SCS Same-Spin Scale       =       0.3333333333333333 [-]
	 SCS Opposite-Spin Scale   =       1.2000000000000000 [-]
	 SCS Same-Spin Energy      =      -0.2219406771439514 [Eh]
	 SCS Opposite-Spin Energy  =      -2.4556184602513862 [Eh]
	 SCS Correlation Energy    =      -2.6775591373953378 [Eh]
	 SCS Total Energy          =    -686.2764944252544410 [Eh]
	-----------------------------------------------------------

  Dipole Moment: [D]
     X:     0.2905      Y:     1.8429      Z:     1.3069     Total:     2.2779

*** Psi4 exiting successfully. Buy a developer a beer!
