                               Psi4 1.3.2 release

  ==> Input File <==

--------------------------------------------------------------------------
#psi4
#
memory 32 gb

molecule  {
0 1
  O        2.1311420     1.3954640    -0.0176610
  N        1.0627510    -0.6484660    -0.0244750
  C       -0.2945354    -0.2632853    -0.0111714
  C       -0.7462090     1.0430900    -0.0008090
  C       -1.2356020    -1.3337700    -0.0095660
  C       -2.1187510     1.2983570     0.0121880
  C       -2.6007710    -1.0606970     0.0034910
  C       -3.0516150     0.2608760     0.0143720
  C        2.1739960     0.1653740    -0.0182620
  C        3.4844190    -0.5970920     0.0337670
  H       -0.0265810     1.8504660    -0.0031070
  H       -0.8901320    -2.3671220    -0.0178770
  H        1.2400700    -1.6462960    -0.0274520
  H       -2.4575380     2.3317050     0.0202570
  H       -3.3108250    -1.8841690     0.0048350
  H       -4.1164700     0.4777890     0.0243200
  H        3.7138070    -0.8675720     1.0691040
  H        4.2730810     0.0577110    -0.3362890
  H        3.4596990    -1.5115770    -0.5654180
units angstrom
no_reorient  #important for SAPT in psi4, default
symmetry c1  #important for SAPT in psi4, default
}

set PROPERTIES_ORIGIN ["COM"]
properties('MP2/aug-cc-pvtz', properties = ['dipole'])
--------------------------------------------------------------------------

    Molecular point group: c1
  Charge       = 0
  Multiplicity = 1
  Basis Set: AUG-CC-PVTZ
    Blend: AUG-CC-PVTZ
  Basis Set: (AUG-CC-PVTZ AUX)
    Blend: AUG-CC-PVTZ-JKFIT

    Orbital Energies [Eh]
    ---------------------

    Doubly Occupied:

       1A    -20.529319     2A    -15.609618     3A    -11.365733
       4A    -11.291349     5A    -11.246439     6A    -11.242748
       7A    -11.241288     8A    -11.238672     9A    -11.230629
      10A    -11.225074    11A     -1.384361    12A     -1.258798
      13A     -1.143176    14A     -1.035987    15A     -1.017652
      16A     -0.985369    17A     -0.855774    18A     -0.836814
      19A     -0.777140    20A     -0.726890    21A     -0.680903
      22A     -0.675980    23A     -0.628555    24A     -0.617870
      25A     -0.611364    26A     -0.591670    27A     -0.583744
      28A     -0.566684    29A     -0.557204    30A     -0.518285
      31A     -0.501212    32A     -0.499449    33A     -0.442285
      34A     -0.427726    35A     -0.340512    36A     -0.309655

  @DF-RHF Final Energy:  -437.67120224068248

   => Energetics <=

    Nuclear Repulsion Energy =            484.3211893561901320
    One-Electron Energy =               -1554.3929212043976804
    Two-Electron Energy =                 632.4005296075250726
    Total Energy =                       -437.6712022406824190
  Basis Set: (AUG-CC-PVTZ AUX)
    Blend: AUG-CC-PVTZ-RI
    Molecular point group: c1

    Geometry (in Angstrom), charge = 0, multiplicity = 1:

       Center              X                  Y                   Z               Mass
    ------------   -----------------  -----------------  -----------------  -----------------
         O            2.144466680879     1.367277337858    -0.016421585881    15.994914619570
         N            1.076075680879    -0.676652662142    -0.023235585881    14.003074004430
         C           -0.281210719121    -0.291471962142    -0.009931985881    12.000000000000
         C           -0.732884319121     1.014903337858     0.000430414119    12.000000000000
         C           -1.222277319121    -1.361956662142    -0.008326585881    12.000000000000
         C           -2.105426319121     1.270170337858     0.013427414119    12.000000000000
         C           -2.587446319121    -1.088883662142     0.004730414119    12.000000000000
         C           -3.038290319121     0.232689337858     0.015611414119    12.000000000000
         C            2.187320680879     0.137187337858    -0.017022585881    12.000000000000
         C            3.497743680879    -0.625278662142     0.035006414119    12.000000000000
         H           -0.013256319121     1.822279337858    -0.001867585881     1.007825032230
         H           -0.876807319121    -2.395308662142    -0.016637585881     1.007825032230
         H            1.253394680879    -1.674482662142    -0.026212585881     1.007825032230
         H           -2.444213319121     2.303518337858     0.021496414119     1.007825032230
         H           -3.297500319121    -1.912355662142     0.006074414119     1.007825032230
         H           -4.103145319121     0.449602337858     0.025559414119     1.007825032230
         H            3.727131680879    -0.895758662142     1.070343414119     1.007825032230
         H            4.286405680879     0.029524337858    -0.335049585881     1.007825032230
         H            3.473023680879    -1.539763662142    -0.564178585881     1.007825032230

  Basis Set: AUG-CC-PVTZ
    Blend: AUG-CC-PVTZ
  Basis Set: (AUG-CC-PVTZ AUX)
    Blend: AUG-CC-PVTZ-JKFIT
	 Reference Energy          =    -437.6712022406824758 [Eh]
	 Singles Energy            =      -0.0000000000000000 [Eh]
	 Same-Spin Energy          =      -0.4673223130307161 [Eh]
	 Opposite-Spin Energy      =      -1.4565544723719435 [Eh]
	 Correlation Energy        =      -1.9238767854026595 [Eh]
	 Total Energy              =    -439.5950790260851591 [Eh]

	 ================> DF-SCS-MP2 Energies <==================
	-----------------------------------------------------------
	 SCS Same-Spin Scale       =       0.3333333333333333 [-]
	 SCS Opposite-Spin Scale   =       1.2000000000000000 [-]
	 SCS Same-Spin Energy      =      -0.1557741043435720 [Eh]
	 SCS Opposite-Spin Energy  =      -1.7478653668463322 [Eh]
	 SCS Correlation Energy    =      -1.9036394711899043 [Eh]
	 SCS Total Energy          =    -439.5748417118723523 [Eh]
	-----------------------------------------------------------

  Dipole Moment: [D]
     X:     0.0570      Y:    -3.4353      Z:     0.0607     Total:     3.4363

*** Psi4 exiting successfully. Buy a developer a beer!
