                               Psi4 1.4a3.dev225

  ==> Input File <==

--------------------------------------------------------------------------
#psi4
#
memory 32 gb

molecule  {
0 1
  O        2.1311420     1.3954640    -0.0176610
  N        1.0627510    -0.6484660    -0.0244750
  C       -0.2527216    -0.2998412    -0.0116135
  C       -0.7462090     1.0430900    -0.0008090
  C       -1.2356020    -1.3337700    -0.0095660
  C       -2.1187510     1.2983570     0.0121880
  C       -2.6007710    -1.0606970     0.0034910
  C       -3.0516150     0.2608760     0.0143720
  C        2.1739960     0.1653740    -0.0182620
  C        3.4844190    -0.5970920     0.0337670
  H       -0.0265810     1.8504660    -0.0031070
  H       -0.8901320    -2.3671220    -0.0178770
  H        1.2400700    -1.6462960    -0.0274520
  H       -2.4575380     2.3317050     0.0202570
  H       -3.3108250    -1.8841690     0.0048350
  H       -4.1164700     0.4777890     0.0243200
  H        3.7138070    -0.8675720     1.0691040
  H        4.2730810     0.0577110    -0.3362890
  H        3.4596990    -1.5115770    -0.5654180
units angstrom
no_reorient  #important for SAPT in psi4, default
symmetry c1  #important for SAPT in psi4, default
}

set PROPERTIES_ORIGIN ["COM"]
properties('MP2/aug-cc-pvtz', properties = ['dipole'])
--------------------------------------------------------------------------

    Molecular point group: c1
  Charge       = 0
  Multiplicity = 1
  Basis Set: AUG-CC-PVTZ
    Blend: AUG-CC-PVTZ
  Basis Set: (AUG-CC-PVTZ AUX)
    Blend: AUG-CC-PVTZ-JKFIT

    Orbital Energies [Eh]
    ---------------------

    Doubly Occupied:

       1A    -20.533904     2A    -15.614250     3A    -11.370169
       4A    -11.293691     5A    -11.249434     6A    -11.241179
       7A    -11.239154     8A    -11.236701     9A    -11.228126
      10A    -11.228027    11A     -1.389705    12A     -1.274063
      13A     -1.137426    14A     -1.039357    15A     -1.012840
      16A     -0.983382    17A     -0.862693    18A     -0.835763
      19A     -0.779293    20A     -0.731110    21A     -0.684912
      22A     -0.677030    23A     -0.633818    24A     -0.615495
      25A     -0.608667    26A     -0.590669    27A     -0.582105
      28A     -0.570274    29A     -0.562572    30A     -0.519644
      31A     -0.499649    32A     -0.492322    33A     -0.447317
      34A     -0.431414    35A     -0.337875    36A     -0.301970

  @DF-RHF Final Energy:  -437.66779788632238

   => Energetics <=

    Nuclear Repulsion Energy =            484.2752369474566763
    One-Electron Energy =               -1554.2140694989739131
    Two-Electron Energy =                 632.2710346651948612
    Total Energy =                       -437.6677978863223188
  Basis Set: (AUG-CC-PVTZ AUX)
    Blend: AUG-CC-PVTZ-RI
    Molecular point group: c1

    Geometry (in Angstrom), charge = 0, multiplicity = 1:

       Center              X                  Y                   Z               Mass
    ------------   -----------------  -----------------  -----------------  -----------------
         O            2.140751781255     1.370525105322    -0.016382308008    15.994914619570
         N            1.072360781255    -0.673404894678    -0.023196308008    14.003074004430
         C           -0.243111818745    -0.324780094678    -0.010334808008    12.000000000000
         C           -0.736599218745     1.018151105322     0.000469691992    12.000000000000
         C           -1.225992218745    -1.358708894678    -0.008287308008    12.000000000000
         C           -2.109141218745     1.273418105322     0.013466691992    12.000000000000
         C           -2.591161218745    -1.085635894678     0.004769691992    12.000000000000
         C           -3.042005218745     0.235937105322     0.015650691992    12.000000000000
         C            2.183605781255     0.140435105322    -0.016983308008    12.000000000000
         C            3.494028781255    -0.622030894678     0.035045691992    12.000000000000
         H           -0.016971218745     1.825527105322    -0.001828308008     1.007825032230
         H           -0.880522218745    -2.392060894678    -0.016598308008     1.007825032230
         H            1.249679781255    -1.671234894678    -0.026173308008     1.007825032230
         H           -2.447928218745     2.306766105322     0.021535691992     1.007825032230
         H           -3.301215218745    -1.909107894678     0.006113691992     1.007825032230
         H           -4.106860218745     0.452850105322     0.025598691992     1.007825032230
         H            3.723416781255    -0.892510894678     1.070382691992     1.007825032230
         H            4.282690781255     0.032772105322    -0.335010308008     1.007825032230
         H            3.469308781255    -1.536515894678    -0.564139308008     1.007825032230

  Basis Set: AUG-CC-PVTZ
    Blend: AUG-CC-PVTZ
  Basis Set: (AUG-CC-PVTZ AUX)
    Blend: AUG-CC-PVTZ-JKFIT
	 Reference Energy          =    -437.6677978863223757 [Eh]
	 Singles Energy            =      -0.0000000000000000 [Eh]
	 Same-Spin Energy          =      -0.4679090026598638 [Eh]
	 Opposite-Spin Energy      =      -1.4573284170146446 [Eh]
	 Correlation Energy        =      -1.9252374196745083 [Eh]
	 Total Energy              =    -439.5930353059968638 [Eh]

	 ================> DF-SCS-MP2 Energies <==================
	-----------------------------------------------------------
	 SCS Same-Spin Scale       =       0.3333333333333333 [-]
	 SCS Opposite-Spin Scale   =       1.2000000000000000 [-]
	 SCS Same-Spin Energy      =      -0.1559696675532879 [Eh]
	 SCS Opposite-Spin Energy  =      -1.7487941004175733 [Eh]
	 SCS Correlation Energy    =      -1.9047637679708613 [Eh]
	 SCS Total Energy          =    -439.5725616542932244 [Eh]
	-----------------------------------------------------------

  Dipole Moment: [D]
     X:     0.3815      Y:    -3.4509      Z:     0.0591     Total:     3.4725

*** Psi4 exiting successfully. Buy a developer a beer!
