                               Psi4 1.3.2 release

  ==> Input File <==

--------------------------------------------------------------------------
#psi4
#
memory 32 gb

molecule  {
0 1
  O        2.1311420     1.3954640    -0.0176610
  N        1.0627510    -0.6484660    -0.0244750
  C       -0.3071512    -0.3108908    -0.0111147
  C       -0.7462090     1.0430900    -0.0008090
  C       -1.2356020    -1.3337700    -0.0095660
  C       -2.1187510     1.2983570     0.0121880
  C       -2.6007710    -1.0606970     0.0034910
  C       -3.0516150     0.2608760     0.0143720
  C        2.1739960     0.1653740    -0.0182620
  C        3.4844190    -0.5970920     0.0337670
  H       -0.0265810     1.8504660    -0.0031070
  H       -0.8901320    -2.3671220    -0.0178770
  H        1.2400700    -1.6462960    -0.0274520
  H       -2.4575380     2.3317050     0.0202570
  H       -3.3108250    -1.8841690     0.0048350
  H       -4.1164700     0.4777890     0.0243200
  H        3.7138070    -0.8675720     1.0691040
  H        4.2730810     0.0577110    -0.3362890
  H        3.4596990    -1.5115770    -0.5654180
units angstrom
no_reorient  #important for SAPT in psi4, default
symmetry c1  #important for SAPT in psi4, default
}

set PROPERTIES_ORIGIN ["COM"]
properties('MP2/aug-cc-pvtz', properties = ['dipole'])
--------------------------------------------------------------------------

    Molecular point group: c1
  Charge       = 0
  Multiplicity = 1
  Basis Set: AUG-CC-PVTZ
    Blend: AUG-CC-PVTZ
  Basis Set: (AUG-CC-PVTZ AUX)
    Blend: AUG-CC-PVTZ-JKFIT

    Orbital Energies [Eh]
    ---------------------

    Doubly Occupied:

       1A    -20.529301     2A    -15.609260     3A    -11.366847
       4A    -11.291252     5A    -11.246847     6A    -11.242608
       7A    -11.237825     8A    -11.237307     9A    -11.230873
      10A    -11.229832    11A     -1.384209    12A     -1.259126
      13A     -1.143659    14A     -1.036884    15A     -1.017302
      16A     -0.985503    17A     -0.857474    18A     -0.833728
      19A     -0.780387    20A     -0.724437    21A     -0.681618
      22A     -0.675681    23A     -0.628610    24A     -0.616140
      25A     -0.615353    26A     -0.588951    27A     -0.584391
      28A     -0.567148    29A     -0.557383    30A     -0.519050
      31A     -0.501881    32A     -0.497678    33A     -0.442349
      34A     -0.429089    35A     -0.340234    36A     -0.309662

  @DF-RHF Final Energy:  -437.67118987048838

   => Energetics <=

    Nuclear Repulsion Energy =            484.2039339793127510
    One-Electron Energy =               -1554.1504886208563221
    Two-Electron Energy =                 632.2753647710551377
    Total Energy =                       -437.6711898704884334
  Basis Set: (AUG-CC-PVTZ AUX)
    Blend: AUG-CC-PVTZ-RI
    Molecular point group: c1

    Geometry (in Angstrom), charge = 0, multiplicity = 1:

       Center              X                  Y                   Z               Mass
    ------------   -----------------  -----------------  -----------------  -----------------
         O            2.145587517317     1.371506794498    -0.016426623328    15.994914619570
         N            1.077196517317    -0.672423205502    -0.023240623328    14.003074004430
         C           -0.292705682683    -0.334848005502    -0.009880323328    12.000000000000
         C           -0.731763482683     1.019132794498     0.000425376672    12.000000000000
         C           -1.221156482683    -1.357727205502    -0.008331623328    12.000000000000
         C           -2.104305482683     1.274399794498     0.013422376672    12.000000000000
         C           -2.586325482683    -1.084654205502     0.004725376672    12.000000000000
         C           -3.037169482683     0.236918794498     0.015606376672    12.000000000000
         C            2.188441517317     0.141416794498    -0.017027623328    12.000000000000
         C            3.498864517317    -0.621049205502     0.035001376672    12.000000000000
         H           -0.012135482683     1.826508794498    -0.001872623328     1.007825032230
         H           -0.875686482683    -2.391079205502    -0.016642623328     1.007825032230
         H            1.254515517317    -1.670253205502    -0.026217623328     1.007825032230
         H           -2.443092482683     2.307747794498     0.021491376672     1.007825032230
         H           -3.296379482683    -1.908126205502     0.006069376672     1.007825032230
         H           -4.102024482683     0.453831794498     0.025554376672     1.007825032230
         H            3.728252517317    -0.891529205502     1.070338376672     1.007825032230
         H            4.287526517317     0.033753794498    -0.335054623328     1.007825032230
         H            3.474144517317    -1.535534205502    -0.564183623328     1.007825032230

  Basis Set: AUG-CC-PVTZ
    Blend: AUG-CC-PVTZ
  Basis Set: (AUG-CC-PVTZ AUX)
    Blend: AUG-CC-PVTZ-JKFIT
	 Reference Energy          =    -437.6711898704883765 [Eh]
	 Singles Energy            =      -0.0000000000000000 [Eh]
	 Same-Spin Energy          =      -0.4673448619552756 [Eh]
	 Opposite-Spin Energy      =      -1.4565379102358704 [Eh]
	 Correlation Energy        =      -1.9238827721911460 [Eh]
	 Total Energy              =    -439.5950726426794972 [Eh]

	 ================> DF-SCS-MP2 Energies <==================
	-----------------------------------------------------------
	 SCS Same-Spin Scale       =       0.3333333333333333 [-]
	 SCS Opposite-Spin Scale   =       1.2000000000000000 [-]
	 SCS Same-Spin Energy      =      -0.1557816206517585 [Eh]
	 SCS Opposite-Spin Energy  =      -1.7478454922830444 [Eh]
	 SCS Correlation Energy    =      -1.9036271129348030 [Eh]
	 SCS Total Energy          =    -439.5748169834232044 [Eh]
	-----------------------------------------------------------

  Dipole Moment: [D]
     X:     0.0579      Y:    -3.4326      Z:     0.0609     Total:     3.4336

*** Psi4 exiting successfully. Buy a developer a beer!
