                               Psi4 1.3.2 release

  ==> Input File <==

--------------------------------------------------------------------------
#psi4
#
memory 32 gb

molecule  {
0 1
  O        2.1311420     1.3954640    -0.0176610
  N        1.0627510    -0.6484660    -0.0244750
  C       -0.2945327    -0.2632883    -0.0108122
  C       -0.7462090     1.0430900    -0.0008090
  C       -1.2356020    -1.3337700    -0.0095660
  C       -2.1187510     1.2983570     0.0121880
  C       -2.6007710    -1.0606970     0.0034910
  C       -3.0516150     0.2608760     0.0143720
  C        2.1739960     0.1653740    -0.0182620
  C        3.4844190    -0.5970920     0.0337670
  H       -0.0265810     1.8504660    -0.0031070
  H       -0.8901320    -2.3671220    -0.0178770
  H        1.2400700    -1.6462960    -0.0274520
  H       -2.4575380     2.3317050     0.0202570
  H       -3.3108250    -1.8841690     0.0048350
  H       -4.1164700     0.4777890     0.0243200
  H        3.7138070    -0.8675720     1.0691040
  H        4.2730810     0.0577110    -0.3362890
  H        3.4596990    -1.5115770    -0.5654180
units angstrom
no_reorient  #important for SAPT in psi4, default
symmetry c1  #important for SAPT in psi4, default
}

set PROPERTIES_ORIGIN ["COM"]
properties('MP2/aug-cc-pvtz', properties = ['dipole'])
--------------------------------------------------------------------------

    Molecular point group: c1
  Charge       = 0
  Multiplicity = 1
  Basis Set: AUG-CC-PVTZ
    Blend: AUG-CC-PVTZ
  Basis Set: (AUG-CC-PVTZ AUX)
    Blend: AUG-CC-PVTZ-JKFIT

    Orbital Energies [Eh]
    ---------------------

    Doubly Occupied:

       1A    -20.529319     2A    -15.609619     3A    -11.365733
       4A    -11.291349     5A    -11.246439     6A    -11.242748
       7A    -11.241288     8A    -11.238672     9A    -11.230629
      10A    -11.225075    11A     -1.384362    12A     -1.258798
      13A     -1.143176    14A     -1.035987    15A     -1.017652
      16A     -0.985369    17A     -0.855774    18A     -0.836814
      19A     -0.777140    20A     -0.726890    21A     -0.680903
      22A     -0.675980    23A     -0.628555    24A     -0.617870
      25A     -0.611364    26A     -0.591670    27A     -0.583744
      28A     -0.566684    29A     -0.557204    30A     -0.518285
      31A     -0.501212    32A     -0.499449    33A     -0.442286
      34A     -0.427726    35A     -0.340512    36A     -0.309655

  @DF-RHF Final Energy:  -437.67120216829255

   => Energetics <=

    Nuclear Repulsion Energy =            484.3212035880665667
    One-Electron Energy =               -1554.3929460448262034
    Two-Electron Energy =                 632.4005402884671412
    Total Energy =                       -437.6712021682925524
  Basis Set: (AUG-CC-PVTZ AUX)
    Blend: AUG-CC-PVTZ-RI
    Molecular point group: c1

    Geometry (in Angstrom), charge = 0, multiplicity = 1:

       Center              X                  Y                   Z               Mass
    ------------   -----------------  -----------------  -----------------  -----------------
         O            2.144466441000     1.367277604390    -0.016453498598    15.994914619570
         N            1.076075441000    -0.676652395610    -0.023267498598    14.003074004430
         C           -0.281208259000    -0.291474695610    -0.009604698598    12.000000000000
         C           -0.732884559000     1.014903604390     0.000398501402    12.000000000000
         C           -1.222277559000    -1.361956395610    -0.008358498598    12.000000000000
         C           -2.105426559000     1.270170604390     0.013395501402    12.000000000000
         C           -2.587446559000    -1.088883395610     0.004698501402    12.000000000000
         C           -3.038290559000     0.232689604390     0.015579501402    12.000000000000
         C            2.187320441000     0.137187604390    -0.017054498598    12.000000000000
         C            3.497743441000    -0.625278395610     0.034974501402    12.000000000000
         H           -0.013256559000     1.822279604390    -0.001899498598     1.007825032230
         H           -0.876807559000    -2.395308395610    -0.016669498598     1.007825032230
         H            1.253394441000    -1.674482395610    -0.026244498598     1.007825032230
         H           -2.444213559000     2.303518604390     0.021464501402     1.007825032230
         H           -3.297500559000    -1.912355395610     0.006042501402     1.007825032230
         H           -4.103145559000     0.449602604390     0.025527501402     1.007825032230
         H            3.727131441000    -0.895758395610     1.070311501402     1.007825032230
         H            4.286405441000     0.029524604390    -0.335081498598     1.007825032230
         H            3.473023441000    -1.539763395610    -0.564210498598     1.007825032230

  Basis Set: AUG-CC-PVTZ
    Blend: AUG-CC-PVTZ
  Basis Set: (AUG-CC-PVTZ AUX)
    Blend: AUG-CC-PVTZ-JKFIT
	 Reference Energy          =    -437.6712021682925524 [Eh]
	 Singles Energy            =      -0.0000000000000000 [Eh]
	 Same-Spin Energy          =      -0.4673223297957047 [Eh]
	 Opposite-Spin Energy      =      -1.4565544860859536 [Eh]
	 Correlation Energy        =      -1.9238768158816584 [Eh]
	 Total Energy              =    -439.5950789841742221 [Eh]

	 ================> DF-SCS-MP2 Energies <==================
	-----------------------------------------------------------
	 SCS Same-Spin Scale       =       0.3333333333333333 [-]
	 SCS Opposite-Spin Scale   =       1.2000000000000000 [-]
	 SCS Same-Spin Energy      =      -0.1557741099319015 [Eh]
	 SCS Opposite-Spin Energy  =      -1.7478653833031443 [Eh]
	 SCS Correlation Energy    =      -1.9036394932350458 [Eh]
	 SCS Total Energy          =    -439.5748416615276142 [Eh]
	-----------------------------------------------------------

  Dipole Moment: [D]
     X:     0.0570      Y:    -3.4353      Z:     0.0607     Total:     3.4363

*** Psi4 exiting successfully. Buy a developer a beer!
