                               Psi4 1.3.2 release

  ==> Input File <==

--------------------------------------------------------------------------
#psi4
#
memory 32 gb

molecule  {
0 1
  O        2.1311420     1.3954640    -0.0176610
  N        1.0627510    -0.6484660    -0.0244750
  C       -0.2557835    -0.1464681    -0.0092329
  C       -0.7462090     1.0430900    -0.0008090
  C       -1.2356020    -1.3337700    -0.0095660
  C       -2.1187510     1.2983570     0.0121880
  C       -2.6007710    -1.0606970     0.0034910
  C       -3.0516150     0.2608760     0.0143720
  C        2.1739960     0.1653740    -0.0182620
  C        3.4844190    -0.5970920     0.0337670
  H       -0.0265810     1.8504660    -0.0031070
  H       -0.8901320    -2.3671220    -0.0178770
  H        1.2400700    -1.6462960    -0.0274520
  H       -2.4575380     2.3317050     0.0202570
  H       -3.3108250    -1.8841690     0.0048350
  H       -4.1164700     0.4777890     0.0243200
  H        3.7138070    -0.8675720     1.0691040
  H        4.2730810     0.0577110    -0.3362890
  H        3.4596990    -1.5115770    -0.5654180
units angstrom
no_reorient  #important for SAPT in psi4, default
symmetry c1  #important for SAPT in psi4, default
}

set PROPERTIES_ORIGIN ["COM"]
properties('MP2/aug-cc-pvtz', properties = ['dipole'])
--------------------------------------------------------------------------

    Molecular point group: c1
  Charge       = 0
  Multiplicity = 1
  Basis Set: AUG-CC-PVTZ
    Blend: AUG-CC-PVTZ
  Basis Set: (AUG-CC-PVTZ AUX)
    Blend: AUG-CC-PVTZ-JKFIT

    Orbital Energies [Eh]
    ---------------------

    Doubly Occupied:

       1A    -20.529668     2A    -15.610903     3A    -11.363431
       4A    -11.289367     5A    -11.249599     6A    -11.245562
       7A    -11.241457     8A    -11.240192     9A    -11.231014
      10A    -11.212321    11A     -1.385194    12A     -1.258261
      13A     -1.144118    14A     -1.041287    15A     -1.017147
      16A     -0.982490    17A     -0.851971    18A     -0.842284
      19A     -0.770697    20A     -0.733546    21A     -0.681081
      22A     -0.679264    23A     -0.628874    24A     -0.621546
      25A     -0.601253    26A     -0.596118    27A     -0.580363
      28A     -0.564101    29A     -0.557967    30A     -0.521204
      31A     -0.500559    32A     -0.489559    33A     -0.442367
      34A     -0.422792    35A     -0.348842    36A     -0.306421

  @DF-RHF Final Energy:  -437.64502566545553

   => Energetics <=

    Nuclear Repulsion Energy =            484.6961583086924747
    One-Electron Energy =               -1555.1167275871546281
    Two-Electron Energy =                 632.7755436130066755
    Total Energy =                       -437.6450256654554778
  Basis Set: (AUG-CC-PVTZ AUX)
    Blend: AUG-CC-PVTZ-RI
    Molecular point group: c1

    Geometry (in Angstrom), charge = 0, multiplicity = 1:

       Center              X                  Y                   Z               Mass
    ------------   -----------------  -----------------  -----------------  -----------------
         O            2.141023812287     1.356898846253    -0.016593809715    15.994914619570
         N            1.072632812287    -0.687031153747    -0.023407809715    14.003074004430
         C           -0.245901687713    -0.185033253747    -0.008165709715    12.000000000000
         C           -0.736327187713     1.004524846253     0.000258190285    12.000000000000
         C           -1.225720187713    -1.372335153747    -0.008498809715    12.000000000000
         C           -2.108869187713     1.259791846253     0.013255190285    12.000000000000
         C           -2.590889187713    -1.099262153747     0.004558190285    12.000000000000
         C           -3.041733187713     0.222310846253     0.015439190285    12.000000000000
         C            2.183877812287     0.126808846253    -0.017194809715    12.000000000000
         C            3.494300812287    -0.635657153747     0.034834190285    12.000000000000
         H           -0.016699187713     1.811900846253    -0.002039809715     1.007825032230
         H           -0.880250187713    -2.405687153747    -0.016809809715     1.007825032230
         H            1.249951812287    -1.684861153747    -0.026384809715     1.007825032230
         H           -2.447656187713     2.293139846253     0.021324190285     1.007825032230
         H           -3.300943187713    -1.922734153747     0.005902190285     1.007825032230
         H           -4.106588187713     0.439223846253     0.025387190285     1.007825032230
         H            3.723688812287    -0.906137153747     1.070171190285     1.007825032230
         H            4.282962812287     0.019145846253    -0.335221809715     1.007825032230
         H            3.469580812287    -1.550142153747    -0.564350809715     1.007825032230

  Basis Set: AUG-CC-PVTZ
    Blend: AUG-CC-PVTZ
  Basis Set: (AUG-CC-PVTZ AUX)
    Blend: AUG-CC-PVTZ-JKFIT
	 Reference Energy          =    -437.6450256654555346 [Eh]
	 Singles Energy            =      -0.0000000000000000 [Eh]
	 Same-Spin Energy          =      -0.4667475659095544 [Eh]
	 Opposite-Spin Energy      =      -1.4576975979382090 [Eh]
	 Correlation Energy        =      -1.9244451638477633 [Eh]
	 Total Energy              =    -439.5694708293032704 [Eh]

	 ================> DF-SCS-MP2 Energies <==================
	-----------------------------------------------------------
	 SCS Same-Spin Scale       =       0.3333333333333333 [-]
	 SCS Opposite-Spin Scale   =       1.2000000000000000 [-]
	 SCS Same-Spin Energy      =      -0.1555825219698515 [Eh]
	 SCS Opposite-Spin Energy  =      -1.7492371175258508 [Eh]
	 SCS Correlation Energy    =      -1.9048196394957022 [Eh]
	 SCS Total Energy          =    -439.5498453049512477 [Eh]
	-----------------------------------------------------------

  Dipole Moment: [D]
     X:     0.0740      Y:    -3.4304      Z:     0.0606     Total:     3.4317

*** Psi4 exiting successfully. Buy a developer a beer!
