                               Psi4 1.3.2 release

  ==> Input File <==

--------------------------------------------------------------------------
#psi4
#
memory 32 gb

molecule  {
0 1
  O        2.1311420     1.3954640    -0.0176610
  N        1.0627510    -0.6484660    -0.0244750
  C       -0.3313764    -0.4315578    -0.0131952
  C       -0.7462090     1.0430900    -0.0008090
  C       -1.2356020    -1.3337700    -0.0095660
  C       -2.1187510     1.2983570     0.0121880
  C       -2.6007710    -1.0606970     0.0034910
  C       -3.0516150     0.2608760     0.0143720
  C        2.1739960     0.1653740    -0.0182620
  C        3.4844190    -0.5970920     0.0337670
  H       -0.0265810     1.8504660    -0.0031070
  H       -0.8901320    -2.3671220    -0.0178770
  H        1.2400700    -1.6462960    -0.0274520
  H       -2.4575380     2.3317050     0.0202570
  H       -3.3108250    -1.8841690     0.0048350
  H       -4.1164700     0.4777890     0.0243200
  H        3.7138070    -0.8675720     1.0691040
  H        4.2730810     0.0577110    -0.3362890
  H        3.4596990    -1.5115770    -0.5654180
units angstrom
no_reorient  #important for SAPT in psi4, default
symmetry c1  #important for SAPT in psi4, default
}

set PROPERTIES_ORIGIN ["COM"]
properties('MP2/aug-cc-pvtz', properties = ['dipole'])
--------------------------------------------------------------------------

    Molecular point group: c1
  Charge       = 0
  Multiplicity = 1
  Basis Set: AUG-CC-PVTZ
    Blend: AUG-CC-PVTZ
  Basis Set: (AUG-CC-PVTZ AUX)
    Blend: AUG-CC-PVTZ-JKFIT

    Orbital Energies [Eh]
    ---------------------

    Doubly Occupied:

       1A    -20.529472     2A    -15.608656     3A    -11.369966
       4A    -11.288459     5A    -11.247932     6A    -11.242467
       7A    -11.239668     8A    -11.235156     9A    -11.232371
      10A    -11.225264    11A     -1.384113    12A     -1.260182
      13A     -1.147238    14A     -1.045162    15A     -1.016672
      16A     -0.982967    17A     -0.861123    18A     -0.826912
      19A     -0.787532    20A     -0.718929    21A     -0.683601
      22A     -0.679697    23A     -0.629108    24A     -0.622582
      25A     -0.611573    26A     -0.586110    27A     -0.580192
      28A     -0.566298    29A     -0.559165    30A     -0.523283
      31A     -0.504592    32A     -0.480568    33A     -0.442644
      34A     -0.431790    35A     -0.347599    36A     -0.306242

  @DF-RHF Final Energy:  -437.64364635076879

   => Energetics <=

    Nuclear Repulsion Energy =            483.9979326880076087
    One-Electron Energy =               -1553.6725906813073834
    Two-Electron Energy =                 632.0310116425308706
    Total Energy =                       -437.6436463507687904
  Basis Set: (AUG-CC-PVTZ AUX)
    Blend: AUG-CC-PVTZ-RI
    Molecular point group: c1

    Geometry (in Angstrom), charge = 0, multiplicity = 1:

       Center              X                  Y                   Z               Mass
    ------------   -----------------  -----------------  -----------------  -----------------
         O            2.147739777728     1.382227317217    -0.016241783666    15.994914619570
         N            1.079348777728    -0.661702682783    -0.023055783666    14.003074004430
         C           -0.314778622272    -0.444794482783    -0.011775983666    12.000000000000
         C           -0.729611222272     1.029853317217     0.000610216334    12.000000000000
         C           -1.219004222272    -1.347006682783    -0.008146783666    12.000000000000
         C           -2.102153222272     1.285120317217     0.013607216334    12.000000000000
         C           -2.584173222272    -1.073933682783     0.004910216334    12.000000000000
         C           -3.035017222272     0.247639317217     0.015791216334    12.000000000000
         C            2.190593777728     0.152137317217    -0.016842783666    12.000000000000
         C            3.501016777728    -0.610328682783     0.035186216334    12.000000000000
         H           -0.009983222272     1.837229317217    -0.001687783666     1.007825032230
         H           -0.873534222272    -2.380358682783    -0.016457783666     1.007825032230
         H            1.256667777728    -1.659532682783    -0.026032783666     1.007825032230
         H           -2.440940222272     2.318468317217     0.021676216334     1.007825032230
         H           -3.294227222272    -1.897405682783     0.006254216334     1.007825032230
         H           -4.099872222272     0.464552317217     0.025739216334     1.007825032230
         H            3.730404777728    -0.880808682783     1.070523216334     1.007825032230
         H            4.289678777728     0.044474317217    -0.334869783666     1.007825032230
         H            3.476296777728    -1.524813682783    -0.563998783666     1.007825032230

  Basis Set: AUG-CC-PVTZ
    Blend: AUG-CC-PVTZ
  Basis Set: (AUG-CC-PVTZ AUX)
    Blend: AUG-CC-PVTZ-JKFIT
	 Reference Energy          =    -437.6436463507687904 [Eh]
	 Singles Energy            =      -0.0000000000000000 [Eh]
	 Same-Spin Energy          =      -0.4668193387338797 [Eh]
	 Opposite-Spin Energy      =      -1.4576043696614347 [Eh]
	 Correlation Energy        =      -1.9244237083953144 [Eh]
	 Total Energy              =    -439.5680700591640857 [Eh]

	 ================> DF-SCS-MP2 Energies <==================
	-----------------------------------------------------------
	 SCS Same-Spin Scale       =       0.3333333333333333 [-]
	 SCS Opposite-Spin Scale   =       1.2000000000000000 [-]
	 SCS Same-Spin Energy      =      -0.1556064462446266 [Eh]
	 SCS Opposite-Spin Energy  =      -1.7491252435937217 [Eh]
	 SCS Correlation Energy    =      -1.9047316898383482 [Eh]
	 SCS Total Energy          =    -439.5483780406071332 [Eh]
	-----------------------------------------------------------

  Dipole Moment: [D]
     X:     0.0732      Y:    -3.4282      Z:     0.0613     Total:     3.4296

*** Psi4 exiting successfully. Buy a developer a beer!
