                               Psi4 1.3.2 release

  ==> Input File <==

--------------------------------------------------------------------------
#psi4
#
memory 32 gb

molecule  {
0 1
  O        2.1311420     1.3954640    -0.0176610
  N        1.0745361    -0.6006484    -0.0242926
  C       -0.3010510    -0.2870330    -0.0111410
  C       -0.7462090     1.0430900    -0.0008090
  C       -1.2356020    -1.3337700    -0.0095660
  C       -2.1187510     1.2983570     0.0121880
  C       -2.6007710    -1.0606970     0.0034910
  C       -3.0516150     0.2608760     0.0143720
  C        2.1739960     0.1653740    -0.0182620
  C        3.4844190    -0.5970920     0.0337670
  H       -0.0265810     1.8504660    -0.0031070
  H       -0.8901320    -2.3671220    -0.0178770
  H        1.2400700    -1.6462960    -0.0274520
  H       -2.4575380     2.3317050     0.0202570
  H       -3.3108250    -1.8841690     0.0048350
  H       -4.1164700     0.4777890     0.0243200
  H        3.7138070    -0.8675720     1.0691040
  H        4.2730810     0.0577110    -0.3362890
  H        3.4596990    -1.5115770    -0.5654180
units angstrom
no_reorient  #important for SAPT in psi4, default
symmetry c1  #important for SAPT in psi4, default
}

set PROPERTIES_ORIGIN ["COM"]
properties('MP2/aug-cc-pvtz', properties = ['dipole'])
--------------------------------------------------------------------------

    Molecular point group: c1
  Charge       = 0
  Multiplicity = 1
  Basis Set: AUG-CC-PVTZ
    Blend: AUG-CC-PVTZ
  Basis Set: (AUG-CC-PVTZ AUX)
    Blend: AUG-CC-PVTZ-JKFIT

    Orbital Energies [Eh]
    ---------------------

    Doubly Occupied:

       1A    -20.521134     2A    -15.613305     3A    -11.359978
       4A    -11.293083     5A    -11.245658     6A    -11.244294
       7A    -11.242324     8A    -11.238861     9A    -11.232443
      10A    -11.227969    11A     -1.383778    12A     -1.259347
      13A     -1.145534    14A     -1.037874    15A     -1.018868
      16A     -0.986030    17A     -0.861544    18A     -0.837012
      19A     -0.776026    20A     -0.720875    21A     -0.680466
      22A     -0.676861    23A     -0.630995    24A     -0.617396
      25A     -0.614517    26A     -0.589245    27A     -0.578048
      28A     -0.566989    29A     -0.558821    30A     -0.519020
      31A     -0.501616    32A     -0.499298    33A     -0.439594
      34A     -0.425623    35A     -0.341237    36A     -0.311804

  @DF-RHF Final Energy:  -437.66827747373014

   => Energetics <=

    Nuclear Repulsion Energy =            484.8606405553115906
    One-Electron Energy =               -1555.4629027255141409
    Two-Electron Energy =                 632.9339846964724074
    Total Energy =                       -437.6682774737300861
  Basis Set: (AUG-CC-PVTZ AUX)
    Blend: AUG-CC-PVTZ-RI
    Molecular point group: c1

    Geometry (in Angstrom), charge = 0, multiplicity = 1:

       Center              X                  Y                   Z               Mass
    ------------   -----------------  -----------------  -----------------  -----------------
         O            2.143823744274     1.364429736555    -0.016443196861    15.994914619570
         N            1.087217844274    -0.631682663445    -0.023074796861    14.003074004430
         C           -0.288369255726    -0.318067263445    -0.009923196861    12.000000000000
         C           -0.733527255726     1.012055736555     0.000408803139    12.000000000000
         C           -1.222920255726    -1.364804263445    -0.008348196861    12.000000000000
         C           -2.106069255726     1.267322736555     0.013405803139    12.000000000000
         C           -2.588089255726    -1.091731263445     0.004708803139    12.000000000000
         C           -3.038933255726     0.229841736555     0.015589803139    12.000000000000
         C            2.186677744274     0.134339736555    -0.017044196861    12.000000000000
         C            3.497100744274    -0.628126263445     0.034984803139    12.000000000000
         H           -0.013899255726     1.819431736555    -0.001889196861     1.007825032230
         H           -0.877450255726    -2.398156263445    -0.016659196861     1.007825032230
         H            1.252751744274    -1.677330263445    -0.026234196861     1.007825032230
         H           -2.444856255726     2.300670736555     0.021474803139     1.007825032230
         H           -3.298143255726    -1.915203263445     0.006052803139     1.007825032230
         H           -4.103788255726     0.446754736555     0.025537803139     1.007825032230
         H            3.726488744274    -0.898606263445     1.070321803139     1.007825032230
         H            4.285762744274     0.026676736555    -0.335071196861     1.007825032230
         H            3.472380744274    -1.542611263445    -0.564200196861     1.007825032230

  Basis Set: AUG-CC-PVTZ
    Blend: AUG-CC-PVTZ
  Basis Set: (AUG-CC-PVTZ AUX)
    Blend: AUG-CC-PVTZ-JKFIT
	 Reference Energy          =    -437.6682774737301429 [Eh]
	 Singles Energy            =      -0.0000000000000000 [Eh]
	 Same-Spin Energy          =      -0.4676448202917037 [Eh]
	 Opposite-Spin Energy      =      -1.4568486386521307 [Eh]
	 Correlation Energy        =      -1.9244934589438343 [Eh]
	 Total Energy              =    -439.5927709326740001 [Eh]

	 ================> DF-SCS-MP2 Energies <==================
	-----------------------------------------------------------
	 SCS Same-Spin Scale       =       0.3333333333333333 [-]
	 SCS Opposite-Spin Scale   =       1.2000000000000000 [-]
	 SCS Same-Spin Energy      =      -0.1558816067639012 [Eh]
	 SCS Opposite-Spin Energy  =      -1.7482183663825568 [Eh]
	 SCS Correlation Energy    =      -1.9040999731464581 [Eh]
	 SCS Total Energy          =    -439.5723774468766010 [Eh]
	-----------------------------------------------------------

  Dipole Moment: [D]
     X:    -0.1514      Y:    -3.5561      Z:     0.0594     Total:     3.5598

*** Psi4 exiting successfully. Buy a developer a beer!
