                               Psi4 1.3.2 release

  ==> Input File <==

--------------------------------------------------------------------------
#psi4
#
memory 32 gb

molecule  {
0 1
  O        2.1311420     1.3954640    -0.0176610
  N        1.0627510    -0.6484660    -0.0244750
  C       -0.2725165    -0.1927750    -0.0112868
  C       -0.7462090     1.0430900    -0.0008090
  C       -1.2356020    -1.3337700    -0.0095660
  C       -2.1187510     1.2983570     0.0121880
  C       -2.6007710    -1.0606970     0.0034910
  C       -3.0516150     0.2608760     0.0143720
  C        2.1739960     0.1653740    -0.0182620
  C        3.4844190    -0.5970920     0.0337670
  H       -0.0265810     1.8504660    -0.0031070
  H       -0.8901320    -2.3671220    -0.0178770
  H        1.2400700    -1.6462960    -0.0274520
  H       -2.4575380     2.3317050     0.0202570
  H       -3.3108250    -1.8841690     0.0048350
  H       -4.1164700     0.4777890     0.0243200
  H        3.7138070    -0.8675720     1.0691040
  H        4.2730810     0.0577110    -0.3362890
  H        3.4596990    -1.5115770    -0.5654180
units angstrom
no_reorient  #important for SAPT in psi4, default
symmetry c1  #important for SAPT in psi4, default
}

set PROPERTIES_ORIGIN ["COM"]
properties('MP2/aug-cc-pvtz', properties = ['dipole'])
--------------------------------------------------------------------------

    Molecular point group: c1
  Charge       = 0
  Multiplicity = 1
  Basis Set: AUG-CC-PVTZ
    Blend: AUG-CC-PVTZ
  Basis Set: (AUG-CC-PVTZ AUX)
    Blend: AUG-CC-PVTZ-JKFIT

    Orbital Energies [Eh]
    ---------------------

    Doubly Occupied:

       1A    -20.529457     2A    -15.610290     3A    -11.364249
       4A    -11.290430     5A    -11.246990     6A    -11.245874
       7A    -11.241908     8A    -11.239712     9A    -11.230700
      10A    -11.217440    11A     -1.384760    12A     -1.258404
      13A     -1.143389    14A     -1.038048    15A     -1.017572
      16A     -0.983950    17A     -0.853215    18A     -0.840745
      19A     -0.772836    20A     -0.730832    21A     -0.679904
      22A     -0.678461    23A     -0.628650    24A     -0.620402
      25A     -0.604744    26A     -0.594708    27A     -0.582074
      28A     -0.565382    29A     -0.557453    30A     -0.519577
      31A     -0.500639    32A     -0.495532    33A     -0.442281
      34A     -0.425125    35A     -0.344509    36A     -0.308049

  @DF-RHF Final Energy:  -437.65990459161867

   => Energetics <=

    Nuclear Repulsion Energy =            484.5333601956915572
    One-Electron Energy =               -1554.8099484332765314
    Two-Electron Energy =                 632.6166836459663045
    Total Energy =                       -437.6599045916186697
  Basis Set: (AUG-CC-PVTZ AUX)
    Blend: AUG-CC-PVTZ-RI
    Molecular point group: c1

    Geometry (in Angstrom), charge = 0, multiplicity = 1:

       Center              X                  Y                   Z               Mass
    ------------   -----------------  -----------------  -----------------  -----------------
         O            2.142510436689     1.361012930248    -0.016411333299    15.994914619570
         N            1.074119436689    -0.682917069752    -0.023225333299    14.003074004430
         C           -0.261148063311    -0.227226069752    -0.010037133299    12.000000000000
         C           -0.734840563311     1.008638930248     0.000440666701    12.000000000000
         C           -1.224233563311    -1.368221069752    -0.008316333299    12.000000000000
         C           -2.107382563311     1.263905930248     0.013437666701    12.000000000000
         C           -2.589402563311    -1.095148069752     0.004740666701    12.000000000000
         C           -3.040246563311     0.226424930248     0.015621666701    12.000000000000
         C            2.185364436689     0.130922930248    -0.017012333299    12.000000000000
         C            3.495787436689    -0.631543069752     0.035016666701    12.000000000000
         H           -0.015212563311     1.816014930248    -0.001857333299     1.007825032230
         H           -0.878763563311    -2.401573069752    -0.016627333299     1.007825032230
         H            1.251438436689    -1.680747069752    -0.026202333299     1.007825032230
         H           -2.446169563311     2.297253930248     0.021506666701     1.007825032230
         H           -3.299456563311    -1.918620069752     0.006084666701     1.007825032230
         H           -4.105101563311     0.443337930248     0.025569666701     1.007825032230
         H            3.725175436689    -0.902023069752     1.070353666701     1.007825032230
         H            4.284449436689     0.023259930248    -0.335039333299     1.007825032230
         H            3.471067436689    -1.546028069752    -0.564168333299     1.007825032230

  Basis Set: AUG-CC-PVTZ
    Blend: AUG-CC-PVTZ
  Basis Set: (AUG-CC-PVTZ AUX)
    Blend: AUG-CC-PVTZ-JKFIT
	 Reference Energy          =    -437.6599045916186697 [Eh]
	 Singles Energy            =      -0.0000000000000000 [Eh]
	 Same-Spin Energy          =      -0.4670278522967020 [Eh]
	 Opposite-Spin Energy      =      -1.4570528943989061 [Eh]
	 Correlation Energy        =      -1.9240807466956080 [Eh]
	 Total Energy              =    -439.5839853383142781 [Eh]

	 ================> DF-SCS-MP2 Energies <==================
	-----------------------------------------------------------
	 SCS Same-Spin Scale       =       0.3333333333333333 [-]
	 SCS Opposite-Spin Scale   =       1.2000000000000000 [-]
	 SCS Same-Spin Energy      =      -0.1556759507655673 [Eh]
	 SCS Opposite-Spin Energy  =      -1.7484634732786872 [Eh]
	 SCS Correlation Energy    =      -1.9041394240442546 [Eh]
	 SCS Total Energy          =    -439.5640440156629438 [Eh]
	-----------------------------------------------------------

  Dipole Moment: [D]
     X:     0.0630      Y:    -3.4355      Z:     0.0604     Total:     3.4366

*** Psi4 exiting successfully. Buy a developer a beer!
