                               Psi4 1.3.2 release

  ==> Input File <==

--------------------------------------------------------------------------
#psi4
#
memory 32 gb

molecule  {
0 1
  O        2.1311420     1.3954640    -0.0176610
  N        1.0688522    -0.6246086    -0.0243858
  C       -0.3010510    -0.2870330    -0.0111410
  C       -0.7462090     1.0430900    -0.0008090
  C       -1.2356020    -1.3337700    -0.0095660
  C       -2.1187510     1.2983570     0.0121880
  C       -2.6007710    -1.0606970     0.0034910
  C       -3.0516150     0.2608760     0.0143720
  C        2.1739960     0.1653740    -0.0182620
  C        3.4844190    -0.5970920     0.0337670
  H       -0.0265810     1.8504660    -0.0031070
  H       -0.8901320    -2.3671220    -0.0178770
  H        1.2400700    -1.6462960    -0.0274520
  H       -2.4575380     2.3317050     0.0202570
  H       -3.3108250    -1.8841690     0.0048350
  H       -4.1164700     0.4777890     0.0243200
  H        3.7138070    -0.8675720     1.0691040
  H        4.2730810     0.0577110    -0.3362890
  H        3.4596990    -1.5115770    -0.5654180
units angstrom
no_reorient  #important for SAPT in psi4, default
symmetry c1  #important for SAPT in psi4, default
}

set PROPERTIES_ORIGIN ["COM"]
properties('MP2/aug-cc-pvtz', properties = ['dipole'])
--------------------------------------------------------------------------

    Molecular point group: c1
  Charge       = 0
  Multiplicity = 1
  Basis Set: AUG-CC-PVTZ
    Blend: AUG-CC-PVTZ
  Basis Set: (AUG-CC-PVTZ AUX)
    Blend: AUG-CC-PVTZ-JKFIT

    Orbital Energies [Eh]
    ---------------------

    Doubly Occupied:

       1A    -20.525231     2A    -15.611411     3A    -11.363137
       4A    -11.292180     5A    -11.246137     6A    -11.243437
       7A    -11.240883     8A    -11.238553     9A    -11.231572
      10A    -11.227720    11A     -1.383878    12A     -1.259166
      13A     -1.144416    14A     -1.037005    15A     -1.018175
      16A     -0.985724    17A     -0.859043    18A     -0.836125
      19A     -0.777273    20A     -0.723355    21A     -0.680855
      22A     -0.676309    23A     -0.629717    24A     -0.617058
      25A     -0.614034    26A     -0.589312    27A     -0.581639
      28A     -0.567144    29A     -0.558042    30A     -0.518785
      31A     -0.501501    32A     -0.499169    33A     -0.441006
      34A     -0.427112    35A     -0.340664    36A     -0.310793

  @DF-RHF Final Energy:  -437.67100807744924

   => Energetics <=

    Nuclear Repulsion Energy =            484.5571587329066006
    One-Electron Energy =               -1554.8612124145756752
    Two-Electron Energy =                 632.6330456042197738
    Total Energy =                       -437.6710080774493008
  Basis Set: (AUG-CC-PVTZ AUX)
    Blend: AUG-CC-PVTZ-RI
    Molecular point group: c1

    Geometry (in Angstrom), charge = 0, multiplicity = 1:

       Center              X                  Y                   Z               Mass
    ------------   -----------------  -----------------  -----------------  -----------------
         O            2.144413016555     1.366913784779    -0.016433534450    15.994914619570
         N            1.082123216555    -0.653158815221    -0.023158334450    14.003074004430
         C           -0.287779983445    -0.315583215221    -0.009913534450    12.000000000000
         C           -0.732937983445     1.014539784779     0.000418465550    12.000000000000
         C           -1.222330983445    -1.362320215221    -0.008338534450    12.000000000000
         C           -2.105479983445     1.269806784779     0.013415465550    12.000000000000
         C           -2.587499983445    -1.089247215221     0.004718465550    12.000000000000
         C           -3.038343983445     0.232325784779     0.015599465550    12.000000000000
         C            2.187267016555     0.136823784779    -0.017034534450    12.000000000000
         C            3.497690016555    -0.625642215221     0.034994465550    12.000000000000
         H           -0.013309983445     1.821915784779    -0.001879534450     1.007825032230
         H           -0.876860983445    -2.395672215221    -0.016649534450     1.007825032230
         H            1.253341016555    -1.674846215221    -0.026224534450     1.007825032230
         H           -2.444266983445     2.303154784779     0.021484465550     1.007825032230
         H           -3.297553983445    -1.912719215221     0.006062465550     1.007825032230
         H           -4.103198983445     0.449238784779     0.025547465550     1.007825032230
         H            3.727078016555    -0.896122215221     1.070331465550     1.007825032230
         H            4.286352016555     0.029160784779    -0.335061534450     1.007825032230
         H            3.472970016555    -1.540127215221    -0.564190534450     1.007825032230

  Basis Set: AUG-CC-PVTZ
    Blend: AUG-CC-PVTZ
  Basis Set: (AUG-CC-PVTZ AUX)
    Blend: AUG-CC-PVTZ-JKFIT
	 Reference Energy          =    -437.6710080774492440 [Eh]
	 Singles Energy            =      -0.0000000000000000 [Eh]
	 Same-Spin Energy          =      -0.4674820501416198 [Eh]
	 Opposite-Spin Energy      =      -1.4566315560841696 [Eh]
	 Correlation Energy        =      -1.9241136062257893 [Eh]
	 Total Energy              =    -439.5951216836750177 [Eh]

	 ================> DF-SCS-MP2 Energies <==================
	-----------------------------------------------------------
	 SCS Same-Spin Scale       =       0.3333333333333333 [-]
	 SCS Opposite-Spin Scale   =       1.2000000000000000 [-]
	 SCS Same-Spin Energy      =      -0.1558273500472066 [Eh]
	 SCS Opposite-Spin Energy  =      -1.7479578673010034 [Eh]
	 SCS Correlation Energy    =      -1.9037852173482099 [Eh]
	 SCS Total Energy          =    -439.5747932947974732 [Eh]
	-----------------------------------------------------------

  Dipole Moment: [D]
     X:    -0.0475      Y:    -3.4964      Z:     0.0600     Total:     3.4972

*** Psi4 exiting successfully. Buy a developer a beer!
