                               Psi4 1.3.2 release

  ==> Input File <==

--------------------------------------------------------------------------
#psi4
#
memory 32 gb

molecule  {
0 1
  O        2.1311420     1.3954640    -0.0176610
  N        1.0627510    -0.6484660    -0.0244750
  C       -0.4943684    -0.2358003    -0.0092509
  C       -0.7462090     1.0430900    -0.0008090
  C       -1.2356020    -1.3337700    -0.0095660
  C       -2.1187510     1.2983570     0.0121880
  C       -2.6007710    -1.0606970     0.0034910
  C       -3.0516150     0.2608760     0.0143720
  C        2.1739960     0.1653740    -0.0182620
  C        3.4844190    -0.5970920     0.0337670
  H       -0.0265810     1.8504660    -0.0031070
  H       -0.8901320    -2.3671220    -0.0178770
  H        1.2400700    -1.6462960    -0.0274520
  H       -2.4575380     2.3317050     0.0202570
  H       -3.3108250    -1.8841690     0.0048350
  H       -4.1164700     0.4777890     0.0243200
  H        3.7138070    -0.8675720     1.0691040
  H        4.2730810     0.0577110    -0.3362890
  H        3.4596990    -1.5115770    -0.5654180
units angstrom
no_reorient  #important for SAPT in psi4, default
symmetry c1  #important for SAPT in psi4, default
}

set PROPERTIES_ORIGIN ["COM"]
properties('MP2/aug-cc-pvtz', properties = ['dipole'])
--------------------------------------------------------------------------

    Molecular point group: c1
  Charge       = 0
  Multiplicity = 1
  Basis Set: AUG-CC-PVTZ
    Blend: AUG-CC-PVTZ
  Basis Set: (AUG-CC-PVTZ AUX)
    Blend: AUG-CC-PVTZ-JKFIT

    Orbital Energies [Eh]
    ---------------------

    Doubly Occupied:

       1A    -20.513060     2A    -15.586519     3A    -11.350743
       4A    -11.289568     5A    -11.250310     6A    -11.246513
       7A    -11.241987     8A    -11.238846     9A    -11.235578
      10A    -11.226508    11A     -1.366669    12A     -1.221042
      13A     -1.163760    14A     -1.041796    15A     -1.032343
      16A     -0.984819    17A     -0.857272    18A     -0.828714
      19A     -0.771843    20A     -0.716740    21A     -0.671243
      22A     -0.657221    23A     -0.649697    24A     -0.615529
      25A     -0.611769    26A     -0.597960    27A     -0.572240
      28A     -0.556531    29A     -0.550352    30A     -0.521628
      31A     -0.507909    32A     -0.497056    33A     -0.420057
      34A     -0.413037    35A     -0.351533    36A     -0.335054

  @DF-RHF Final Energy:  -437.63151265549971

   => Energetics <=

    Nuclear Repulsion Energy =            484.6469569629711032
    One-Electron Energy =               -1555.1700512811994486
    Two-Electron Energy =                 632.8915816627285267
    Total Energy =                       -437.6315126554997050
  Basis Set: (AUG-CC-PVTZ AUX)
    Blend: AUG-CC-PVTZ-RI
    Molecular point group: c1

    Geometry (in Angstrom), charge = 0, multiplicity = 1:

       Center              X                  Y                   Z               Mass
    ------------   -----------------  -----------------  -----------------  -----------------
         O            2.162220617055     1.364835464215    -0.016592210525    15.994914619570
         N            1.093829617055    -0.679094535785    -0.023406210525    14.003074004430
         C           -0.463289782945    -0.266428835785    -0.008182110525    12.000000000000
         C           -0.715130382945     1.012461464215     0.000259789475    12.000000000000
         C           -1.204523382945    -1.364398535785    -0.008497210525    12.000000000000
         C           -2.087672382945     1.267728464215     0.013256789475    12.000000000000
         C           -2.569692382945    -1.091325535785     0.004559789475    12.000000000000
         C           -3.020536382945     0.230247464215     0.015440789475    12.000000000000
         C            2.205074617055     0.134745464215    -0.017193210525    12.000000000000
         C            3.515497617055    -0.627720535785     0.034835789475    12.000000000000
         H            0.004497617055     1.819837464215    -0.002038210525     1.007825032230
         H           -0.859053382945    -2.397750535785    -0.016808210525     1.007825032230
         H            1.271148617055    -1.676924535785    -0.026383210525     1.007825032230
         H           -2.426459382945     2.301076464215     0.021325789475     1.007825032230
         H           -3.279746382945    -1.914797535785     0.005903789475     1.007825032230
         H           -4.085391382945     0.447160464215     0.025388789475     1.007825032230
         H            3.744885617055    -0.898200535785     1.070172789475     1.007825032230
         H            4.304159617055     0.027082464215    -0.335220210525     1.007825032230
         H            3.490777617055    -1.542205535785    -0.564349210525     1.007825032230

  Basis Set: AUG-CC-PVTZ
    Blend: AUG-CC-PVTZ
  Basis Set: (AUG-CC-PVTZ AUX)
    Blend: AUG-CC-PVTZ-JKFIT
	 Reference Energy          =    -437.6315126554997050 [Eh]
	 Singles Energy            =      -0.0000000000000000 [Eh]
	 Same-Spin Energy          =      -0.4674319327542704 [Eh]
	 Opposite-Spin Energy      =      -1.4573144289342157 [Eh]
	 Correlation Energy        =      -1.9247463616884861 [Eh]
	 Total Energy              =    -439.5562590171882107 [Eh]

	 ================> DF-SCS-MP2 Energies <==================
	-----------------------------------------------------------
	 SCS Same-Spin Scale       =       0.3333333333333333 [-]
	 SCS Opposite-Spin Scale   =       1.2000000000000000 [-]
	 SCS Same-Spin Energy      =      -0.1558106442514235 [Eh]
	 SCS Opposite-Spin Energy  =      -1.7487773147210588 [Eh]
	 SCS Correlation Energy    =      -1.9045879589724823 [Eh]
	 SCS Total Energy          =    -439.5361006144721614 [Eh]
	-----------------------------------------------------------

  Dipole Moment: [D]
     X:    -1.2119      Y:    -3.3481      Z:     0.0671     Total:     3.5613

*** Psi4 exiting successfully. Buy a developer a beer!
