                               Psi4 1.3.2 release

  ==> Input File <==

--------------------------------------------------------------------------
#psi4
#
memory 32 gb

molecule  {
0 1
  O        2.1311420     1.3954640    -0.0176610
  N        1.0627510    -0.6484660    -0.0244750
  C       -0.2043923    -0.3126494    -0.0120860
  C       -0.7462090     1.0430900    -0.0008090
  C       -1.2356020    -1.3337700    -0.0095660
  C       -2.1187510     1.2983570     0.0121880
  C       -2.6007710    -1.0606970     0.0034910
  C       -3.0516150     0.2608760     0.0143720
  C        2.1739960     0.1653740    -0.0182620
  C        3.4844190    -0.5970920     0.0337670
  H       -0.0265810     1.8504660    -0.0031070
  H       -0.8901320    -2.3671220    -0.0178770
  H        1.2400700    -1.6462960    -0.0274520
  H       -2.4575380     2.3317050     0.0202570
  H       -3.3108250    -1.8841690     0.0048350
  H       -4.1164700     0.4777890     0.0243200
  H        3.7138070    -0.8675720     1.0691040
  H        4.2730810     0.0577110    -0.3362890
  H        3.4596990    -1.5115770    -0.5654180
units angstrom
no_reorient  #important for SAPT in psi4, default
symmetry c1  #important for SAPT in psi4, default
}

set PROPERTIES_ORIGIN ["COM"]
properties('MP2/aug-cc-pvtz', properties = ['dipole'])
--------------------------------------------------------------------------

    Molecular point group: c1
  Charge       = 0
  Multiplicity = 1
  Basis Set: AUG-CC-PVTZ
    Blend: AUG-CC-PVTZ
  Basis Set: (AUG-CC-PVTZ AUX)
    Blend: AUG-CC-PVTZ-JKFIT

    Orbital Energies [Eh]
    ---------------------

    Doubly Occupied:

       1A    -20.538989     2A    -15.619116     3A    -11.374298
       4A    -11.296449     5A    -11.252424     6A    -11.239927
       7A    -11.238616     8A    -11.235209     9A    -11.228521
      10A    -11.224892    11A     -1.396094    12A     -1.291314
      13A     -1.131576    14A     -1.043531    15A     -1.008498
      16A     -0.980448    17A     -0.870643    18A     -0.836874
      19A     -0.779425    20A     -0.736638    21A     -0.689403
      22A     -0.676464    23A     -0.640007    24A     -0.615576
      25A     -0.604950    26A     -0.590887    27A     -0.577733
      28A     -0.573685    29A     -0.568954    30A     -0.519731
      31A     -0.498661    32A     -0.485432    33A     -0.451635
      34A     -0.433743    35A     -0.335745    36A     -0.293657

  @DF-RHF Final Energy:  -437.65638930724850

   => Energetics <=

    Nuclear Repulsion Energy =            484.3493524566961810
    One-Electron Energy =               -1554.2519945316832946
    Two-Electron Energy =                 632.2462527677387243
    Total Energy =                       -437.6563893072484461
  Basis Set: (AUG-CC-PVTZ AUX)
    Blend: AUG-CC-PVTZ-RI
    Molecular point group: c1

    Geometry (in Angstrom), charge = 0, multiplicity = 1:

       Center              X                  Y                   Z               Mass
    ------------   -----------------  -----------------  -----------------  -----------------
         O            2.136458019426     1.371663035320    -0.016340329282    15.994914619570
         N            1.068067019426    -0.672266964680    -0.023154329282    14.003074004430
         C           -0.199076280574    -0.336450364680    -0.010765329282    12.000000000000
         C           -0.740892980574     1.019289035320     0.000511670718    12.000000000000
         C           -1.230285980574    -1.357570964680    -0.008245329282    12.000000000000
         C           -2.113434980574     1.274556035320     0.013508670718    12.000000000000
         C           -2.595454980574    -1.084497964680     0.004811670718    12.000000000000
         C           -3.046298980574     0.237075035320     0.015692670718    12.000000000000
         C            2.179312019426     0.141573035320    -0.016941329282    12.000000000000
         C            3.489735019426    -0.620892964680     0.035087670718    12.000000000000
         H           -0.021264980574     1.826665035320    -0.001786329282     1.007825032230
         H           -0.884815980574    -2.390922964680    -0.016556329282     1.007825032230
         H            1.245386019426    -1.670096964680    -0.026131329282     1.007825032230
         H           -2.452221980574     2.307904035320     0.021577670718     1.007825032230
         H           -3.305508980574    -1.907969964680     0.006155670718     1.007825032230
         H           -4.111153980574     0.453988035320     0.025640670718     1.007825032230
         H            3.719123019426    -0.891372964680     1.070424670718     1.007825032230
         H            4.278397019426     0.033910035320    -0.334968329282     1.007825032230
         H            3.465015019426    -1.535377964680    -0.564097329282     1.007825032230

  Basis Set: AUG-CC-PVTZ
    Blend: AUG-CC-PVTZ
  Basis Set: (AUG-CC-PVTZ AUX)
    Blend: AUG-CC-PVTZ-JKFIT
	 Reference Energy          =    -437.6563893072485030 [Eh]
	 Singles Energy            =      -0.0000000000000000 [Eh]
	 Same-Spin Energy          =      -0.4686673353070110 [Eh]
	 Opposite-Spin Energy      =      -1.4585383392108557 [Eh]
	 Correlation Energy        =      -1.9272056745178667 [Eh]
	 Total Energy              =    -439.5835949817663959 [Eh]

	 ================> DF-SCS-MP2 Energies <==================
	-----------------------------------------------------------
	 SCS Same-Spin Scale       =       0.3333333333333333 [-]
	 SCS Opposite-Spin Scale   =       1.2000000000000000 [-]
	 SCS Same-Spin Energy      =      -0.1562224451023370 [Eh]
	 SCS Opposite-Spin Energy  =      -1.7502460070530268 [Eh]
	 SCS Correlation Energy    =      -1.9064684521553639 [Eh]
	 SCS Total Energy          =    -439.5628577594038688 [Eh]
	-----------------------------------------------------------

  Dipole Moment: [D]
     X:     0.7162      Y:    -3.4668      Z:     0.0572     Total:     3.5405

*** Psi4 exiting successfully. Buy a developer a beer!
