                               Psi4 1.3.2 release

  ==> Input File <==

--------------------------------------------------------------------------
#psi4
#
memory 32 gb

molecule  {
0 1
  O        2.1311420     1.3954640    -0.0176610
  N        1.0627510    -0.6484660    -0.0244750
  C       -0.2876063    -0.2396549    -0.0112058
  C       -0.7462090     1.0430900    -0.0008090
  C       -1.2356020    -1.3337700    -0.0095660
  C       -2.1187510     1.2983570     0.0121880
  C       -2.6007710    -1.0606970     0.0034910
  C       -3.0516150     0.2608760     0.0143720
  C        2.1739960     0.1653740    -0.0182620
  C        3.4844190    -0.5970920     0.0337670
  H       -0.0265810     1.8504660    -0.0031070
  H       -0.8901320    -2.3671220    -0.0178770
  H        1.2400700    -1.6462960    -0.0274520
  H       -2.4575380     2.3317050     0.0202570
  H       -3.3108250    -1.8841690     0.0048350
  H       -4.1164700     0.4777890     0.0243200
  H        3.7138070    -0.8675720     1.0691040
  H        4.2730810     0.0577110    -0.3362890
  H        3.4596990    -1.5115770    -0.5654180
units angstrom
no_reorient  #important for SAPT in psi4, default
symmetry c1  #important for SAPT in psi4, default
}

set PROPERTIES_ORIGIN ["COM"]
properties('MP2/aug-cc-pvtz', properties = ['dipole'])
--------------------------------------------------------------------------

    Molecular point group: c1
  Charge       = 0
  Multiplicity = 1
  Basis Set: AUG-CC-PVTZ
    Blend: AUG-CC-PVTZ
  Basis Set: (AUG-CC-PVTZ AUX)
    Blend: AUG-CC-PVTZ-JKFIT

    Orbital Energies [Eh]
    ---------------------

    Doubly Occupied:

       1A    -20.529347     2A    -15.609820     3A    -11.365211
       4A    -11.291168     5A    -11.246242     6A    -11.243805
       7A    -11.242045     8A    -11.239055     9A    -11.230596
      10A    -11.222571    11A     -1.384468    12A     -1.258650
      13A     -1.143126    14A     -1.036229    15A     -1.017721
      16A     -0.985038    17A     -0.854898    18A     -0.838260
      19A     -0.775599    20A     -0.728173    21A     -0.680558
      22A     -0.676567    23A     -0.628560    24A     -0.618801
      25A     -0.609102    26A     -0.592822    27A     -0.583294
      28A     -0.566330    29A     -0.557218    30A     -0.518428
      31A     -0.500964    32A     -0.498972    33A     -0.442270
      34A     -0.426948    35A     -0.341419    36A     -0.309293

  @DF-RHF Final Energy:  -437.66892892828167

   => Energetics <=

    Nuclear Repulsion Energy =            484.3872562790136271
    One-Electron Energy =               -1554.5252405411831660
    Two-Electron Energy =                 632.4690553338879226
    Total Energy =                       -437.6689289282816162
  Basis Set: (AUG-CC-PVTZ AUX)
    Blend: AUG-CC-PVTZ-RI
    Molecular point group: c1

    Geometry (in Angstrom), charge = 0, multiplicity = 1:

       Center              X                  Y                   Z               Mass
    ------------   -----------------  -----------------  -----------------  -----------------
         O            2.143851072850     1.365177921779    -0.016418529652    15.994914619570
         N            1.075460072850    -0.678752078221    -0.023232529652    14.003074004430
         C           -0.274897227150    -0.269940978221    -0.009963329652    12.000000000000
         C           -0.733499927150     1.012803921779     0.000433470348    12.000000000000
         C           -1.222892927150    -1.364056078221    -0.008323529652    12.000000000000
         C           -2.106041927150     1.268070921779     0.013430470348    12.000000000000
         C           -2.588061927150    -1.090983078221     0.004733470348    12.000000000000
         C           -3.038905927150     0.230589921779     0.015614470348    12.000000000000
         C            2.186705072850     0.135087921779    -0.017019529652    12.000000000000
         C            3.497128072850    -0.627378078221     0.035009470348    12.000000000000
         H           -0.013871927150     1.820179921779    -0.001864529652     1.007825032230
         H           -0.877422927150    -2.397408078221    -0.016634529652     1.007825032230
         H            1.252779072850    -1.676582078221    -0.026209529652     1.007825032230
         H           -2.444828927150     2.301418921779     0.021499470348     1.007825032230
         H           -3.298115927150    -1.914455078221     0.006077470348     1.007825032230
         H           -4.103760927150     0.447502921779     0.025562470348     1.007825032230
         H            3.726516072850    -0.897858078221     1.070346470348     1.007825032230
         H            4.285790072850     0.027424921779    -0.335046529652     1.007825032230
         H            3.472408072850    -1.541863078221    -0.564175529652     1.007825032230

  Basis Set: AUG-CC-PVTZ
    Blend: AUG-CC-PVTZ
  Basis Set: (AUG-CC-PVTZ AUX)
    Blend: AUG-CC-PVTZ-JKFIT
	 Reference Energy          =    -437.6689289282816731 [Eh]
	 Singles Energy            =      -0.0000000000000000 [Eh]
	 Same-Spin Energy          =      -0.4672533285505636 [Eh]
	 Opposite-Spin Energy      =      -1.4566577236139984 [Eh]
	 Correlation Energy        =      -1.9239110521645619 [Eh]
	 Total Energy              =    -439.5928399804462288 [Eh]

	 ================> DF-SCS-MP2 Energies <==================
	-----------------------------------------------------------
	 SCS Same-Spin Scale       =       0.3333333333333333 [-]
	 SCS Opposite-Spin Scale   =       1.2000000000000000 [-]
	 SCS Same-Spin Energy      =      -0.1557511095168545 [Eh]
	 SCS Opposite-Spin Energy  =      -1.7479892683367979 [Eh]
	 SCS Correlation Energy    =      -1.9037403778536524 [Eh]
	 SCS Total Energy          =    -439.5726693061353103 [Eh]
	-----------------------------------------------------------

  Dipole Moment: [D]
     X:     0.0579      Y:    -3.4361      Z:     0.0605     Total:     3.4371

*** Psi4 exiting successfully. Buy a developer a beer!
