                               Psi4 1.3.2 release

  ==> Input File <==

--------------------------------------------------------------------------
#psi4
#
memory 32 gb

molecule  {
0 1
  O        2.1311420     1.3954640    -0.0176610
  N        1.0627510    -0.6484660    -0.0244750
  C       -0.1077336    -0.3382657    -0.0130311
  C       -0.7462090     1.0430900    -0.0008090
  C       -1.2356020    -1.3337700    -0.0095660
  C       -2.1187510     1.2983570     0.0121880
  C       -2.6007710    -1.0606970     0.0034910
  C       -3.0516150     0.2608760     0.0143720
  C        2.1739960     0.1653740    -0.0182620
  C        3.4844190    -0.5970920     0.0337670
  H       -0.0265810     1.8504660    -0.0031070
  H       -0.8901320    -2.3671220    -0.0178770
  H        1.2400700    -1.6462960    -0.0274520
  H       -2.4575380     2.3317050     0.0202570
  H       -3.3108250    -1.8841690     0.0048350
  H       -4.1164700     0.4777890     0.0243200
  H        3.7138070    -0.8675720     1.0691040
  H        4.2730810     0.0577110    -0.3362890
  H        3.4596990    -1.5115770    -0.5654180
units angstrom
no_reorient  #important for SAPT in psi4, default
symmetry c1  #important for SAPT in psi4, default
}

set PROPERTIES_ORIGIN ["COM"]
properties('MP2/aug-cc-pvtz', properties = ['dipole'])
--------------------------------------------------------------------------

    Molecular point group: c1
  Charge       = 0
  Multiplicity = 1
  Basis Set: AUG-CC-PVTZ
    Blend: AUG-CC-PVTZ
  Basis Set: (AUG-CC-PVTZ AUX)
    Blend: AUG-CC-PVTZ-JKFIT

    Orbital Energies [Eh]
    ---------------------

    Doubly Occupied:

       1A    -20.551152     2A    -15.629738     3A    -11.383706
       4A    -11.302458     5A    -11.259326     6A    -11.237827
       7A    -11.236229     8A    -11.232226     9A    -11.228491
      10A    -11.216487    11A     -1.413981    12A     -1.331114
      13A     -1.120157    14A     -1.054978    15A     -1.000349
      16A     -0.973373    17A     -0.889089    18A     -0.844910
      19A     -0.778326    20A     -0.743894    21A     -0.699335
      22A     -0.672427    23A     -0.656819    24A     -0.620759
      25A     -0.600669    26A     -0.587352    27A     -0.585129
      28A     -0.579384    29A     -0.566504    30A     -0.517427
      31A     -0.501264    32A     -0.474894    33A     -0.456471
      34A     -0.433002    35A     -0.331594    36A     -0.275941

  @DF-RHF Final Energy:  -437.60735298974663

   => Energetics <=

    Nuclear Repulsion Energy =            484.7059430172450902
    One-Electron Energy =               -1554.6530306638137517
    Two-Electron Energy =                 632.3397346568220883
    Total Energy =                       -437.6073529897465733
  Basis Set: (AUG-CC-PVTZ AUX)
    Blend: AUG-CC-PVTZ-RI
    Molecular point group: c1

    Geometry (in Angstrom), charge = 0, multiplicity = 1:

       Center              X                  Y                   Z               Mass
    ------------   -----------------  -----------------  -----------------  -----------------
         O            2.127870486883     1.373938886432    -0.016256362945    15.994914619570
         N            1.059479486883    -0.669991113568    -0.023070362945    14.003074004430
         C           -0.111005113117    -0.359790813568    -0.011626462945    12.000000000000
         C           -0.749480513117     1.021564886432     0.000595637055    12.000000000000
         C           -1.238873513117    -1.355295113568    -0.008161362945    12.000000000000
         C           -2.122022513117     1.276831886432     0.013592637055    12.000000000000
         C           -2.604042513117    -1.082222113568     0.004895637055    12.000000000000
         C           -3.054886513117     0.239350886432     0.015776637055    12.000000000000
         C            2.170724486883     0.143848886432    -0.016857362945    12.000000000000
         C            3.481147486883    -0.618617113568     0.035171637055    12.000000000000
         H           -0.029852513117     1.828940886432    -0.001702362945     1.007825032230
         H           -0.893403513117    -2.388647113568    -0.016472362945     1.007825032230
         H            1.236798486883    -1.667821113568    -0.026047362945     1.007825032230
         H           -2.460809513117     2.310179886432     0.021661637055     1.007825032230
         H           -3.314096513117    -1.905694113568     0.006239637055     1.007825032230
         H           -4.119741513117     0.456263886432     0.025724637055     1.007825032230
         H            3.710535486883    -0.889097113568     1.070508637055     1.007825032230
         H            4.269809486883     0.036185886432    -0.334884362945     1.007825032230
         H            3.456427486883    -1.533102113568    -0.564013362945     1.007825032230

  Basis Set: AUG-CC-PVTZ
    Blend: AUG-CC-PVTZ
  Basis Set: (AUG-CC-PVTZ AUX)
    Blend: AUG-CC-PVTZ-JKFIT
	 Reference Energy          =    -437.6073529897466301 [Eh]
	 Singles Energy            =      -0.0000000000000000 [Eh]
	 Same-Spin Energy          =      -0.4705983931436887 [Eh]
	 Opposite-Spin Energy      =      -1.4617784718198301 [Eh]
	 Correlation Energy        =      -1.9323768649635187 [Eh]
	 Total Energy              =    -439.5397298547101741 [Eh]

	 ================> DF-SCS-MP2 Energies <==================
	-----------------------------------------------------------
	 SCS Same-Spin Scale       =       0.3333333333333333 [-]
	 SCS Opposite-Spin Scale   =       1.2000000000000000 [-]
	 SCS Same-Spin Energy      =      -0.1568661310478962 [Eh]
	 SCS Opposite-Spin Energy  =      -1.7541341661837961 [Eh]
	 SCS Correlation Energy    =      -1.9110002972316924 [Eh]
	 SCS Total Energy          =    -439.5183532869783107 [Eh]
	-----------------------------------------------------------

  Dipole Moment: [D]
     X:     1.4160      Y:    -3.4947      Z:     0.0531     Total:     3.7711

*** Psi4 exiting successfully. Buy a developer a beer!
