                               Psi4 1.3.2 release

  ==> Input File <==

--------------------------------------------------------------------------
#psi4
#
memory 32 gb

molecule  {
0 1
  O        2.1311420     1.3954640    -0.0176610
  N        1.0627510    -0.6484660    -0.0244750
  C       -0.3128341    -0.3348514    -0.0110924
  C       -0.7462090     1.0430900    -0.0008090
  C       -1.2356020    -1.3337700    -0.0095660
  C       -2.1187510     1.2983570     0.0121880
  C       -2.6007710    -1.0606970     0.0034910
  C       -3.0516150     0.2608760     0.0143720
  C        2.1739960     0.1653740    -0.0182620
  C        3.4844190    -0.5970920     0.0337670
  H       -0.0265810     1.8504660    -0.0031070
  H       -0.8901320    -2.3671220    -0.0178770
  H        1.2400700    -1.6462960    -0.0274520
  H       -2.4575380     2.3317050     0.0202570
  H       -3.3108250    -1.8841690     0.0048350
  H       -4.1164700     0.4777890     0.0243200
  H        3.7138070    -0.8675720     1.0691040
  H        4.2730810     0.0577110    -0.3362890
  H        3.4596990    -1.5115770    -0.5654180
units angstrom
no_reorient  #important for SAPT in psi4, default
symmetry c1  #important for SAPT in psi4, default
}

set PROPERTIES_ORIGIN ["COM"]
properties('MP2/aug-cc-pvtz', properties = ['dipole'])
--------------------------------------------------------------------------

    Molecular point group: c1
  Charge       = 0
  Multiplicity = 1
  Basis Set: AUG-CC-PVTZ
    Blend: AUG-CC-PVTZ
  Basis Set: (AUG-CC-PVTZ AUX)
    Blend: AUG-CC-PVTZ-JKFIT

    Orbital Energies [Eh]
    ---------------------

    Doubly Occupied:

       1A    -20.529309     2A    -15.609100     3A    -11.367433
       4A    -11.290965     5A    -11.247057     6A    -11.242613
       7A    -11.237376     8A    -11.235037     9A    -11.232046
      10A    -11.231071    11A     -1.384158    12A     -1.259305
      13A     -1.144098    14A     -1.037956    15A     -1.017093
      16A     -0.985292    17A     -0.858278    18A     -0.832166
      19A     -0.782020    20A     -0.723268    21A     -0.681988
      22A     -0.675986    23A     -0.628668    24A     -0.617564
      25A     -0.614796    26A     -0.587477    27A     -0.584549
      28A     -0.567245    29A     -0.557579    30A     -0.519805
      31A     -0.502304    32A     -0.495560    33A     -0.442393
      34A     -0.429694    35A     -0.340880    36A     -0.309297

  @DF-RHF Final Energy:  -437.66886785681578

   => Energetics <=

    Nuclear Repulsion Energy =            484.1529048094146788
    One-Electron Energy =               -1554.0406929916809986
    Two-Electron Energy =                 632.2189203254505401
    Total Energy =                       -437.6688678568158366
  Basis Set: (AUG-CC-PVTZ AUX)
    Blend: AUG-CC-PVTZ-RI
    Molecular point group: c1

    Geometry (in Angstrom), charge = 0, multiplicity = 1:

       Center              X                  Y                   Z               Mass
    ------------   -----------------  -----------------  -----------------  -----------------
         O            2.146092408121     1.373635546822    -0.016428604547    15.994914619570
         N            1.077701408121    -0.670294453178    -0.023242604547    14.003074004430
         C           -0.297883691879    -0.356679853178    -0.009860004547    12.000000000000
         C           -0.731258591879     1.021261546822     0.000423395453    12.000000000000
         C           -1.220651591879    -1.355598453178    -0.008333604547    12.000000000000
         C           -2.103800591879     1.276528546822     0.013420395453    12.000000000000
         C           -2.585820591879    -1.082525453178     0.004723395453    12.000000000000
         C           -3.036664591879     0.239047546822     0.015604395453    12.000000000000
         C            2.188946408121     0.143545546822    -0.017029604547    12.000000000000
         C            3.499369408121    -0.618920453178     0.034999395453    12.000000000000
         H           -0.011630591879     1.828637546822    -0.001874604547     1.007825032230
         H           -0.875181591879    -2.388950453178    -0.016644604547     1.007825032230
         H            1.255020408121    -1.668124453178    -0.026219604547     1.007825032230
         H           -2.442587591879     2.309876546822     0.021489395453     1.007825032230
         H           -3.295874591879    -1.905997453178     0.006067395453     1.007825032230
         H           -4.101519591879     0.455960546822     0.025552395453     1.007825032230
         H            3.728757408121    -0.889400453178     1.070336395453     1.007825032230
         H            4.288031408121     0.035882546822    -0.335056604547     1.007825032230
         H            3.474649408121    -1.533405453178    -0.564185604547     1.007825032230

  Basis Set: AUG-CC-PVTZ
    Blend: AUG-CC-PVTZ
  Basis Set: (AUG-CC-PVTZ AUX)
    Blend: AUG-CC-PVTZ-JKFIT
	 Reference Energy          =    -437.6688678568157798 [Eh]
	 Singles Energy            =      -0.0000000000000000 [Eh]
	 Same-Spin Energy          =      -0.4672962436146268 [Eh]
	 Opposite-Spin Energy      =      -1.4566247613442913 [Eh]
	 Correlation Energy        =      -1.9239210049589182 [Eh]
	 Total Energy              =    -439.5927888617746930 [Eh]

	 ================> DF-SCS-MP2 Energies <==================
	-----------------------------------------------------------
	 SCS Same-Spin Scale       =       0.3333333333333333 [-]
	 SCS Opposite-Spin Scale   =       1.2000000000000000 [-]
	 SCS Same-Spin Energy      =      -0.1557654145382089 [Eh]
	 SCS Opposite-Spin Energy  =      -1.7479497136131494 [Eh]
	 SCS Correlation Energy    =      -1.9037151281513585 [Eh]
	 SCS Total Energy          =    -439.5725829849671413 [Eh]
	-----------------------------------------------------------

  Dipole Moment: [D]
     X:     0.0596      Y:    -3.4311      Z:     0.0611     Total:     3.4322

*** Psi4 exiting successfully. Buy a developer a beer!
