                               Psi4 1.3.2 release

  ==> Input File <==

--------------------------------------------------------------------------
#psi4
#
memory 32 gb

molecule  {
0 1
  O        2.1311420     1.3954640    -0.0176610
  N        1.0930662    -0.5039257    -0.0238800
  C       -0.3010510    -0.2870330    -0.0111410
  C       -0.7462090     1.0430900    -0.0008090
  C       -1.2356020    -1.3337700    -0.0095660
  C       -2.1187510     1.2983570     0.0121880
  C       -2.6007710    -1.0606970     0.0034910
  C       -3.0516150     0.2608760     0.0143720
  C        2.1739960     0.1653740    -0.0182620
  C        3.4844190    -0.5970920     0.0337670
  H       -0.0265810     1.8504660    -0.0031070
  H       -0.8901320    -2.3671220    -0.0178770
  H        1.2400700    -1.6462960    -0.0274520
  H       -2.4575380     2.3317050     0.0202570
  H       -3.3108250    -1.8841690     0.0048350
  H       -4.1164700     0.4777890     0.0243200
  H        3.7138070    -0.8675720     1.0691040
  H        4.2730810     0.0577110    -0.3362890
  H        3.4596990    -1.5115770    -0.5654180
units angstrom
no_reorient  #important for SAPT in psi4, default
symmetry c1  #important for SAPT in psi4, default
}

set PROPERTIES_ORIGIN ["COM"]
properties('MP2/aug-cc-pvtz', properties = ['dipole'])
--------------------------------------------------------------------------

    Molecular point group: c1
  Charge       = 0
  Multiplicity = 1
  Basis Set: AUG-CC-PVTZ
    Blend: AUG-CC-PVTZ
  Basis Set: (AUG-CC-PVTZ AUX)
    Blend: AUG-CC-PVTZ-JKFIT

    Orbital Energies [Eh]
    ---------------------

    Doubly Occupied:

       1A    -20.504909     2A    -15.620127     3A    -11.347662
       4A    -11.297674     5A    -11.248875     6A    -11.247051
       7A    -11.244036     8A    -11.240215     9A    -11.236058
      10A    -11.229267    11A     -1.386989    12A     -1.259123
      13A     -1.150350    14A     -1.042040    15A     -1.021781
      16A     -0.988058    17A     -0.871973    18A     -0.840609
      19A     -0.773375    20A     -0.710393    21A     -0.681094
      22A     -0.676256    23A     -0.637504    24A     -0.620392
      25A     -0.615795    26A     -0.591219    27A     -0.569487
      28A     -0.561811    29A     -0.555580    30A     -0.518999
      31A     -0.503242    32A     -0.498857    33A     -0.433249
      34A     -0.418434    35A     -0.343660    36A     -0.315784

  @DF-RHF Final Energy:  -437.64074239628678

   => Energetics <=

    Nuclear Repulsion Energy =            486.1241674544979219
    One-Electron Energy =               -1557.9259652497223669
    Two-Electron Energy =                 634.1610553989377195
    Total Energy =                       -437.6407423962867824
  Basis Set: (AUG-CC-PVTZ AUX)
    Blend: AUG-CC-PVTZ-RI
    Molecular point group: c1

    Geometry (in Angstrom), charge = 0, multiplicity = 1:

       Center              X                  Y                   Z               Mass
    ------------   -----------------  -----------------  -----------------  -----------------
         O            2.141902655886     1.354402113614    -0.016485972726    15.994914619570
         N            1.103826855886    -0.544987586386    -0.022704972726    14.003074004430
         C           -0.290290344114    -0.328094886386    -0.009965972726    12.000000000000
         C           -0.735448344114     1.002028113614     0.000366027274    12.000000000000
         C           -1.224841344114    -1.374831886386    -0.008390972726    12.000000000000
         C           -2.107990344114     1.257295113614     0.013363027274    12.000000000000
         C           -2.590010344114    -1.101758886386     0.004666027274    12.000000000000
         C           -3.040854344114     0.219814113614     0.015547027274    12.000000000000
         C            2.184756655886     0.124312113614    -0.017086972726    12.000000000000
         C            3.495179655886    -0.638153886386     0.034942027274    12.000000000000
         H           -0.015820344114     1.809404113614    -0.001931972726     1.007825032230
         H           -0.879371344114    -2.408183886386    -0.016701972726     1.007825032230
         H            1.250830655886    -1.687357886386    -0.026276972726     1.007825032230
         H           -2.446777344114     2.290643113614     0.021432027274     1.007825032230
         H           -3.300064344114    -1.925230886386     0.006010027274     1.007825032230
         H           -4.105709344114     0.436727113614     0.025495027274     1.007825032230
         H            3.724567655886    -0.908633886386     1.070279027274     1.007825032230
         H            4.283841655886     0.016649113614    -0.335113972726     1.007825032230
         H            3.470459655886    -1.552638886386    -0.564242972726     1.007825032230

  Basis Set: AUG-CC-PVTZ
    Blend: AUG-CC-PVTZ
  Basis Set: (AUG-CC-PVTZ AUX)
    Blend: AUG-CC-PVTZ-JKFIT
	 Reference Energy          =    -437.6407423962867824 [Eh]
	 Singles Energy            =      -0.0000000000000000 [Eh]
	 Same-Spin Energy          =      -0.4686374935113128 [Eh]
	 Opposite-Spin Energy      =      -1.4586855943894492 [Eh]
	 Correlation Energy        =      -1.9273230879007621 [Eh]
	 Total Energy              =    -439.5680654841875707 [Eh]

	 ================> DF-SCS-MP2 Energies <==================
	-----------------------------------------------------------
	 SCS Same-Spin Scale       =       0.3333333333333333 [-]
	 SCS Opposite-Spin Scale   =       1.2000000000000000 [-]
	 SCS Same-Spin Energy      =      -0.1562124978371043 [Eh]
	 SCS Opposite-Spin Energy  =      -1.7504227132673391 [Eh]
	 SCS Correlation Energy    =      -1.9066352111044433 [Eh]
	 SCS Total Energy          =    -439.5473776073912404 [Eh]
	-----------------------------------------------------------

  Dipole Moment: [D]
     X:    -0.5535      Y:    -3.7595      Z:     0.0576     Total:     3.8004

*** Psi4 exiting successfully. Buy a developer a beer!
