                               Psi4 1.3.2 release

  ==> Input File <==

--------------------------------------------------------------------------
#psi4
#
memory 32 gb

molecule  {
0 1
  O        2.1311420     1.3954640    -0.0176610
  N        1.0493043    -0.6958432    -0.0246411
  C       -0.3010510    -0.2870330    -0.0111410
  C       -0.7462090     1.0430900    -0.0008090
  C       -1.2356020    -1.3337700    -0.0095660
  C       -2.1187510     1.2983570     0.0121880
  C       -2.6007710    -1.0606970     0.0034910
  C       -3.0516150     0.2608760     0.0143720
  C        2.1739960     0.1653740    -0.0182620
  C        3.4844190    -0.5970920     0.0337670
  H       -0.0265810     1.8504660    -0.0031070
  H       -0.8901320    -2.3671220    -0.0178770
  H        1.2400700    -1.6462960    -0.0274520
  H       -2.4575380     2.3317050     0.0202570
  H       -3.3108250    -1.8841690     0.0048350
  H       -4.1164700     0.4777890     0.0243200
  H        3.7138070    -0.8675720     1.0691040
  H        4.2730810     0.0577110    -0.3362890
  H        3.4596990    -1.5115770    -0.5654180
units angstrom
no_reorient  #important for SAPT in psi4, default
symmetry c1  #important for SAPT in psi4, default
}

set PROPERTIES_ORIGIN ["COM"]
properties('MP2/aug-cc-pvtz', properties = ['dipole'])
--------------------------------------------------------------------------

    Molecular point group: c1
  Charge       = 0
  Multiplicity = 1
  Basis Set: AUG-CC-PVTZ
    Blend: AUG-CC-PVTZ
  Basis Set: (AUG-CC-PVTZ AUX)
    Blend: AUG-CC-PVTZ-JKFIT

    Orbital Energies [Eh]
    ---------------------

    Doubly Occupied:

       1A    -20.537305     2A    -15.605234     3A    -11.372430
       4A    -11.290099     5A    -11.247718     6A    -11.241011
       7A    -11.237720     8A    -11.236619     9A    -11.229092
      10A    -11.227176    11A     -1.385816    12A     -1.258596
      13A     -1.141432    14A     -1.034859    15A     -1.016220
      16A     -0.985531    17A     -0.852223    18A     -0.833971
      19A     -0.782143    20A     -0.729508    21A     -0.681904
      22A     -0.674357    23A     -0.626658    24A     -0.617111
      25A     -0.612801    26A     -0.595450    27A     -0.585029
      28A     -0.565914    29A     -0.555701    30A     -0.517895
      31A     -0.501955    32A     -0.498637    33A     -0.444559
      34A     -0.430503    35A     -0.339060    36A     -0.307794

  @DF-RHF Final Energy:  -437.66832304335418

   => Energetics <=

    Nuclear Repulsion Energy =            483.6872159680931986
    One-Electron Energy =               -1553.1110158631543072
    Two-Electron Energy =                 631.7554768517070443
    Total Energy =                       -437.6683230433541212
  Basis Set: (AUG-CC-PVTZ AUX)
    Blend: AUG-CC-PVTZ-RI
    Molecular point group: c1

    Geometry (in Angstrom), charge = 0, multiplicity = 1:

       Center              X                  Y                   Z               Mass
    ------------   -----------------  -----------------  -----------------  -----------------
         O            2.146439624275     1.374298956091    -0.016407066494    15.994914619570
         N            1.064601924275    -0.717008243909    -0.023387166494    14.003074004430
         C           -0.285753375725    -0.308198043909    -0.009887066494    12.000000000000
         C           -0.730911375725     1.021924956091     0.000444933506    12.000000000000
         C           -1.220304375725    -1.354935043909    -0.008312066494    12.000000000000
         C           -2.103453375725     1.277191956091     0.013441933506    12.000000000000
         C           -2.585473375725    -1.081862043909     0.004744933506    12.000000000000
         C           -3.036317375725     0.239710956091     0.015625933506    12.000000000000
         C            2.189293624275     0.144208956091    -0.017008066494    12.000000000000
         C            3.499716624275    -0.618257043909     0.035020933506    12.000000000000
         H           -0.011283375725     1.829300956091    -0.001853066494     1.007825032230
         H           -0.874834375725    -2.388287043909    -0.016623066494     1.007825032230
         H            1.255367624275    -1.667461043909    -0.026198066494     1.007825032230
         H           -2.442240375725     2.310539956091     0.021510933506     1.007825032230
         H           -3.295527375725    -1.905334043909     0.006088933506     1.007825032230
         H           -4.101172375725     0.456623956091     0.025573933506     1.007825032230
         H            3.729104624275    -0.888737043909     1.070357933506     1.007825032230
         H            4.288378624275     0.036545956091    -0.335035066494     1.007825032230
         H            3.474996624275    -1.532742043909    -0.564164066494     1.007825032230

  Basis Set: AUG-CC-PVTZ
    Blend: AUG-CC-PVTZ
  Basis Set: (AUG-CC-PVTZ AUX)
    Blend: AUG-CC-PVTZ-JKFIT
	 Reference Energy          =    -437.6683230433541780 [Eh]
	 Singles Energy            =      -0.0000000000000000 [Eh]
	 Same-Spin Energy          =      -0.4672031902092874 [Eh]
	 Opposite-Spin Energy      =      -1.4565878831485743 [Eh]
	 Correlation Energy        =      -1.9237910733578616 [Eh]
	 Total Energy              =    -439.5921141167120254 [Eh]

	 ================> DF-SCS-MP2 Energies <==================
	-----------------------------------------------------------
	 SCS Same-Spin Scale       =       0.3333333333333333 [-]
	 SCS Opposite-Spin Scale   =       1.2000000000000000 [-]
	 SCS Same-Spin Energy      =      -0.1557343967364291 [Eh]
	 SCS Opposite-Spin Energy  =      -1.7479054597782893 [Eh]
	 SCS Correlation Energy    =      -1.9036398565147183 [Eh]
	 SCS Total Energy          =    -439.5719628998688790 [Eh]
	-----------------------------------------------------------

  Dipole Moment: [D]
     X:     0.2675      Y:    -3.3033      Z:     0.0626     Total:     3.3147

*** Psi4 exiting successfully. Buy a developer a beer!
