                               Psi4 1.3.2 release

  ==> Input File <==

--------------------------------------------------------------------------
#psi4
#
memory 32 gb

molecule  {
0 1
  O        2.1311420     1.3954640    -0.0176610
  N        1.0627510    -0.6484660    -0.0244750
  C       -0.3313601    -0.4315758    -0.0110442
  C       -0.7462090     1.0430900    -0.0008090
  C       -1.2356020    -1.3337700    -0.0095660
  C       -2.1187510     1.2983570     0.0121880
  C       -2.6007710    -1.0606970     0.0034910
  C       -3.0516150     0.2608760     0.0143720
  C        2.1739960     0.1653740    -0.0182620
  C        3.4844190    -0.5970920     0.0337670
  H       -0.0265810     1.8504660    -0.0031070
  H       -0.8901320    -2.3671220    -0.0178770
  H        1.2400700    -1.6462960    -0.0274520
  H       -2.4575380     2.3317050     0.0202570
  H       -3.3108250    -1.8841690     0.0048350
  H       -4.1164700     0.4777890     0.0243200
  H        3.7138070    -0.8675720     1.0691040
  H        4.2730810     0.0577110    -0.3362890
  H        3.4596990    -1.5115770    -0.5654180
units angstrom
no_reorient  #important for SAPT in psi4, default
symmetry c1  #important for SAPT in psi4, default
}

set PROPERTIES_ORIGIN ["COM"]
properties('MP2/aug-cc-pvtz', properties = ['dipole'])
--------------------------------------------------------------------------

    Molecular point group: c1
  Charge       = 0
  Multiplicity = 1
  Basis Set: AUG-CC-PVTZ
    Blend: AUG-CC-PVTZ
  Basis Set: (AUG-CC-PVTZ AUX)
    Blend: AUG-CC-PVTZ-JKFIT

    Orbital Energies [Eh]
    ---------------------

    Doubly Occupied:

       1A    -20.529474     2A    -15.608656     3A    -11.369966
       4A    -11.288458     5A    -11.247934     6A    -11.242467
       7A    -11.239669     8A    -11.235156     9A    -11.232371
      10A    -11.225263    11A     -1.384114    12A     -1.260183
      13A     -1.147238    14A     -1.045163    15A     -1.016672
      16A     -0.982967    17A     -0.861123    18A     -0.826912
      19A     -0.787533    20A     -0.718929    21A     -0.683602
      22A     -0.679698    23A     -0.629108    24A     -0.622582
      25A     -0.611573    26A     -0.586110    27A     -0.580192
      28A     -0.566300    29A     -0.559163    30A     -0.523284
      31A     -0.504592    32A     -0.480566    33A     -0.442647
      34A     -0.431790    35A     -0.347599    36A     -0.306242

  @DF-RHF Final Energy:  -437.64364369635291

   => Energetics <=

    Nuclear Repulsion Energy =            483.9980551036165366
    One-Electron Energy =               -1553.6728080676018635
    Two-Electron Energy =                 632.0311092676324733
    Total Energy =                       -437.6436436963529104
  Basis Set: (AUG-CC-PVTZ AUX)
    Blend: AUG-CC-PVTZ-RI
    Molecular point group: c1

    Geometry (in Angstrom), charge = 0, multiplicity = 1:

       Center              X                  Y                   Z               Mass
    ------------   -----------------  -----------------  -----------------  -----------------
         O            2.147738329573     1.382228916407    -0.016432886821    15.994914619570
         N            1.079347329573    -0.661701083593    -0.023246886821    14.003074004430
         C           -0.314763770427    -0.444810883593    -0.009816086821    12.000000000000
         C           -0.729612670427     1.029854916407     0.000419113179    12.000000000000
         C           -1.219005670427    -1.347005083593    -0.008337886821    12.000000000000
         C           -2.102154670427     1.285121916407     0.013416113179    12.000000000000
         C           -2.584174670427    -1.073932083593     0.004719113179    12.000000000000
         C           -3.035018670427     0.247640916407     0.015600113179    12.000000000000
         C            2.190592329573     0.152138916407    -0.017033886821    12.000000000000
         C            3.501015329573    -0.610327083593     0.034995113179    12.000000000000
         H           -0.009984670427     1.837230916407    -0.001878886821     1.007825032230
         H           -0.873535670427    -2.380357083593    -0.016648886821     1.007825032230
         H            1.256666329573    -1.659531083593    -0.026223886821     1.007825032230
         H           -2.440941670427     2.318469916407     0.021485113179     1.007825032230
         H           -3.294228670427    -1.897404083593     0.006063113179     1.007825032230
         H           -4.099873670427     0.464553916407     0.025548113179     1.007825032230
         H            3.730403329573    -0.880807083593     1.070332113179     1.007825032230
         H            4.289677329573     0.044475916407    -0.335060886821     1.007825032230
         H            3.476295329573    -1.524812083593    -0.564189886821     1.007825032230

  Basis Set: AUG-CC-PVTZ
    Blend: AUG-CC-PVTZ
  Basis Set: (AUG-CC-PVTZ AUX)
    Blend: AUG-CC-PVTZ-JKFIT
	 Reference Energy          =    -437.6436436963529104 [Eh]
	 Singles Energy            =      -0.0000000000000000 [Eh]
	 Same-Spin Energy          =      -0.4668193672862194 [Eh]
	 Opposite-Spin Energy      =      -1.4576045831247375 [Eh]
	 Correlation Energy        =      -1.9244239504109570 [Eh]
	 Total Energy              =    -439.5680676467638932 [Eh]

	 ================> DF-SCS-MP2 Energies <==================
	-----------------------------------------------------------
	 SCS Same-Spin Scale       =       0.3333333333333333 [-]
	 SCS Opposite-Spin Scale   =       1.2000000000000000 [-]
	 SCS Same-Spin Energy      =      -0.1556064557620731 [Eh]
	 SCS Opposite-Spin Energy  =      -1.7491254997496850 [Eh]
	 SCS Correlation Energy    =      -1.9047319555117581 [Eh]
	 SCS Total Energy          =    -439.5483756518646601 [Eh]
	-----------------------------------------------------------

  Dipole Moment: [D]
     X:     0.0732      Y:    -3.4282      Z:     0.0618     Total:     3.4295

*** Psi4 exiting successfully. Buy a developer a beer!
