                               Psi4 1.3.2 release

  ==> Input File <==

--------------------------------------------------------------------------
#psi4
#
memory 32 gb

molecule  {
0 1
  O        2.1311420     1.3954640    -0.0176610
  N        1.0627510    -0.6484660    -0.0244750
  C       -0.2876009    -0.2396609    -0.0104877
  C       -0.7462090     1.0430900    -0.0008090
  C       -1.2356020    -1.3337700    -0.0095660
  C       -2.1187510     1.2983570     0.0121880
  C       -2.6007710    -1.0606970     0.0034910
  C       -3.0516150     0.2608760     0.0143720
  C        2.1739960     0.1653740    -0.0182620
  C        3.4844190    -0.5970920     0.0337670
  H       -0.0265810     1.8504660    -0.0031070
  H       -0.8901320    -2.3671220    -0.0178770
  H        1.2400700    -1.6462960    -0.0274520
  H       -2.4575380     2.3317050     0.0202570
  H       -3.3108250    -1.8841690     0.0048350
  H       -4.1164700     0.4777890     0.0243200
  H        3.7138070    -0.8675720     1.0691040
  H        4.2730810     0.0577110    -0.3362890
  H        3.4596990    -1.5115770    -0.5654180
units angstrom
no_reorient  #important for SAPT in psi4, default
symmetry c1  #important for SAPT in psi4, default
}

set PROPERTIES_ORIGIN ["COM"]
properties('MP2/aug-cc-pvtz', properties = ['dipole'])
--------------------------------------------------------------------------

    Molecular point group: c1
  Charge       = 0
  Multiplicity = 1
  Basis Set: AUG-CC-PVTZ
    Blend: AUG-CC-PVTZ
  Basis Set: (AUG-CC-PVTZ AUX)
    Blend: AUG-CC-PVTZ-JKFIT

    Orbital Energies [Eh]
    ---------------------

    Doubly Occupied:

       1A    -20.529348     2A    -15.609820     3A    -11.365211
       4A    -11.291168     5A    -11.246242     6A    -11.243805
       7A    -11.242045     8A    -11.239055     9A    -11.230596
      10A    -11.222571    11A     -1.384468    12A     -1.258651
      13A     -1.143126    14A     -1.036229    15A     -1.017721
      16A     -0.985038    17A     -0.854898    18A     -0.838260
      19A     -0.775599    20A     -0.728173    21A     -0.680558
      22A     -0.676567    23A     -0.628560    24A     -0.618801
      25A     -0.609102    26A     -0.592822    27A     -0.583294
      28A     -0.566331    29A     -0.557217    30A     -0.518428
      31A     -0.500964    32A     -0.498971    33A     -0.442271
      34A     -0.426948    35A     -0.341418    36A     -0.309294

  @DF-RHF Final Energy:  -437.66892889067265

   => Energetics <=

    Nuclear Repulsion Energy =            484.3872829921945140
    One-Electron Energy =               -1554.5252869771929909
    Two-Electron Energy =                 632.4690750943258308
    Total Energy =                       -437.6689288906726460
  Basis Set: (AUG-CC-PVTZ AUX)
    Blend: AUG-CC-PVTZ-RI
    Molecular point group: c1

    Geometry (in Angstrom), charge = 0, multiplicity = 1:

       Center              X                  Y                   Z               Mass
    ------------   -----------------  -----------------  -----------------  -----------------
         O            2.143850593093     1.365178454842    -0.016482328432    15.994914619570
         N            1.075459593093    -0.678751545158    -0.023296328432    14.003074004430
         C           -0.274892306907    -0.269946445158    -0.009309028432    12.000000000000
         C           -0.733500406907     1.012804454842     0.000369671568    12.000000000000
         C           -1.222893406907    -1.364055545158    -0.008387328432    12.000000000000
         C           -2.106042406907     1.268071454842     0.013366671568    12.000000000000
         C           -2.588062406907    -1.090982545158     0.004669671568    12.000000000000
         C           -3.038906406907     0.230590454842     0.015550671568    12.000000000000
         C            2.186704593093     0.135088454842    -0.017083328432    12.000000000000
         C            3.497127593093    -0.627377545158     0.034945671568    12.000000000000
         H           -0.013872406907     1.820180454842    -0.001928328432     1.007825032230
         H           -0.877423406907    -2.397407545158    -0.016698328432     1.007825032230
         H            1.252778593093    -1.676581545158    -0.026273328432     1.007825032230
         H           -2.444829406907     2.301419454842     0.021435671568     1.007825032230
         H           -3.298116406907    -1.914454545158     0.006013671568     1.007825032230
         H           -4.103761406907     0.447503454842     0.025498671568     1.007825032230
         H            3.726515593093    -0.897857545158     1.070282671568     1.007825032230
         H            4.285789593093     0.027425454842    -0.335110328432     1.007825032230
         H            3.472407593093    -1.541862545158    -0.564239328432     1.007825032230

  Basis Set: AUG-CC-PVTZ
    Blend: AUG-CC-PVTZ
  Basis Set: (AUG-CC-PVTZ AUX)
    Blend: AUG-CC-PVTZ-JKFIT
	 Reference Energy          =    -437.6689288906726460 [Eh]
	 Singles Energy            =      -0.0000000000000000 [Eh]
	 Same-Spin Energy          =      -0.4672533668204222 [Eh]
	 Opposite-Spin Energy      =      -1.4566577439081763 [Eh]
	 Correlation Energy        =      -1.9239111107285984 [Eh]
	 Total Energy              =    -439.5928400014012709 [Eh]

	 ================> DF-SCS-MP2 Energies <==================
	-----------------------------------------------------------
	 SCS Same-Spin Scale       =       0.3333333333333333 [-]
	 SCS Opposite-Spin Scale   =       1.2000000000000000 [-]
	 SCS Same-Spin Energy      =      -0.1557511222734740 [Eh]
	 SCS Opposite-Spin Energy  =      -1.7479892926898115 [Eh]
	 SCS Correlation Energy    =      -1.9037404149632855 [Eh]
	 SCS Total Energy          =    -439.5726693056359409 [Eh]
	-----------------------------------------------------------

  Dipole Moment: [D]
     X:     0.0579      Y:    -3.4361      Z:     0.0607     Total:     3.4371

*** Psi4 exiting successfully. Buy a developer a beer!
