                               Psi4 1.3.2 release

  ==> Input File <==

--------------------------------------------------------------------------
#psi4
#
memory 32 gb

molecule  {
0 1
  O        2.1311420     1.3954640    -0.0176610
  N        1.0627510    -0.6484660    -0.0244750
  C       -0.3229412    -0.3830519    -0.0110601
  C       -0.7462090     1.0430900    -0.0008090
  C       -1.2356020    -1.3337700    -0.0095660
  C       -2.1187510     1.2983570     0.0121880
  C       -2.6007710    -1.0606970     0.0034910
  C       -3.0516150     0.2608760     0.0143720
  C        2.1739960     0.1653740    -0.0182620
  C        3.4844190    -0.5970920     0.0337670
  H       -0.0265810     1.8504660    -0.0031070
  H       -0.8901320    -2.3671220    -0.0178770
  H        1.2400700    -1.6462960    -0.0274520
  H       -2.4575380     2.3317050     0.0202570
  H       -3.3108250    -1.8841690     0.0048350
  H       -4.1164700     0.4777890     0.0243200
  H        3.7138070    -0.8675720     1.0691040
  H        4.2730810     0.0577110    -0.3362890
  H        3.4596990    -1.5115770    -0.5654180
units angstrom
no_reorient  #important for SAPT in psi4, default
symmetry c1  #important for SAPT in psi4, default
}

set PROPERTIES_ORIGIN ["COM"]
properties('MP2/aug-cc-pvtz', properties = ['dipole'])
--------------------------------------------------------------------------

    Molecular point group: c1
  Charge       = 0
  Multiplicity = 1
  Basis Set: AUG-CC-PVTZ
    Blend: AUG-CC-PVTZ
  Basis Set: (AUG-CC-PVTZ AUX)
    Blend: AUG-CC-PVTZ-JKFIT

    Orbital Energies [Eh]
    ---------------------

    Doubly Occupied:

       1A    -20.529362     2A    -15.608828     3A    -11.368661
       4A    -11.289945     5A    -11.247486     6A    -11.242580
       7A    -11.236846     8A    -11.235622     9A    -11.231643
      10A    -11.230233    11A     -1.384103    12A     -1.259703
      13A     -1.145385    14A     -1.041085    15A     -1.016772
      16A     -0.984374    17A     -0.859773    18A     -0.829226
      19A     -0.785088    20A     -0.721036    21A     -0.682757
      22A     -0.677421    23A     -0.628843    24A     -0.620543
      25A     -0.613015    26A     -0.585869    27A     -0.583227
      28A     -0.567095    29A     -0.558200    30A     -0.521567
      31A     -0.503325    32A     -0.489282    33A     -0.442505
      34A     -0.430795    35A     -0.343545    36A     -0.307991

  @DF-RHF Final Energy:  -437.65948816210243

   => Energetics <=

    Nuclear Repulsion Energy =            484.0659231161424145
    One-Electron Energy =               -1553.8433594083728622
    Two-Electron Energy =                 632.1179481301280703
    Total Energy =                       -437.6594881621024342
  Basis Set: (AUG-CC-PVTZ AUX)
    Blend: AUG-CC-PVTZ-RI
    Molecular point group: c1

    Geometry (in Angstrom), charge = 0, multiplicity = 1:

       Center              X                  Y                   Z               Mass
    ------------   -----------------  -----------------  -----------------  -----------------
         O            2.146990361954     1.377917865561    -0.016431474203    15.994914619570
         N            1.078599361954    -0.666012134439    -0.023245474203    14.003074004430
         C           -0.307092838046    -0.400598034439    -0.009830574203    12.000000000000
         C           -0.730360638046     1.025543865561     0.000420525797    12.000000000000
         C           -1.219753638046    -1.351316134439    -0.008336474203    12.000000000000
         C           -2.102902638046     1.280810865561     0.013417525797    12.000000000000
         C           -2.584922638046    -1.078243134439     0.004720525797    12.000000000000
         C           -3.035766638046     0.243329865561     0.015601525797    12.000000000000
         C            2.189844361954     0.147827865561    -0.017032474203    12.000000000000
         C            3.500267361954    -0.614638134439     0.034996525797    12.000000000000
         H           -0.010732638046     1.832919865561    -0.001877474203     1.007825032230
         H           -0.874283638046    -2.384668134439    -0.016647474203     1.007825032230
         H            1.255918361954    -1.663842134439    -0.026222474203     1.007825032230
         H           -2.441689638046     2.314158865561     0.021486525797     1.007825032230
         H           -3.294976638046    -1.901715134439     0.006064525797     1.007825032230
         H           -4.100621638046     0.460242865561     0.025549525797     1.007825032230
         H            3.729655361954    -0.885118134439     1.070333525797     1.007825032230
         H            4.288929361954     0.040164865561    -0.335059474203     1.007825032230
         H            3.475547361954    -1.529123134439    -0.564188474203     1.007825032230

  Basis Set: AUG-CC-PVTZ
    Blend: AUG-CC-PVTZ
  Basis Set: (AUG-CC-PVTZ AUX)
    Blend: AUG-CC-PVTZ-JKFIT
	 Reference Energy          =    -437.6594881621024342 [Eh]
	 Singles Energy            =      -0.0000000000000000 [Eh]
	 Same-Spin Energy          =      -0.4670977771964976 [Eh]
	 Opposite-Spin Energy      =      -1.4569885120584565 [Eh]
	 Correlation Energy        =      -1.9240862892549542 [Eh]
	 Total Energy              =    -439.5835744513573786 [Eh]

	 ================> DF-SCS-MP2 Energies <==================
	-----------------------------------------------------------
	 SCS Same-Spin Scale       =       0.3333333333333333 [-]
	 SCS Opposite-Spin Scale   =       1.2000000000000000 [-]
	 SCS Same-Spin Energy      =      -0.1556992590654992 [Eh]
	 SCS Opposite-Spin Energy  =      -1.7483862144701476 [Eh]
	 SCS Correlation Energy    =      -1.9040854735356469 [Eh]
	 SCS Total Energy          =    -439.5635736356380789 [Eh]
	-----------------------------------------------------------

  Dipole Moment: [D]
     X:     0.0650      Y:    -3.4287      Z:     0.0614     Total:     3.4299

*** Psi4 exiting successfully. Buy a developer a beer!
