                               Psi4 1.3.2 release

  ==> Input File <==

--------------------------------------------------------------------------
#psi4
#
memory 32 gb

molecule  {
0 1
  O        2.1311420     1.3954640    -0.0176610
  N        1.0627510    -0.6484660    -0.0244750
  C       -0.3128395    -0.3348454    -0.0118106
  C       -0.7462090     1.0430900    -0.0008090
  C       -1.2356020    -1.3337700    -0.0095660
  C       -2.1187510     1.2983570     0.0121880
  C       -2.6007710    -1.0606970     0.0034910
  C       -3.0516150     0.2608760     0.0143720
  C        2.1739960     0.1653740    -0.0182620
  C        3.4844190    -0.5970920     0.0337670
  H       -0.0265810     1.8504660    -0.0031070
  H       -0.8901320    -2.3671220    -0.0178770
  H        1.2400700    -1.6462960    -0.0274520
  H       -2.4575380     2.3317050     0.0202570
  H       -3.3108250    -1.8841690     0.0048350
  H       -4.1164700     0.4777890     0.0243200
  H        3.7138070    -0.8675720     1.0691040
  H        4.2730810     0.0577110    -0.3362890
  H        3.4596990    -1.5115770    -0.5654180
units angstrom
no_reorient  #important for SAPT in psi4, default
symmetry c1  #important for SAPT in psi4, default
}

set PROPERTIES_ORIGIN ["COM"]
properties('MP2/aug-cc-pvtz', properties = ['dipole'])
--------------------------------------------------------------------------

    Molecular point group: c1
  Charge       = 0
  Multiplicity = 1
  Basis Set: AUG-CC-PVTZ
    Blend: AUG-CC-PVTZ
  Basis Set: (AUG-CC-PVTZ AUX)
    Blend: AUG-CC-PVTZ-JKFIT

    Orbital Energies [Eh]
    ---------------------

    Doubly Occupied:

       1A    -20.529309     2A    -15.609100     3A    -11.367433
       4A    -11.290965     5A    -11.247057     6A    -11.242613
       7A    -11.237376     8A    -11.235037     9A    -11.232046
      10A    -11.231071    11A     -1.384158    12A     -1.259305
      13A     -1.144098    14A     -1.037956    15A     -1.017093
      16A     -0.985292    17A     -0.858278    18A     -0.832166
      19A     -0.782019    20A     -0.723268    21A     -0.681987
      22A     -0.675985    23A     -0.628668    24A     -0.617564
      25A     -0.614795    26A     -0.587477    27A     -0.584549
      28A     -0.567244    29A     -0.557580    30A     -0.519805
      31A     -0.502304    32A     -0.495560    33A     -0.442392
      34A     -0.429694    35A     -0.340880    36A     -0.309297

  @DF-RHF Final Energy:  -437.66886829705970

   => Energetics <=

    Nuclear Repulsion Energy =            484.1528710940979749
    One-Electron Energy =               -1554.0406335447908077
    Two-Electron Energy =                 632.2188941536331868
    Total Energy =                       -437.6688682970597029
  Basis Set: (AUG-CC-PVTZ AUX)
    Blend: AUG-CC-PVTZ-RI
    Molecular point group: c1

    Geometry (in Angstrom), charge = 0, multiplicity = 1:

       Center              X                  Y                   Z               Mass
    ------------   -----------------  -----------------  -----------------  -----------------
         O            2.146092887877     1.373635013758    -0.016364796882    15.994914619570
         N            1.077701887877    -0.670294986242    -0.023178796882    14.003074004430
         C           -0.297888612123    -0.356674386242    -0.010514396882    12.000000000000
         C           -0.731258112123     1.021261013758     0.000487203118    12.000000000000
         C           -1.220651112123    -1.355598986242    -0.008269796882    12.000000000000
         C           -2.103800112123     1.276528013758     0.013484203118    12.000000000000
         C           -2.585820112123    -1.082525986242     0.004787203118    12.000000000000
         C           -3.036664112123     0.239047013758     0.015668203118    12.000000000000
         C            2.188946887877     0.143545013758    -0.016965796882    12.000000000000
         C            3.499369887877    -0.618920986242     0.035063203118    12.000000000000
         H           -0.011630112123     1.828637013758    -0.001810796882     1.007825032230
         H           -0.875181112123    -2.388950986242    -0.016580796882     1.007825032230
         H            1.255020887877    -1.668124986242    -0.026155796882     1.007825032230
         H           -2.442587112123     2.309876013758     0.021553203118     1.007825032230
         H           -3.295874112123    -1.905997986242     0.006131203118     1.007825032230
         H           -4.101519112123     0.455960013758     0.025616203118     1.007825032230
         H            3.728757887877    -0.889400986242     1.070400203118     1.007825032230
         H            4.288031887877     0.035882013758    -0.334992796882     1.007825032230
         H            3.474649887877    -1.533405986242    -0.564121796882     1.007825032230

  Basis Set: AUG-CC-PVTZ
    Blend: AUG-CC-PVTZ
  Basis Set: (AUG-CC-PVTZ AUX)
    Blend: AUG-CC-PVTZ-JKFIT
	 Reference Energy          =    -437.6688682970597029 [Eh]
	 Singles Energy            =      -0.0000000000000000 [Eh]
	 Same-Spin Energy          =      -0.4672962235188826 [Eh]
	 Opposite-Spin Energy      =      -1.4566247143226827 [Eh]
	 Correlation Energy        =      -1.9239209378415651 [Eh]
	 Total Energy              =    -439.5927892349012609 [Eh]

	 ================> DF-SCS-MP2 Energies <==================
	-----------------------------------------------------------
	 SCS Same-Spin Scale       =       0.3333333333333333 [-]
	 SCS Opposite-Spin Scale   =       1.2000000000000000 [-]
	 SCS Same-Spin Energy      =      -0.1557654078396275 [Eh]
	 SCS Opposite-Spin Energy  =      -1.7479496571872193 [Eh]
	 SCS Correlation Energy    =      -1.9037150650268468 [Eh]
	 SCS Total Energy          =    -439.5725833620865615 [Eh]
	-----------------------------------------------------------

  Dipole Moment: [D]
     X:     0.0596      Y:    -3.4311      Z:     0.0609     Total:     3.4322

*** Psi4 exiting successfully. Buy a developer a beer!
