                               Psi4 1.3.2 release

  ==> Input File <==

--------------------------------------------------------------------------
#psi4
#
memory 32 gb

molecule  {
0 1
  O        2.1311420     1.3954640    -0.0176610
  N        1.0627510    -0.6484660    -0.0244750
  C       -0.2725056    -0.1927870    -0.0098513
  C       -0.7462090     1.0430900    -0.0008090
  C       -1.2356020    -1.3337700    -0.0095660
  C       -2.1187510     1.2983570     0.0121880
  C       -2.6007710    -1.0606970     0.0034910
  C       -3.0516150     0.2608760     0.0143720
  C        2.1739960     0.1653740    -0.0182620
  C        3.4844190    -0.5970920     0.0337670
  H       -0.0265810     1.8504660    -0.0031070
  H       -0.8901320    -2.3671220    -0.0178770
  H        1.2400700    -1.6462960    -0.0274520
  H       -2.4575380     2.3317050     0.0202570
  H       -3.3108250    -1.8841690     0.0048350
  H       -4.1164700     0.4777890     0.0243200
  H        3.7138070    -0.8675720     1.0691040
  H        4.2730810     0.0577110    -0.3362890
  H        3.4596990    -1.5115770    -0.5654180
units angstrom
no_reorient  #important for SAPT in psi4, default
symmetry c1  #important for SAPT in psi4, default
}

set PROPERTIES_ORIGIN ["COM"]
properties('MP2/aug-cc-pvtz', properties = ['dipole'])
--------------------------------------------------------------------------

    Molecular point group: c1
  Charge       = 0
  Multiplicity = 1
  Basis Set: AUG-CC-PVTZ
    Blend: AUG-CC-PVTZ
  Basis Set: (AUG-CC-PVTZ AUX)
    Blend: AUG-CC-PVTZ-JKFIT

    Orbital Energies [Eh]
    ---------------------

    Doubly Occupied:

       1A    -20.529458     2A    -15.610290     3A    -11.364250
       4A    -11.290430     5A    -11.246989     6A    -11.245875
       7A    -11.241908     8A    -11.239711     9A    -11.230700
      10A    -11.217441    11A     -1.384760    12A     -1.258404
      13A     -1.143389    14A     -1.038048    15A     -1.017572
      16A     -0.983950    17A     -0.853215    18A     -0.840745
      19A     -0.772836    20A     -0.730831    21A     -0.679905
      22A     -0.678461    23A     -0.628650    24A     -0.620403
      25A     -0.604744    26A     -0.594708    27A     -0.582074
      28A     -0.565385    29A     -0.557451    30A     -0.519578
      31A     -0.500638    32A     -0.495532    33A     -0.442282
      34A     -0.425126    35A     -0.344508    36A     -0.308050

  @DF-RHF Final Energy:  -437.65990494660338

   => Energetics <=

    Nuclear Repulsion Energy =            484.5334067552200850
    One-Electron Energy =               -1554.8100285468685797
    Two-Electron Energy =                 632.6167168450451754
    Total Energy =                       -437.6599049466033193
  Basis Set: (AUG-CC-PVTZ AUX)
    Blend: AUG-CC-PVTZ-RI
    Molecular point group: c1

    Geometry (in Angstrom), charge = 0, multiplicity = 1:

       Center              X                  Y                   Z               Mass
    ------------   -----------------  -----------------  -----------------  -----------------
         O            2.142509468290     1.361013996375    -0.016538868668    15.994914619570
         N            1.074118468290    -0.682916003625    -0.023352868668    14.003074004430
         C           -0.261138131710    -0.227237003625    -0.008729168668    12.000000000000
         C           -0.734841531710     1.008639996375     0.000313131332    12.000000000000
         C           -1.224234531710    -1.368220003625    -0.008443868668    12.000000000000
         C           -2.107383531710     1.263906996375     0.013310131332    12.000000000000
         C           -2.589403531710    -1.095147003625     0.004613131332    12.000000000000
         C           -3.040247531710     0.226425996375     0.015494131332    12.000000000000
         C            2.185363468290     0.130923996375    -0.017139868668    12.000000000000
         C            3.495786468290    -0.631542003625     0.034889131332    12.000000000000
         H           -0.015213531710     1.816015996375    -0.001984868668     1.007825032230
         H           -0.878764531710    -2.401572003625    -0.016754868668     1.007825032230
         H            1.251437468290    -1.680746003625    -0.026329868668     1.007825032230
         H           -2.446170531710     2.297254996375     0.021379131332     1.007825032230
         H           -3.299457531710    -1.918619003625     0.005957131332     1.007825032230
         H           -4.105102531710     0.443338996375     0.025442131332     1.007825032230
         H            3.725174468290    -0.902022003625     1.070226131332     1.007825032230
         H            4.284448468290     0.023260996375    -0.335166868668     1.007825032230
         H            3.471066468290    -1.546027003625    -0.564295868668     1.007825032230

  Basis Set: AUG-CC-PVTZ
    Blend: AUG-CC-PVTZ
  Basis Set: (AUG-CC-PVTZ AUX)
    Blend: AUG-CC-PVTZ-JKFIT
	 Reference Energy          =    -437.6599049466033762 [Eh]
	 Singles Energy            =      -0.0000000000000000 [Eh]
	 Same-Spin Energy          =      -0.4670279467261449 [Eh]
	 Opposite-Spin Energy      =      -1.4570529097719844 [Eh]
	 Correlation Energy        =      -1.9240808564981293 [Eh]
	 Total Energy              =    -439.5839858031014842 [Eh]

	 ================> DF-SCS-MP2 Energies <==================
	-----------------------------------------------------------
	 SCS Same-Spin Scale       =       0.3333333333333333 [-]
	 SCS Opposite-Spin Scale   =       1.2000000000000000 [-]
	 SCS Same-Spin Energy      =      -0.1556759822420483 [Eh]
	 SCS Opposite-Spin Energy  =      -1.7484634917263813 [Eh]
	 SCS Correlation Energy    =      -1.9041394739684296 [Eh]
	 SCS Total Energy          =    -439.5640444205718040 [Eh]
	-----------------------------------------------------------

  Dipole Moment: [D]
     X:     0.0630      Y:    -3.4355      Z:     0.0606     Total:     3.4366

*** Psi4 exiting successfully. Buy a developer a beer!
