                               Psi4 1.3.2 release

  ==> Input File <==

--------------------------------------------------------------------------
#psi4
#
memory 32 gb

molecule  {
0 1
  O        2.1311420     1.3954640    -0.0176610
  N        1.0342124    -0.7427224    -0.0247908
  C       -0.3010510    -0.2870330    -0.0111410
  C       -0.7462090     1.0430900    -0.0008090
  C       -1.2356020    -1.3337700    -0.0095660
  C       -2.1187510     1.2983570     0.0121880
  C       -2.6007710    -1.0606970     0.0034910
  C       -3.0516150     0.2608760     0.0143720
  C        2.1739960     0.1653740    -0.0182620
  C        3.4844190    -0.5970920     0.0337670
  H       -0.0265810     1.8504660    -0.0031070
  H       -0.8901320    -2.3671220    -0.0178770
  H        1.2400700    -1.6462960    -0.0274520
  H       -2.4575380     2.3317050     0.0202570
  H       -3.3108250    -1.8841690     0.0048350
  H       -4.1164700     0.4777890     0.0243200
  H        3.7138070    -0.8675720     1.0691040
  H        4.2730810     0.0577110    -0.3362890
  H        3.4596990    -1.5115770    -0.5654180
units angstrom
no_reorient  #important for SAPT in psi4, default
symmetry c1  #important for SAPT in psi4, default
}

set PROPERTIES_ORIGIN ["COM"]
properties('MP2/aug-cc-pvtz', properties = ['dipole'])
--------------------------------------------------------------------------

    Molecular point group: c1
  Charge       = 0
  Multiplicity = 1
  Basis Set: AUG-CC-PVTZ
    Blend: AUG-CC-PVTZ
  Basis Set: (AUG-CC-PVTZ AUX)
    Blend: AUG-CC-PVTZ-JKFIT

    Orbital Energies [Eh]
    ---------------------

    Doubly Occupied:

       1A    -20.545008     2A    -15.600753     3A    -11.378263
       4A    -11.289261     5A    -11.248866     6A    -11.239479
       7A    -11.237249     8A    -11.233935     9A    -11.227585
      10A    -11.226998    11A     -1.388093    12A     -1.258535
      13A     -1.139840    14A     -1.033807    15A     -1.015045
      16A     -0.986162    17A     -0.848493    18A     -0.833560
      19A     -0.785423    20A     -0.732404    21A     -0.682178
      22A     -0.673050    23A     -0.625194    24A     -0.618251
      25A     -0.612674    26A     -0.599833    27A     -0.584498
      28A     -0.564139    29A     -0.554189    30A     -0.517276
      31A     -0.502920    32A     -0.498278    33A     -0.446281
      34A     -0.431641    35A     -0.338106    36A     -0.305871

  @DF-RHF Final Energy:  -437.65694988967823

   => Energetics <=

    Nuclear Repulsion Energy =            483.1460784239395707
    One-Electron Energy =               -1551.9997782623493094
    Two-Electron Energy =                 631.1967499487315081
    Total Energy =                       -437.6569498896782306
  Basis Set: (AUG-CC-PVTZ AUX)
    Blend: AUG-CC-PVTZ-RI
    Molecular point group: c1

    Geometry (in Angstrom), charge = 0, multiplicity = 1:

       Center              X                  Y                   Z               Mass
    ------------   -----------------  -----------------  -----------------  -----------------
         O            2.148004260939     1.379159107238    -0.016391546506    15.994914619570
         N            1.051074660939    -0.759027292762    -0.023521346506    14.003074004430
         C           -0.284188739061    -0.303337892762    -0.009871546506    12.000000000000
         C           -0.729346739061     1.026785107238     0.000460453494    12.000000000000
         C           -1.218739739061    -1.350074892762    -0.008296546506    12.000000000000
         C           -2.101888739061     1.282052107238     0.013457453494    12.000000000000
         C           -2.583908739061    -1.077001892762     0.004760453494    12.000000000000
         C           -3.034752739061     0.244571107238     0.015641453494    12.000000000000
         C            2.190858260939     0.149069107238    -0.016992546506    12.000000000000
         C            3.501281260939    -0.613396892762     0.035036453494    12.000000000000
         H           -0.009718739061     1.834161107238    -0.001837546506     1.007825032230
         H           -0.873269739061    -2.383426892762    -0.016607546506     1.007825032230
         H            1.256932260939    -1.662600892762    -0.026182546506     1.007825032230
         H           -2.440675739061     2.315400107238     0.021526453494     1.007825032230
         H           -3.293962739061    -1.900473892762     0.006104453494     1.007825032230
         H           -4.099607739061     0.461484107238     0.025589453494     1.007825032230
         H            3.730669260939    -0.883876892762     1.070373453494     1.007825032230
         H            4.289943260939     0.041406107238    -0.335019546506     1.007825032230
         H            3.476561260939    -1.527881892762    -0.564148546506     1.007825032230

  Basis Set: AUG-CC-PVTZ
    Blend: AUG-CC-PVTZ
  Basis Set: (AUG-CC-PVTZ AUX)
    Blend: AUG-CC-PVTZ-JKFIT
	 Reference Energy          =    -437.6569498896782306 [Eh]
	 Singles Energy            =      -0.0000000000000000 [Eh]
	 Same-Spin Energy          =      -0.4672002047459860 [Eh]
	 Opposite-Spin Energy      =      -1.4570829886007695 [Eh]
	 Correlation Energy        =      -1.9242831933467555 [Eh]
	 Total Energy              =    -439.5812330830249834 [Eh]

	 ================> DF-SCS-MP2 Energies <==================
	-----------------------------------------------------------
	 SCS Same-Spin Scale       =       0.3333333333333333 [-]
	 SCS Opposite-Spin Scale   =       1.2000000000000000 [-]
	 SCS Same-Spin Energy      =      -0.1557334015819953 [Eh]
	 SCS Opposite-Spin Energy  =      -1.7484995863209234 [Eh]
	 SCS Correlation Energy    =      -1.9042329879029187 [Eh]
	 SCS Total Energy          =    -439.5611828775811318 [Eh]
	-----------------------------------------------------------

  Dipole Moment: [D]
     X:     0.4779      Y:    -3.1664      Z:     0.0647     Total:     3.2029

*** Psi4 exiting successfully. Buy a developer a beer!
