                               Psi4 1.3.2 release

  ==> Input File <==

--------------------------------------------------------------------------
#psi4
#
memory 32 gb

molecule  {
0 1
  O        2.1311420     1.3954640    -0.0176610
  N        1.0627510    -0.6484660    -0.0244750
  C       -0.3229521    -0.3830399    -0.0124956
  C       -0.7462090     1.0430900    -0.0008090
  C       -1.2356020    -1.3337700    -0.0095660
  C       -2.1187510     1.2983570     0.0121880
  C       -2.6007710    -1.0606970     0.0034910
  C       -3.0516150     0.2608760     0.0143720
  C        2.1739960     0.1653740    -0.0182620
  C        3.4844190    -0.5970920     0.0337670
  H       -0.0265810     1.8504660    -0.0031070
  H       -0.8901320    -2.3671220    -0.0178770
  H        1.2400700    -1.6462960    -0.0274520
  H       -2.4575380     2.3317050     0.0202570
  H       -3.3108250    -1.8841690     0.0048350
  H       -4.1164700     0.4777890     0.0243200
  H        3.7138070    -0.8675720     1.0691040
  H        4.2730810     0.0577110    -0.3362890
  H        3.4596990    -1.5115770    -0.5654180
units angstrom
no_reorient  #important for SAPT in psi4, default
symmetry c1  #important for SAPT in psi4, default
}

set PROPERTIES_ORIGIN ["COM"]
properties('MP2/aug-cc-pvtz', properties = ['dipole'])
--------------------------------------------------------------------------

    Molecular point group: c1
  Charge       = 0
  Multiplicity = 1
  Basis Set: AUG-CC-PVTZ
    Blend: AUG-CC-PVTZ
  Basis Set: (AUG-CC-PVTZ AUX)
    Blend: AUG-CC-PVTZ-JKFIT

    Orbital Energies [Eh]
    ---------------------

    Doubly Occupied:

       1A    -20.529361     2A    -15.608828     3A    -11.368661
       4A    -11.289945     5A    -11.247485     6A    -11.242580
       7A    -11.236845     8A    -11.235621     9A    -11.231643
      10A    -11.230234    11A     -1.384102    12A     -1.259702
      13A     -1.145385    14A     -1.041085    15A     -1.016772
      16A     -0.984374    17A     -0.859773    18A     -0.829227
      19A     -0.785088    20A     -0.721035    21A     -0.682757
      22A     -0.677421    23A     -0.628843    24A     -0.620543
      25A     -0.613014    26A     -0.585869    27A     -0.583228
      28A     -0.567093    29A     -0.558201    30A     -0.521567
      31A     -0.503326    32A     -0.489283    33A     -0.442503
      34A     -0.430794    35A     -0.343545    36A     -0.307991

  @DF-RHF Final Energy:  -437.65948945648262

   => Energetics <=

    Nuclear Repulsion Energy =            484.0658486272539562
    One-Electron Energy =               -1553.8432275736915926
    Two-Electron Energy =                 632.1178894899551324
    Total Energy =                       -437.6594894564825609
  Basis Set: (AUG-CC-PVTZ AUX)
    Blend: AUG-CC-PVTZ-RI
    Molecular point group: c1

    Geometry (in Angstrom), charge = 0, multiplicity = 1:

       Center              X                  Y                   Z               Mass
    ------------   -----------------  -----------------  -----------------  -----------------
         O            2.146991330352     1.377916799435    -0.016303938835    15.994914619570
         N            1.078600330352    -0.666013200565    -0.023117938835    14.003074004430
         C           -0.307102769648    -0.400587100565    -0.011138538835    12.000000000000
         C           -0.730359669648     1.025542799435     0.000548061165    12.000000000000
         C           -1.219752669648    -1.351317200565    -0.008208938835    12.000000000000
         C           -2.102901669648     1.280809799435     0.013545061165    12.000000000000
         C           -2.584921669648    -1.078244200565     0.004848061165    12.000000000000
         C           -3.035765669648     0.243328799435     0.015729061165    12.000000000000
         C            2.189845330352     0.147826799435    -0.016904938835    12.000000000000
         C            3.500268330352    -0.614639200565     0.035124061165    12.000000000000
         H           -0.010731669648     1.832918799435    -0.001749938835     1.007825032230
         H           -0.874282669648    -2.384669200565    -0.016519938835     1.007825032230
         H            1.255919330352    -1.663843200565    -0.026094938835     1.007825032230
         H           -2.441688669648     2.314157799435     0.021614061165     1.007825032230
         H           -3.294975669648    -1.901716200565     0.006192061165     1.007825032230
         H           -4.100620669648     0.460241799435     0.025677061165     1.007825032230
         H            3.729656330352    -0.885119200565     1.070461061165     1.007825032230
         H            4.288930330352     0.040163799435    -0.334931938835     1.007825032230
         H            3.475548330352    -1.529124200565    -0.564060938835     1.007825032230

  Basis Set: AUG-CC-PVTZ
    Blend: AUG-CC-PVTZ
  Basis Set: (AUG-CC-PVTZ AUX)
    Blend: AUG-CC-PVTZ-JKFIT
	 Reference Energy          =    -437.6594894564826177 [Eh]
	 Singles Energy            =      -0.0000000000000000 [Eh]
	 Same-Spin Energy          =      -0.4670977502056944 [Eh]
	 Opposite-Spin Energy      =      -1.4569883967894794 [Eh]
	 Correlation Energy        =      -1.9240861469951738 [Eh]
	 Total Energy              =    -439.5835756034778115 [Eh]

	 ================> DF-SCS-MP2 Energies <==================
	-----------------------------------------------------------
	 SCS Same-Spin Scale       =       0.3333333333333333 [-]
	 SCS Opposite-Spin Scale   =       1.2000000000000000 [-]
	 SCS Same-Spin Energy      =      -0.1556992500685648 [Eh]
	 SCS Opposite-Spin Energy  =      -1.7483860761473753 [Eh]
	 SCS Correlation Energy    =      -1.9040853262159401 [Eh]
	 SCS Total Energy          =    -439.5635747826985380 [Eh]
	-----------------------------------------------------------

  Dipole Moment: [D]
     X:     0.0650      Y:    -3.4287      Z:     0.0611     Total:     3.4299

*** Psi4 exiting successfully. Buy a developer a beer!
