                               Psi4 1.3.2 release

  ==> Input File <==

--------------------------------------------------------------------------
#psi4
#
memory 32 gb

molecule  {
0 1
  O        2.1311420     1.3954640    -0.0176610
  N        1.0174937    -0.7890464    -0.0249239
  C       -0.3010510    -0.2870330    -0.0111410
  C       -0.7462090     1.0430900    -0.0008090
  C       -1.2356020    -1.3337700    -0.0095660
  C       -2.1187510     1.2983570     0.0121880
  C       -2.6007710    -1.0606970     0.0034910
  C       -3.0516150     0.2608760     0.0143720
  C        2.1739960     0.1653740    -0.0182620
  C        3.4844190    -0.5970920     0.0337670
  H       -0.0265810     1.8504660    -0.0031070
  H       -0.8901320    -2.3671220    -0.0178770
  H        1.2400700    -1.6462960    -0.0274520
  H       -2.4575380     2.3317050     0.0202570
  H       -3.3108250    -1.8841690     0.0048350
  H       -4.1164700     0.4777890     0.0243200
  H        3.7138070    -0.8675720     1.0691040
  H        4.2730810     0.0577110    -0.3362890
  H        3.4596990    -1.5115770    -0.5654180
units angstrom
no_reorient  #important for SAPT in psi4, default
symmetry c1  #important for SAPT in psi4, default
}

set PROPERTIES_ORIGIN ["COM"]
properties('MP2/aug-cc-pvtz', properties = ['dipole'])
--------------------------------------------------------------------------

    Molecular point group: c1
  Charge       = 0
  Multiplicity = 1
  Basis Set: AUG-CC-PVTZ
    Blend: AUG-CC-PVTZ
  Basis Set: (AUG-CC-PVTZ AUX)
    Blend: AUG-CC-PVTZ-JKFIT

    Orbital Energies [Eh]
    ---------------------

    Doubly Occupied:

       1A    -20.552304     2A    -15.596079     3A    -11.383630
       4A    -11.288889     5A    -11.250060     6A    -11.238017
       7A    -11.236856     8A    -11.231439     9A    -11.226990
      10A    -11.226212    11A     -1.390820    12A     -1.258985
      13A     -1.138634    14A     -1.033037    15A     -1.013992
      16A     -0.987520    17A     -0.845658    18A     -0.834537
      19A     -0.787551    20A     -0.734542    21A     -0.681951
      22A     -0.671807    23A     -0.624114    24A     -0.620633
      25A     -0.613065    26A     -0.601949    27A     -0.583847
      28A     -0.561728    29A     -0.552768    30A     -0.516714
      31A     -0.504349    32A     -0.497972    33A     -0.447495
      34A     -0.431667    35A     -0.337263    36A     -0.304049

  @DF-RHF Final Energy:  -437.63747603765484

   => Energetics <=

    Nuclear Repulsion Energy =            482.6394373855706590
    One-Electron Energy =               -1550.9395810739422359
    Two-Electron Energy =                 630.6626676507165712
    Total Energy =                       -437.6374760376548920
  Basis Set: (AUG-CC-PVTZ AUX)
    Blend: AUG-CC-PVTZ-RI
    Molecular point group: c1

    Geometry (in Angstrom), charge = 0, multiplicity = 1:

       Center              X                  Y                   Z               Mass
    ------------   -----------------  -----------------  -----------------  -----------------
         O            2.149737554361     1.383961698617    -0.016377747505    15.994914619570
         N            1.036089254361    -0.800548701383    -0.023640647505    14.003074004430
         C           -0.282455445639    -0.298535301383    -0.009857747505    12.000000000000
         C           -0.727613445639     1.031587698617     0.000474252495    12.000000000000
         C           -1.217006445639    -1.345272301383    -0.008282747505    12.000000000000
         C           -2.100155445639     1.286854698617     0.013471252495    12.000000000000
         C           -2.582175445639    -1.072199301383     0.004774252495    12.000000000000
         C           -3.033019445639     0.249373698617     0.015655252495    12.000000000000
         C            2.192591554361     0.153871698617    -0.016978747505    12.000000000000
         C            3.503014554361    -0.608594301383     0.035050252495    12.000000000000
         H           -0.007985445639     1.838963698617    -0.001823747505     1.007825032230
         H           -0.871536445639    -2.378624301383    -0.016593747505     1.007825032230
         H            1.258665554361    -1.657798301383    -0.026168747505     1.007825032230
         H           -2.438942445639     2.320202698617     0.021540252495     1.007825032230
         H           -3.292229445639    -1.895671301383     0.006118252495     1.007825032230
         H           -4.097874445639     0.466286698617     0.025603252495     1.007825032230
         H            3.732402554361    -0.879074301383     1.070387252495     1.007825032230
         H            4.291676554361     0.046208698617    -0.335005747505     1.007825032230
         H            3.478294554361    -1.523079301383    -0.564134747505     1.007825032230

  Basis Set: AUG-CC-PVTZ
    Blend: AUG-CC-PVTZ
  Basis Set: (AUG-CC-PVTZ AUX)
    Blend: AUG-CC-PVTZ-JKFIT
	 Reference Energy          =    -437.6374760376548352 [Eh]
	 Singles Energy            =      -0.0000000000000000 [Eh]
	 Same-Spin Energy          =      -0.4673527837816733 [Eh]
	 Opposite-Spin Energy      =      -1.4580103002909881 [Eh]
	 Correlation Energy        =      -1.9253630840726614 [Eh]
	 Total Energy              =    -439.5628391217275066 [Eh]

	 ================> DF-SCS-MP2 Energies <==================
	-----------------------------------------------------------
	 SCS Same-Spin Scale       =       0.3333333333333333 [-]
	 SCS Opposite-Spin Scale   =       1.2000000000000000 [-]
	 SCS Same-Spin Energy      =      -0.1557842612605577 [Eh]
	 SCS Opposite-Spin Energy  =      -1.7496123603491858 [Eh]
	 SCS Correlation Energy    =      -1.9053966216097435 [Eh]
	 SCS Total Energy          =    -439.5428726592645603 [Eh]
	-----------------------------------------------------------

  Dipole Moment: [D]
     X:     0.6864      Y:    -3.0257      Z:     0.0671     Total:     3.1033

*** Psi4 exiting successfully. Buy a developer a beer!
