                               Psi4 1.4a3.dev225

  ==> Input File <==

--------------------------------------------------------------------------
#psi4
#
memory 32 gb

molecule  {
0 1
  O        2.1311420     1.3954640    -0.0176610
  N        1.0627510    -0.6484660    -0.0244750
  C       -0.2817193    -0.2921563    -0.0113300
  C       -0.7462090     1.0430900    -0.0008090
  C       -1.2356020    -1.3337700    -0.0095660
  C       -2.1187510     1.2983570     0.0121880
  C       -2.6007710    -1.0606970     0.0034910
  C       -3.0516150     0.2608760     0.0143720
  C        2.1739960     0.1653740    -0.0182620
  C        3.4844190    -0.5970920     0.0337670
  H       -0.0265810     1.8504660    -0.0031070
  H       -0.8901320    -2.3671220    -0.0178770
  H        1.2400700    -1.6462960    -0.0274520
  H       -2.4575380     2.3317050     0.0202570
  H       -3.3108250    -1.8841690     0.0048350
  H       -4.1164700     0.4777890     0.0243200
  H        3.7138070    -0.8675720     1.0691040
  H        4.2730810     0.0577110    -0.3362890
  H        3.4596990    -1.5115770    -0.5654180
units angstrom
no_reorient  #important for SAPT in psi4, default
symmetry c1  #important for SAPT in psi4, default
}

set PROPERTIES_ORIGIN ["COM"]
properties('MP2/aug-cc-pvtz', properties = ['dipole'])
--------------------------------------------------------------------------

    Molecular point group: c1
  Charge       = 0
  Multiplicity = 1
  Basis Set: AUG-CC-PVTZ
    Blend: AUG-CC-PVTZ
  Basis Set: (AUG-CC-PVTZ AUX)
    Blend: AUG-CC-PVTZ-JKFIT

    Orbital Energies [Eh]
    ---------------------

    Doubly Occupied:

       1A    -20.531095     2A    -15.611367     3A    -11.367814
       4A    -11.292239     5A    -11.247740     6A    -11.242020
       7A    -11.239340     8A    -11.237625     9A    -11.229713
      10A    -11.227745    11A     -1.386356    12A     -1.264740
      13A     -1.140976    14A     -1.037349    15A     -1.015591
      16A     -0.984776    17A     -0.858778    18A     -0.835475
      19A     -0.779017    20A     -0.727755    21A     -0.682550
      22A     -0.676537    23A     -0.630578    24A     -0.616056
      25A     -0.611619    26A     -0.590287    27A     -0.583755
      28A     -0.568270    29A     -0.559248    30A     -0.519100
      31A     -0.500696    32A     -0.496388    33A     -0.444373
      34A     -0.429680    35A     -0.339199    36A     -0.306723

  @DF-RHF Final Energy:  -437.67110791152481

   => Energetics <=

    Nuclear Repulsion Energy =            484.2595265025764775
    One-Electron Energy =               -1554.2361274340601085
    Two-Electron Energy =                 632.3054930199587034
    Total Energy =                       -437.6711079115248140
  Basis Set: (AUG-CC-PVTZ AUX)
    Blend: AUG-CC-PVTZ-RI
    Molecular point group: c1

    Geometry (in Angstrom), charge = 0, multiplicity = 1:

       Center              X                  Y                   Z               Mass
    ------------   -----------------  -----------------  -----------------  -----------------
         O            2.143328049014     1.369842349099    -0.016407495244    15.994914619570
         N            1.074937049014    -0.674087650901    -0.023221495244    14.003074004430
         C           -0.269533250986    -0.317777950901    -0.010076495244    12.000000000000
         C           -0.734022950986     1.017468349099     0.000444504756    12.000000000000
         C           -1.223415950986    -1.359391650901    -0.008312495244    12.000000000000
         C           -2.106564950986     1.272735349099     0.013441504756    12.000000000000
         C           -2.588584950986    -1.086318650901     0.004744504756    12.000000000000
         C           -3.039428950986     0.235254349099     0.015625504756    12.000000000000
         C            2.186182049014     0.139752349099    -0.017008495244    12.000000000000
         C            3.496605049014    -0.622713650901     0.035020504756    12.000000000000
         H           -0.014394950986     1.824844349099    -0.001853495244     1.007825032230
         H           -0.877945950986    -2.392743650901    -0.016623495244     1.007825032230
         H            1.252256049014    -1.671917650901    -0.026198495244     1.007825032230
         H           -2.445351950986     2.306083349099     0.021510504756     1.007825032230
         H           -3.298638950986    -1.909790650901     0.006088504756     1.007825032230
         H           -4.104283950986     0.452167349099     0.025573504756     1.007825032230
         H            3.725993049014    -0.893193650901     1.070357504756     1.007825032230
         H            4.285267049014     0.032089349099    -0.335035495244     1.007825032230
         H            3.471885049014    -1.537198650901    -0.564164495244     1.007825032230

  Basis Set: AUG-CC-PVTZ
    Blend: AUG-CC-PVTZ
  Basis Set: (AUG-CC-PVTZ AUX)
    Blend: AUG-CC-PVTZ-JKFIT
	 Reference Energy          =    -437.6711079115248140 [Eh]
	 Singles Energy            =      -0.0000000000000000 [Eh]
	 Same-Spin Energy          =      -0.4675495297837086 [Eh]
	 Opposite-Spin Energy      =      -1.4567896877525170 [Eh]
	 Correlation Energy        =      -1.9243392175362257 [Eh]
	 Total Energy              =    -439.5954471290610286 [Eh]

	 ================> DF-SCS-MP2 Energies <==================
	-----------------------------------------------------------
	 SCS Same-Spin Scale       =       0.3333333333333333 [-]
	 SCS Opposite-Spin Scale   =       1.2000000000000000 [-]
	 SCS Same-Spin Energy      =      -0.1558498432612362 [Eh]
	 SCS Opposite-Spin Energy  =      -1.7481476253030204 [Eh]
	 SCS Correlation Energy    =      -1.9039974685642564 [Eh]
	 SCS Total Energy          =    -439.5751053800890986 [Eh]
	-----------------------------------------------------------

  Dipole Moment: [D]
     X:     0.1857      Y:    -3.4410      Z:     0.0601     Total:     3.4465

*** Psi4 exiting successfully. Buy a developer a beer!
