                               Psi4 1.3.2 release

  ==> Input File <==

--------------------------------------------------------------------------
#psi4
#
memory 32 gb

molecule  {
0 1
  O        2.1311420     1.3954640    -0.0176610
  N        1.0627510    -0.6484660    -0.0244750
  C       -0.2557998    -0.1464502    -0.0113839
  C       -0.7462090     1.0430900    -0.0008090
  C       -1.2356020    -1.3337700    -0.0095660
  C       -2.1187510     1.2983570     0.0121880
  C       -2.6007710    -1.0606970     0.0034910
  C       -3.0516150     0.2608760     0.0143720
  C        2.1739960     0.1653740    -0.0182620
  C        3.4844190    -0.5970920     0.0337670
  H       -0.0265810     1.8504660    -0.0031070
  H       -0.8901320    -2.3671220    -0.0178770
  H        1.2400700    -1.6462960    -0.0274520
  H       -2.4575380     2.3317050     0.0202570
  H       -3.3108250    -1.8841690     0.0048350
  H       -4.1164700     0.4777890     0.0243200
  H        3.7138070    -0.8675720     1.0691040
  H        4.2730810     0.0577110    -0.3362890
  H        3.4596990    -1.5115770    -0.5654180
units angstrom
no_reorient  #important for SAPT in psi4, default
symmetry c1  #important for SAPT in psi4, default
}

set PROPERTIES_ORIGIN ["COM"]
properties('MP2/aug-cc-pvtz', properties = ['dipole'])
--------------------------------------------------------------------------

    Molecular point group: c1
  Charge       = 0
  Multiplicity = 1
  Basis Set: AUG-CC-PVTZ
    Blend: AUG-CC-PVTZ
  Basis Set: (AUG-CC-PVTZ AUX)
    Blend: AUG-CC-PVTZ-JKFIT

    Orbital Energies [Eh]
    ---------------------

    Doubly Occupied:

       1A    -20.529667     2A    -15.610903     3A    -11.363430
       4A    -11.289367     5A    -11.249600     6A    -11.245561
       7A    -11.241457     8A    -11.240192     9A    -11.231014
      10A    -11.212320    11A     -1.385193    12A     -1.258260
      13A     -1.144118    14A     -1.041287    15A     -1.017147
      16A     -0.982489    17A     -0.851971    18A     -0.842285
      19A     -0.770696    20A     -0.733547    21A     -0.681082
      22A     -0.679263    23A     -0.628875    24A     -0.621545
      25A     -0.601253    26A     -0.596118    27A     -0.580362
      28A     -0.564097    29A     -0.557971    30A     -0.521204
      31A     -0.500560    32A     -0.489559    33A     -0.442365
      34A     -0.422791    35A     -0.348843    36A     -0.306420

  @DF-RHF Final Energy:  -437.64502446030417

   => Energetics <=

    Nuclear Repulsion Energy =            484.6960984858433221
    One-Electron Energy =               -1555.1166254596794261
    Two-Electron Energy =                 632.7755025135319329
    Total Energy =                       -437.6450244603041710
  Basis Set: (AUG-CC-PVTZ AUX)
    Blend: AUG-CC-PVTZ-RI
    Molecular point group: c1

    Geometry (in Angstrom), charge = 0, multiplicity = 1:

       Center              X                  Y                   Z               Mass
    ------------   -----------------  -----------------  -----------------  -----------------
         O            2.141025260442     1.356897255948    -0.016402706560    15.994914619570
         N            1.072634260442    -0.687032744052    -0.023216706560    14.003074004430
         C           -0.245916539558    -0.185016944052    -0.010125606560    12.000000000000
         C           -0.736325739558     1.004523255948     0.000449293440    12.000000000000
         C           -1.225718739558    -1.372336744052    -0.008307706560    12.000000000000
         C           -2.108867739558     1.259790255948     0.013446293440    12.000000000000
         C           -2.590887739558    -1.099263744052     0.004749293440    12.000000000000
         C           -3.041731739558     0.222309255948     0.015630293440    12.000000000000
         C            2.183879260442     0.126807255948    -0.017003706560    12.000000000000
         C            3.494302260442    -0.635658744052     0.035025293440    12.000000000000
         H           -0.016697739558     1.811899255948    -0.001848706560     1.007825032230
         H           -0.880248739558    -2.405688744052    -0.016618706560     1.007825032230
         H            1.249953260442    -1.684862744052    -0.026193706560     1.007825032230
         H           -2.447654739558     2.293138255948     0.021515293440     1.007825032230
         H           -3.300941739558    -1.922735744052     0.006093293440     1.007825032230
         H           -4.106586739558     0.439222255948     0.025578293440     1.007825032230
         H            3.723690260442    -0.906138744052     1.070362293440     1.007825032230
         H            4.282964260442     0.019144255948    -0.335030706560     1.007825032230
         H            3.469582260442    -1.550143744052    -0.564159706560     1.007825032230

  Basis Set: AUG-CC-PVTZ
    Blend: AUG-CC-PVTZ
  Basis Set: (AUG-CC-PVTZ AUX)
    Blend: AUG-CC-PVTZ-JKFIT
	 Reference Energy          =    -437.6450244603041710 [Eh]
	 Singles Energy            =      -0.0000000000000000 [Eh]
	 Same-Spin Energy          =      -0.4667474054753059 [Eh]
	 Opposite-Spin Energy      =      -1.4576975989578529 [Eh]
	 Correlation Energy        =      -1.9244450044331587 [Eh]
	 Total Energy              =    -439.5694694647373240 [Eh]

	 ================> DF-SCS-MP2 Energies <==================
	-----------------------------------------------------------
	 SCS Same-Spin Scale       =       0.3333333333333333 [-]
	 SCS Opposite-Spin Scale   =       1.2000000000000000 [-]
	 SCS Same-Spin Energy      =      -0.1555824684917686 [Eh]
	 SCS Opposite-Spin Energy  =      -1.7492371187494233 [Eh]
	 SCS Correlation Energy    =      -1.9048195872411919 [Eh]
	 SCS Total Energy          =    -439.5498440475453776 [Eh]
	-----------------------------------------------------------

  Dipole Moment: [D]
     X:     0.0740      Y:    -3.4304      Z:     0.0602     Total:     3.4317

*** Psi4 exiting successfully. Buy a developer a beer!
