                               Psi4 1.4a3.dev225

  ==> Input File <==

--------------------------------------------------------------------------
#psi4
#
memory 32 gb

molecule  {
0 1
  O        2.1311420     1.3954640    -0.0176610
  N        1.0627510    -0.6484660    -0.0244750
  C       -0.3203827    -0.2819097    -0.0109520
  C       -0.7462090     1.0430900    -0.0008090
  C       -1.2356020    -1.3337700    -0.0095660
  C       -2.1187510     1.2983570     0.0121880
  C       -2.6007710    -1.0606970     0.0034910
  C       -3.0516150     0.2608760     0.0143720
  C        2.1739960     0.1653740    -0.0182620
  C        3.4844190    -0.5970920     0.0337670
  H       -0.0265810     1.8504660    -0.0031070
  H       -0.8901320    -2.3671220    -0.0178770
  H        1.2400700    -1.6462960    -0.0274520
  H       -2.4575380     2.3317050     0.0202570
  H       -3.3108250    -1.8841690     0.0048350
  H       -4.1164700     0.4777890     0.0243200
  H        3.7138070    -0.8675720     1.0691040
  H        4.2730810     0.0577110    -0.3362890
  H        3.4596990    -1.5115770    -0.5654180
units angstrom
no_reorient  #important for SAPT in psi4, default
symmetry c1  #important for SAPT in psi4, default
}

set PROPERTIES_ORIGIN ["COM"]
properties('MP2/aug-cc-pvtz', properties = ['dipole'])
--------------------------------------------------------------------------

    Molecular point group: c1
  Charge       = 0
  Multiplicity = 1
  Basis Set: AUG-CC-PVTZ
    Blend: AUG-CC-PVTZ
  Basis Set: (AUG-CC-PVTZ AUX)
    Blend: AUG-CC-PVTZ-JKFIT

    Orbital Energies [Eh]
    ---------------------

    Doubly Occupied:

       1A    -20.527567     2A    -15.607472     3A    -11.364764
       4A    -11.290619     5A    -11.245558     6A    -11.243223
       7A    -11.239541     8A    -11.238915     9A    -11.231667
      10A    -11.227260    11A     -1.382295    12A     -1.253518
      13A     -1.145731    14A     -1.035234    15A     -1.019483
      16A     -0.986132    17A     -0.854936    18A     -0.835030
      19A     -0.778406    20A     -0.723704    21A     -0.680217
      22A     -0.674362    23A     -0.626673    24A     -0.618619
      25A     -0.614858    26A     -0.590874    27A     -0.583790
      28A     -0.565670    29A     -0.555460    30A     -0.517722
      31A     -0.502401    32A     -0.501522    33A     -0.440195
      34A     -0.427134    35A     -0.341045    36A     -0.312756

  @DF-RHF Final Energy:  -437.67179278656192

   => Energetics <=

    Nuclear Repulsion Energy =            484.2688162750833385
    One-Electron Energy =               -1554.3125136103560635
    Two-Electron Energy =                 632.3719045487108588
    Total Energy =                       -437.6717927865619231
  Basis Set: (AUG-CC-PVTZ AUX)
    Blend: AUG-CC-PVTZ-RI
    Molecular point group: c1

    Geometry (in Angstrom), charge = 0, multiplicity = 1:

       Center              X                  Y                   Z               Mass
    ------------   -----------------  -----------------  -----------------  -----------------
         O            2.146763054924     1.368932001547    -0.016441078225    15.994914619570
         N            1.078372054924    -0.674997998453    -0.023255078225    14.003074004430
         C           -0.304761645076    -0.308441698453    -0.009732078225    12.000000000000
         C           -0.730587945076     1.016558001547     0.000410921775    12.000000000000
         C           -1.219980945076    -1.360301998453    -0.008346078225    12.000000000000
         C           -2.103129945076     1.271825001547     0.013407921775    12.000000000000
         C           -2.585149945076    -1.087228998453     0.004710921775    12.000000000000
         C           -3.035993945076     0.234344001547     0.015591921775    12.000000000000
         C            2.189617054924     0.138842001547    -0.017042078225    12.000000000000
         C            3.500040054924    -0.623623998453     0.034986921775    12.000000000000
         H           -0.010959945076     1.823934001547    -0.001887078225     1.007825032230
         H           -0.874510945076    -2.393653998453    -0.016657078225     1.007825032230
         H            1.255691054924    -1.672827998453    -0.026232078225     1.007825032230
         H           -2.441916945076     2.305173001547     0.021476921775     1.007825032230
         H           -3.295203945076    -1.910700998453     0.006054921775     1.007825032230
         H           -4.100848945076     0.451257001547     0.025539921775     1.007825032230
         H            3.729428054924    -0.894103998453     1.070323921775     1.007825032230
         H            4.288702054924     0.031179001547    -0.335069078225     1.007825032230
         H            3.475320054924    -1.538108998453    -0.564198078225     1.007825032230

  Basis Set: AUG-CC-PVTZ
    Blend: AUG-CC-PVTZ
  Basis Set: (AUG-CC-PVTZ AUX)
    Blend: AUG-CC-PVTZ-JKFIT
	 Reference Energy          =    -437.6717927865619231 [Eh]
	 Singles Energy            =      -0.0000000000000000 [Eh]
	 Same-Spin Energy          =      -0.4671944858156131 [Eh]
	 Opposite-Spin Energy      =      -1.4563075888635399 [Eh]
	 Correlation Energy        =      -1.9235020746791531 [Eh]
	 Total Energy              =    -439.5952948612410864 [Eh]

	 ================> DF-SCS-MP2 Energies <==================
	-----------------------------------------------------------
	 SCS Same-Spin Scale       =       0.3333333333333333 [-]
	 SCS Opposite-Spin Scale   =       1.2000000000000000 [-]
	 SCS Same-Spin Energy      =      -0.1557314952718710 [Eh]
	 SCS Opposite-Spin Energy  =      -1.7475691066362480 [Eh]
	 SCS Correlation Energy    =      -1.9033006019081191 [Eh]
	 SCS Total Energy          =    -439.5750933884700657 [Eh]
	-----------------------------------------------------------

  Dipole Moment: [D]
     X:    -0.0703      Y:    -3.4270      Z:     0.0615     Total:     3.4283

*** Psi4 exiting successfully. Buy a developer a beer!
