                               Psi4 1.3.2 release

  ==> Input File <==

--------------------------------------------------------------------------
#psi4
#
memory 32 gb

molecule  {
0 1
  O        2.1311420     1.3954640    -0.0176610
  N        1.0627510    -0.6484660    -0.0244750
  C       -0.3071539    -0.3108878    -0.0114738
  C       -0.7462090     1.0430900    -0.0008090
  C       -1.2356020    -1.3337700    -0.0095660
  C       -2.1187510     1.2983570     0.0121880
  C       -2.6007710    -1.0606970     0.0034910
  C       -3.0516150     0.2608760     0.0143720
  C        2.1739960     0.1653740    -0.0182620
  C        3.4844190    -0.5970920     0.0337670
  H       -0.0265810     1.8504660    -0.0031070
  H       -0.8901320    -2.3671220    -0.0178770
  H        1.2400700    -1.6462960    -0.0274520
  H       -2.4575380     2.3317050     0.0202570
  H       -3.3108250    -1.8841690     0.0048350
  H       -4.1164700     0.4777890     0.0243200
  H        3.7138070    -0.8675720     1.0691040
  H        4.2730810     0.0577110    -0.3362890
  H        3.4596990    -1.5115770    -0.5654180
units angstrom
no_reorient  #important for SAPT in psi4, default
symmetry c1  #important for SAPT in psi4, default
}

set PROPERTIES_ORIGIN ["COM"]
properties('MP2/aug-cc-pvtz', properties = ['dipole'])
--------------------------------------------------------------------------

    Molecular point group: c1
  Charge       = 0
  Multiplicity = 1
  Basis Set: AUG-CC-PVTZ
    Blend: AUG-CC-PVTZ
  Basis Set: (AUG-CC-PVTZ AUX)
    Blend: AUG-CC-PVTZ-JKFIT

    Orbital Energies [Eh]
    ---------------------

    Doubly Occupied:

       1A    -20.529301     2A    -15.609260     3A    -11.366847
       4A    -11.291252     5A    -11.246847     6A    -11.242608
       7A    -11.237825     8A    -11.237307     9A    -11.230873
      10A    -11.229832    11A     -1.384209    12A     -1.259126
      13A     -1.143659    14A     -1.036884    15A     -1.017302
      16A     -0.985503    17A     -0.857474    18A     -0.833729
      19A     -0.780386    20A     -0.724437    21A     -0.681618
      22A     -0.675681    23A     -0.628610    24A     -0.616140
      25A     -0.615352    26A     -0.588951    27A     -0.584391
      28A     -0.567147    29A     -0.557384    30A     -0.519050
      31A     -0.501881    32A     -0.497678    33A     -0.442348
      34A     -0.429089    35A     -0.340234    36A     -0.309662

  @DF-RHF Final Energy:  -437.67119003699776

   => Energetics <=

    Nuclear Repulsion Energy =            484.2039180042423823
    One-Electron Energy =               -1554.1504605401712524
    Two-Electron Energy =                 632.2753524989311700
    Total Energy =                       -437.6711900369978139
  Basis Set: (AUG-CC-PVTZ AUX)
    Blend: AUG-CC-PVTZ-RI
    Molecular point group: c1

    Geometry (in Angstrom), charge = 0, multiplicity = 1:

       Center              X                  Y                   Z               Mass
    ------------   -----------------  -----------------  -----------------  -----------------
         O            2.145587757196     1.371506527966    -0.016394719496    15.994914619570
         N            1.077196757196    -0.672423472034    -0.023208719496    14.003074004430
         C           -0.292708142804    -0.334845272034    -0.010207519496    12.000000000000
         C           -0.731763242804     1.019132527966     0.000457280504    12.000000000000
         C           -1.221156242804    -1.357727472034    -0.008299719496    12.000000000000
         C           -2.104305242804     1.274399527966     0.013454280504    12.000000000000
         C           -2.586325242804    -1.084654472034     0.004757280504    12.000000000000
         C           -3.037169242804     0.236918527966     0.015638280504    12.000000000000
         C            2.188441757196     0.141416527966    -0.016995719496    12.000000000000
         C            3.498864757196    -0.621049472034     0.035033280504    12.000000000000
         H           -0.012135242804     1.826508527966    -0.001840719496     1.007825032230
         H           -0.875686242804    -2.391079472034    -0.016610719496     1.007825032230
         H            1.254515757196    -1.670253472034    -0.026185719496     1.007825032230
         H           -2.443092242804     2.307747527966     0.021523280504     1.007825032230
         H           -3.296379242804    -1.908126472034     0.006101280504     1.007825032230
         H           -4.102024242804     0.453831527966     0.025586280504     1.007825032230
         H            3.728252757196    -0.891529472034     1.070370280504     1.007825032230
         H            4.287526757196     0.033753527966    -0.335022719496     1.007825032230
         H            3.474144757196    -1.535534472034    -0.564151719496     1.007825032230

  Basis Set: AUG-CC-PVTZ
    Blend: AUG-CC-PVTZ
  Basis Set: (AUG-CC-PVTZ AUX)
    Blend: AUG-CC-PVTZ-JKFIT
	 Reference Energy          =    -437.6711900369977570 [Eh]
	 Singles Energy            =      -0.0000000000000000 [Eh]
	 Same-Spin Energy          =      -0.4673448497897613 [Eh]
	 Opposite-Spin Energy      =      -1.4565378898890251 [Eh]
	 Correlation Energy        =      -1.9238827396787863 [Eh]
	 Total Energy              =    -439.5950727766765453 [Eh]

	 ================> DF-SCS-MP2 Energies <==================
	-----------------------------------------------------------
	 SCS Same-Spin Scale       =       0.3333333333333333 [-]
	 SCS Opposite-Spin Scale   =       1.2000000000000000 [-]
	 SCS Same-Spin Energy      =      -0.1557816165965871 [Eh]
	 SCS Opposite-Spin Energy  =      -1.7478454678668300 [Eh]
	 SCS Correlation Energy    =      -1.9036270844634171 [Eh]
	 SCS Total Energy          =    -439.5748171214611943 [Eh]
	-----------------------------------------------------------

  Dipole Moment: [D]
     X:     0.0579      Y:    -3.4326      Z:     0.0609     Total:     3.4336

*** Psi4 exiting successfully. Buy a developer a beer!
