                               Psi4 1.3.2 release

  ==> Input File <==

--------------------------------------------------------------------------
#psi4
#
memory 32 gb

molecule  {
0 1
  O        2.1311420     1.3954640    -0.0176610
  N        1.0627510    -0.6484660    -0.0244750
  C       -0.3977097    -0.2614166    -0.0101960
  C       -0.7462090     1.0430900    -0.0008090
  C       -1.2356020    -1.3337700    -0.0095660
  C       -2.1187510     1.2983570     0.0121880
  C       -2.6007710    -1.0606970     0.0034910
  C       -3.0516150     0.2608760     0.0143720
  C        2.1739960     0.1653740    -0.0182620
  C        3.4844190    -0.5970920     0.0337670
  H       -0.0265810     1.8504660    -0.0031070
  H       -0.8901320    -2.3671220    -0.0178770
  H        1.2400700    -1.6462960    -0.0274520
  H       -2.4575380     2.3317050     0.0202570
  H       -3.3108250    -1.8841690     0.0048350
  H       -4.1164700     0.4777890     0.0243200
  H        3.7138070    -0.8675720     1.0691040
  H        4.2730810     0.0577110    -0.3362890
  H        3.4596990    -1.5115770    -0.5654180
units angstrom
no_reorient  #important for SAPT in psi4, default
symmetry c1  #important for SAPT in psi4, default
}

set PROPERTIES_ORIGIN ["COM"]
properties('MP2/aug-cc-pvtz', properties = ['dipole'])
--------------------------------------------------------------------------

    Molecular point group: c1
  Charge       = 0
  Multiplicity = 1
  Basis Set: AUG-CC-PVTZ
    Blend: AUG-CC-PVTZ
  Basis Set: (AUG-CC-PVTZ AUX)
    Blend: AUG-CC-PVTZ-JKFIT

    Orbital Energies [Eh]
    ---------------------

    Doubly Occupied:

       1A    -20.520999     2A    -15.599104     3A    -11.358737
       4A    -11.288736     5A    -11.245964     6A    -11.241835
       7A    -11.241271     8A    -11.240125     9A    -11.235020
      10A    -11.226453    11A     -1.375055    12A     -1.235185
      13A     -1.154996    14A     -1.032781    15A     -1.028265
      16A     -0.987004    17A     -0.852845    18A     -0.832559
      19A     -0.776268    20A     -0.718314    21A     -0.676773
      22A     -0.666559    23A     -0.631012    24A     -0.619736
      25A     -0.616307    26A     -0.594319    27A     -0.579303
      28A     -0.560922    29A     -0.550411    30A     -0.513788
      31A     -0.508966    32A     -0.505933    33A     -0.431386
      34A     -0.421436    35A     -0.345160    36A     -0.323697

  @DF-RHF Final Energy:  -437.66180980760782

   => Energetics <=

    Nuclear Repulsion Energy =            484.3775318643460537
    One-Electron Energy =               -1554.6042309617023420
    Two-Electron Energy =                 632.5648892897484075
    Total Energy =                       -437.6618098076078240
  Basis Set: (AUG-CC-PVTZ AUX)
    Blend: AUG-CC-PVTZ-RI
    Molecular point group: c1

    Geometry (in Angstrom), charge = 0, multiplicity = 1:

       Center              X                  Y                   Z               Mass
    ------------   -----------------  -----------------  -----------------  -----------------
         O            2.153633084512     1.367111315327    -0.016508244188    15.994914619570
         N            1.085242084512    -0.676818684673    -0.023322244188    14.003074004430
         C           -0.375218615488    -0.289769284673    -0.009043244188    12.000000000000
         C           -0.723717915488     1.014737315327     0.000343755812    12.000000000000
         C           -1.213110915488    -1.362122684673    -0.008413244188    12.000000000000
         C           -2.096259915488     1.270004315327     0.013340755812    12.000000000000
         C           -2.578279915488    -1.089049684673     0.004643755812    12.000000000000
         C           -3.029123915488     0.232523315327     0.015524755812    12.000000000000
         C            2.196487084512     0.137021315327    -0.017109244188    12.000000000000
         C            3.506910084512    -0.625444684673     0.034919755812    12.000000000000
         H           -0.004089915488     1.822113315327    -0.001954244188     1.007825032230
         H           -0.867640915488    -2.395474684673    -0.016724244188     1.007825032230
         H            1.262561084512    -1.674648684673    -0.026299244188     1.007825032230
         H           -2.435046915488     2.303352315327     0.021409755812     1.007825032230
         H           -3.288333915488    -1.912521684673     0.005987755812     1.007825032230
         H           -4.093978915488     0.449436315327     0.025472755812     1.007825032230
         H            3.736298084512    -0.895924684673     1.070256755812     1.007825032230
         H            4.295572084512     0.029358315327    -0.335136244188     1.007825032230
         H            3.482190084512    -1.539929684673    -0.564265244188     1.007825032230

  Basis Set: AUG-CC-PVTZ
    Blend: AUG-CC-PVTZ
  Basis Set: (AUG-CC-PVTZ AUX)
    Blend: AUG-CC-PVTZ-JKFIT
	 Reference Energy          =    -437.6618098076078240 [Eh]
	 Singles Energy            =      -0.0000000000000000 [Eh]
	 Same-Spin Energy          =      -0.4669338038273060 [Eh]
	 Opposite-Spin Energy      =      -1.4561524657217819 [Eh]
	 Correlation Energy        =      -1.9230862695490880 [Eh]
	 Total Energy              =    -439.5848960771568841 [Eh]

	 ================> DF-SCS-MP2 Energies <==================
	-----------------------------------------------------------
	 SCS Same-Spin Scale       =       0.3333333333333333 [-]
	 SCS Opposite-Spin Scale   =       1.2000000000000000 [-]
	 SCS Same-Spin Energy      =      -0.1556446012757687 [Eh]
	 SCS Opposite-Spin Energy  =      -1.7473829588661383 [Eh]
	 SCS Correlation Energy    =      -1.9030275601419069 [Eh]
	 SCS Total Energy          =    -439.5648373677497034 [Eh]
	-----------------------------------------------------------

  Dipole Moment: [D]
     X:    -0.5724      Y:    -3.3961      Z:     0.0640     Total:     3.4446

*** Psi4 exiting successfully. Buy a developer a beer!
