                               Psi4 1.3.2 release

  ==> Input File <==

--------------------------------------------------------------------------
#psi4
#
memory 32 gb

molecule  {
0 1
  O        2.1311420     1.3954640    -0.0176610
  N        1.0562344    -0.6722133    -0.0245601
  C       -0.3010510    -0.2870330    -0.0111410
  C       -0.7462090     1.0430900    -0.0008090
  C       -1.2356020    -1.3337700    -0.0095660
  C       -2.1187510     1.2983570     0.0121880
  C       -2.6007710    -1.0606970     0.0034910
  C       -3.0516150     0.2608760     0.0143720
  C        2.1739960     0.1653740    -0.0182620
  C        3.4844190    -0.5970920     0.0337670
  H       -0.0265810     1.8504660    -0.0031070
  H       -0.8901320    -2.3671220    -0.0178770
  H        1.2400700    -1.6462960    -0.0274520
  H       -2.4575380     2.3317050     0.0202570
  H       -3.3108250    -1.8841690     0.0048350
  H       -4.1164700     0.4777890     0.0243200
  H        3.7138070    -0.8675720     1.0691040
  H        4.2730810     0.0577110    -0.3362890
  H        3.4596990    -1.5115770    -0.5654180
units angstrom
no_reorient  #important for SAPT in psi4, default
symmetry c1  #important for SAPT in psi4, default
}

set PROPERTIES_ORIGIN ["COM"]
properties('MP2/aug-cc-pvtz', properties = ['dipole'])
--------------------------------------------------------------------------

    Molecular point group: c1
  Charge       = 0
  Multiplicity = 1
  Basis Set: AUG-CC-PVTZ
    Blend: AUG-CC-PVTZ
  Basis Set: (AUG-CC-PVTZ AUX)
    Blend: AUG-CC-PVTZ-JKFIT

    Orbital Energies [Eh]
    ---------------------

    Doubly Occupied:

       1A    -20.533334     2A    -15.607373     3A    -11.369384
       4A    -11.290685     5A    -11.247169     6A    -11.241802
       7A    -11.238024     8A    -11.237975     9A    -11.229893
      10A    -11.227321    11A     -1.384935    12A     -1.258755
      13A     -1.142355    14A     -1.035497    15A     -1.016849
      16A     -0.985459    17A     -0.854355    18A     -0.834554
      19A     -0.780399    20A     -0.727702    21A     -0.681617
      22A     -0.675022    23A     -0.627555    24A     -0.616912
      25A     -0.613114    26A     -0.592715    27A     -0.584985
      28A     -0.566535    29A     -0.556477    30A     -0.518207
      31A     -0.501668    32A     -0.498824    33A     -0.443499
      34A     -0.429574    35A     -0.339573    36A     -0.308783

  @DF-RHF Final Energy:  -437.67108410257259

   => Energetics <=

    Nuclear Repulsion Energy =            483.9698877304377334
    One-Electron Energy =               -1553.6841813064379494
    Two-Electron Energy =                 632.0432094734276234
    Total Energy =                       -437.6710841025726495
  Basis Set: (AUG-CC-PVTZ AUX)
    Blend: AUG-CC-PVTZ-RI
    Molecular point group: c1

    Geometry (in Angstrom), charge = 0, multiplicity = 1:

       Center              X                  Y                   Z               Mass
    ------------   -----------------  -----------------  -----------------  -----------------
         O            2.145721153536     1.371849151367    -0.016415464083    15.994914619570
         N            1.070813553536    -0.695828148633    -0.023314564083    14.003074004430
         C           -0.286471846464    -0.310647848633    -0.009895464083    12.000000000000
         C           -0.731629846464     1.019475151367     0.000436535917    12.000000000000
         C           -1.221022846464    -1.357384848633    -0.008320464083    12.000000000000
         C           -2.104171846464     1.274742151367     0.013433535917    12.000000000000
         C           -2.586191846464    -1.084311848633     0.004736535917    12.000000000000
         C           -3.037035846464     0.237261151367     0.015617535917    12.000000000000
         C            2.188575153536     0.141759151367    -0.017016464083    12.000000000000
         C            3.498998153536    -0.620706848633     0.035012535917    12.000000000000
         H           -0.012001846464     1.826851151367    -0.001861464083     1.007825032230
         H           -0.875552846464    -2.390736848633    -0.016631464083     1.007825032230
         H            1.254649153536    -1.669910848633    -0.026206464083     1.007825032230
         H           -2.442958846464     2.308090151367     0.021502535917     1.007825032230
         H           -3.296245846464    -1.907783848633     0.006080535917     1.007825032230
         H           -4.101890846464     0.454174151367     0.025565535917     1.007825032230
         H            3.728386153536    -0.891186848633     1.070349535917     1.007825032230
         H            4.287660153536     0.034096151367    -0.335043464083     1.007825032230
         H            3.474278153536    -1.535191848633    -0.564172464083     1.007825032230

  Basis Set: AUG-CC-PVTZ
    Blend: AUG-CC-PVTZ
  Basis Set: (AUG-CC-PVTZ AUX)
    Blend: AUG-CC-PVTZ-JKFIT
	 Reference Energy          =    -437.6710841025725927 [Eh]
	 Singles Energy            =      -0.0000000000000000 [Eh]
	 Same-Spin Energy          =      -0.4672605007878493 [Eh]
	 Opposite-Spin Energy      =      -1.4564993036496947 [Eh]
	 Correlation Energy        =      -1.9237598044375439 [Eh]
	 Total Energy              =    -439.5948439070101585 [Eh]

	 ================> DF-SCS-MP2 Energies <==================
	-----------------------------------------------------------
	 SCS Same-Spin Scale       =       0.3333333333333333 [-]
	 SCS Opposite-Spin Scale   =       1.2000000000000000 [-]
	 SCS Same-Spin Energy      =      -0.1557535002626164 [Eh]
	 SCS Opposite-Spin Energy  =      -1.7477991643796336 [Eh]
	 SCS Correlation Energy    =      -1.9035526646422500 [Eh]
	 SCS Total Energy          =    -439.5746367672148267 [Eh]
	-----------------------------------------------------------

  Dipole Moment: [D]
     X:     0.1621      Y:    -3.3696      Z:     0.0616     Total:     3.3741

*** Psi4 exiting successfully. Buy a developer a beer!
