                               Psi4 1.3.2 release

  ==> Input File <==

--------------------------------------------------------------------------
#psi4
#
memory 32 gb

molecule  {
0 1
  O        2.1311420     1.3954640    -0.0176610
  N        1.0846453    -0.5524487    -0.0240942
  C       -0.3010510    -0.2870330    -0.0111410
  C       -0.7462090     1.0430900    -0.0008090
  C       -1.2356020    -1.3337700    -0.0095660
  C       -2.1187510     1.2983570     0.0121880
  C       -2.6007710    -1.0606970     0.0034910
  C       -3.0516150     0.2608760     0.0143720
  C        2.1739960     0.1653740    -0.0182620
  C        3.4844190    -0.5970920     0.0337670
  H       -0.0265810     1.8504660    -0.0031070
  H       -0.8901320    -2.3671220    -0.0178770
  H        1.2400700    -1.6462960    -0.0274520
  H       -2.4575380     2.3317050     0.0202570
  H       -3.3108250    -1.8841690     0.0048350
  H       -4.1164700     0.4777890     0.0243200
  H        3.7138070    -0.8675720     1.0691040
  H        4.2730810     0.0577110    -0.3362890
  H        3.4596990    -1.5115770    -0.5654180
units angstrom
no_reorient  #important for SAPT in psi4, default
symmetry c1  #important for SAPT in psi4, default
}

set PROPERTIES_ORIGIN ["COM"]
properties('MP2/aug-cc-pvtz', properties = ['dipole'])
--------------------------------------------------------------------------

    Molecular point group: c1
  Charge       = 0
  Multiplicity = 1
  Basis Set: AUG-CC-PVTZ
    Blend: AUG-CC-PVTZ
  Basis Set: (AUG-CC-PVTZ AUX)
    Blend: AUG-CC-PVTZ-JKFIT

    Orbital Energies [Eh]
    ---------------------

    Doubly Occupied:

       1A    -20.512945     2A    -15.616855     3A    -11.353708
       4A    -11.295188     5A    -11.246248     6A    -11.245017
       7A    -11.244784     8A    -11.239515     9A    -11.234233
      10A    -11.228562    11A     -1.384609    12A     -1.259480
      13A     -1.147894    14A     -1.039827    15A     -1.020302
      16A     -0.986911    17A     -0.866725    18A     -0.838831
      19A     -0.774264    20A     -0.715594    21A     -0.680208
      22A     -0.677260    23A     -0.633967    24A     -0.618623
      25A     -0.615287    26A     -0.590052    27A     -0.571587
      28A     -0.563962    29A     -0.560348    30A     -0.519274
      31A     -0.502215    32A     -0.499354    33A     -0.436519
      34A     -0.422238    35A     -0.342427    36A     -0.313817

  @DF-RHF Final Energy:  -437.65771061878246

   => Energetics <=

    Nuclear Repulsion Energy =            485.4840183687496733
    One-Electron Energy =               -1556.6862007507995713
    Two-Electron Energy =                 633.5444717632673246
    Total Energy =                       -437.6577106187825166
  Basis Set: (AUG-CC-PVTZ AUX)
    Blend: AUG-CC-PVTZ-RI
    Molecular point group: c1

    Geometry (in Angstrom), charge = 0, multiplicity = 1:

       Center              X                  Y                   Z               Mass
    ------------   -----------------  -----------------  -----------------  -----------------
         O            2.142775683727     1.359432683976    -0.016463765769    15.994914619570
         N            1.096278983727    -0.588480016024    -0.022896965769    14.003074004430
         C           -0.289417316273    -0.323064316024    -0.009943765769    12.000000000000
         C           -0.734575316273     1.007058683976     0.000388234231    12.000000000000
         C           -1.223968316273    -1.369801316024    -0.008368765769    12.000000000000
         C           -2.107117316273     1.262325683976     0.013385234231    12.000000000000
         C           -2.589137316273    -1.096728316024     0.004688234231    12.000000000000
         C           -3.039981316273     0.224844683976     0.015569234231    12.000000000000
         C            2.185629683727     0.129342683976    -0.017064765769    12.000000000000
         C            3.496052683727    -0.633123316024     0.034964234231    12.000000000000
         H           -0.014947316273     1.814434683976    -0.001909765769     1.007825032230
         H           -0.878498316273    -2.403153316024    -0.016679765769     1.007825032230
         H            1.251703683727    -1.682327316024    -0.026254765769     1.007825032230
         H           -2.445904316273     2.295673683976     0.021454234231     1.007825032230
         H           -3.299191316273    -1.920200316024     0.006032234231     1.007825032230
         H           -4.104836316273     0.441757683976     0.025517234231     1.007825032230
         H            3.725440683727    -0.903603316024     1.070301234231     1.007825032230
         H            4.284714683727     0.021679683976    -0.335091765769     1.007825032230
         H            3.471332683727    -1.547608316024    -0.564220765769     1.007825032230

  Basis Set: AUG-CC-PVTZ
    Blend: AUG-CC-PVTZ
  Basis Set: (AUG-CC-PVTZ AUX)
    Blend: AUG-CC-PVTZ-JKFIT
	 Reference Energy          =    -437.6577106187824597 [Eh]
	 Singles Energy            =      -0.0000000000000000 [Eh]
	 Same-Spin Energy          =      -0.4680724810932553 [Eh]
	 Opposite-Spin Energy      =      -1.4575759380781494 [Eh]
	 Correlation Energy        =      -1.9256484191714047 [Eh]
	 Total Energy              =    -439.5833590379538691 [Eh]

	 ================> DF-SCS-MP2 Energies <==================
	-----------------------------------------------------------
	 SCS Same-Spin Scale       =       0.3333333333333333 [-]
	 SCS Opposite-Spin Scale   =       1.2000000000000000 [-]
	 SCS Same-Spin Energy      =      -0.1560241603644184 [Eh]
	 SCS Opposite-Spin Energy  =      -1.7490911256937793 [Eh]
	 SCS Correlation Energy    =      -1.9051152860581977 [Eh]
	 SCS Total Energy          =    -439.5628259048406790 [Eh]
	-----------------------------------------------------------

  Dipole Moment: [D]
     X:    -0.3557      Y:    -3.6659      Z:     0.0583     Total:     3.6836

*** Psi4 exiting successfully. Buy a developer a beer!
