                               Psi4 1.4a3.dev225

  ==> Input File <==

--------------------------------------------------------------------------
#psi4
#
memory 32 gb

molecule  {
0 1
  O        2.1311420     1.3954640    -0.0176610
  N        1.0627510    -0.6484660    -0.0244750
  C       -0.3493804    -0.2742248    -0.0106685
  C       -0.7462090     1.0430900    -0.0008090
  C       -1.2356020    -1.3337700    -0.0095660
  C       -2.1187510     1.2983570     0.0121880
  C       -2.6007710    -1.0606970     0.0034910
  C       -3.0516150     0.2608760     0.0143720
  C        2.1739960     0.1653740    -0.0182620
  C        3.4844190    -0.5970920     0.0337670
  H       -0.0265810     1.8504660    -0.0031070
  H       -0.8901320    -2.3671220    -0.0178770
  H        1.2400700    -1.6462960    -0.0274520
  H       -2.4575380     2.3317050     0.0202570
  H       -3.3108250    -1.8841690     0.0048350
  H       -4.1164700     0.4777890     0.0243200
  H        3.7138070    -0.8675720     1.0691040
  H        4.2730810     0.0577110    -0.3362890
  H        3.4596990    -1.5115770    -0.5654180
units angstrom
no_reorient  #important for SAPT in psi4, default
symmetry c1  #important for SAPT in psi4, default
}

set PROPERTIES_ORIGIN ["COM"]
properties('MP2/aug-cc-pvtz', properties = ['dipole'])
--------------------------------------------------------------------------

    Molecular point group: c1
  Charge       = 0
  Multiplicity = 1
  Basis Set: AUG-CC-PVTZ
    Blend: AUG-CC-PVTZ
  Basis Set: (AUG-CC-PVTZ AUX)
    Blend: AUG-CC-PVTZ-JKFIT

    Orbital Energies [Eh]
    ---------------------

    Doubly Occupied:

       1A    -20.525046     2A    -15.604454     3A    -11.362508
       4A    -11.289681     5A    -11.244192     6A    -11.243951
       7A    -11.239949     8A    -11.239707     9A    -11.232993
      10A    -11.226911    11A     -1.379473    12A     -1.245998
      13A     -1.149277    14A     -1.034049    15A     -1.022605
      16A     -0.986749    17A     -0.853286    18A     -0.834377
      19A     -0.777752    20A     -0.721206    21A     -0.678931
      22A     -0.671733    23A     -0.624085    24A     -0.622554
      25A     -0.615750    26A     -0.592088    27A     -0.582462
      28A     -0.563800    29A     -0.553141    30A     -0.516182
      31A     -0.505048    32A     -0.503777    33A     -0.436941
      34A     -0.425088    35A     -0.342511    36A     -0.317040

  @DF-RHF Final Energy:  -437.66972564447411

   => Energetics <=

    Nuclear Repulsion Energy =            484.2964666690248237
    One-Electron Energy =               -1554.4017923906062606
    Two-Electron Energy =                 632.4356000771074378
    Total Energy =                       -437.6697256444740560
  Basis Set: (AUG-CC-PVTZ AUX)
    Blend: AUG-CC-PVTZ-RI
    Molecular point group: c1

    Geometry (in Angstrom), charge = 0, multiplicity = 1:

       Center              X                  Y                   Z               Mass
    ------------   -----------------  -----------------  -----------------  -----------------
         O            2.149339322682     1.368249245325    -0.016466265461    15.994914619570
         N            1.080948322682    -0.675680754675    -0.023280265461    14.003074004430
         C           -0.331183077318    -0.301439554675    -0.009473765461    12.000000000000
         C           -0.728011677318     1.015875245325     0.000385734539    12.000000000000
         C           -1.217404677318    -1.360984754675    -0.008371265461    12.000000000000
         C           -2.100553677318     1.271142245325     0.013382734539    12.000000000000
         C           -2.582573677318    -1.087911754675     0.004685734539    12.000000000000
         C           -3.033417677318     0.233661245325     0.015566734539    12.000000000000
         C            2.192193322682     0.138159245325    -0.017067265461    12.000000000000
         C            3.502616322682    -0.624306754675     0.034961734539    12.000000000000
         H           -0.008383677318     1.823251245325    -0.001912265461     1.007825032230
         H           -0.871934677318    -2.394336754675    -0.016682265461     1.007825032230
         H            1.258267322682    -1.673510754675    -0.026257265461     1.007825032230
         H           -2.439340677318     2.304490245325     0.021451734539     1.007825032230
         H           -3.292627677318    -1.911383754675     0.006029734539     1.007825032230
         H           -4.098272677318     0.450574245325     0.025514734539     1.007825032230
         H            3.732004322682    -0.894786754675     1.070298734539     1.007825032230
         H            4.291278322682     0.030496245325    -0.335094265461     1.007825032230
         H            3.477896322682    -1.538791754675    -0.564223265461     1.007825032230

  Basis Set: AUG-CC-PVTZ
    Blend: AUG-CC-PVTZ
  Basis Set: (AUG-CC-PVTZ AUX)
    Blend: AUG-CC-PVTZ-JKFIT
	 Reference Energy          =    -437.6697256444741129 [Eh]
	 Singles Energy            =      -0.0000000000000000 [Eh]
	 Same-Spin Energy          =      -0.4670258019416025 [Eh]
	 Opposite-Spin Energy      =      -1.4561250714459271 [Eh]
	 Correlation Energy        =      -1.9231508733875295 [Eh]
	 Total Energy              =    -439.5928765178616686 [Eh]

	 ================> DF-SCS-MP2 Energies <==================
	-----------------------------------------------------------
	 SCS Same-Spin Scale       =       0.3333333333333333 [-]
	 SCS Opposite-Spin Scale   =       1.2000000000000000 [-]
	 SCS Same-Spin Energy      =      -0.1556752673138675 [Eh]
	 SCS Opposite-Spin Energy  =      -1.7473500857351125 [Eh]
	 SCS Correlation Energy    =      -1.9030253530489800 [Eh]
	 SCS Total Energy          =    -439.5727509975230873 [Eh]
	-----------------------------------------------------------

  Dipole Moment: [D]
     X:    -0.2594      Y:    -3.4159      Z:     0.0624     Total:     3.4264

*** Psi4 exiting successfully. Buy a developer a beer!
