                               Psi4 1.4a3.dev225

  ==> Input File <==

--------------------------------------------------------------------------
#psi4
#
memory 32 gb

molecule  {
0 1
  O       -1.5693130     0.6792620     0.9775650
  O        2.3881200    -0.4231710     0.2741620
  O       -1.9867550    -0.4638000    -0.9394160
  O        1.0534040     1.1518790    -0.6703260
  C        0.0711740    -0.8607350     0.2805240
  C       -1.2486148    -0.2300463     0.0135688
  C        1.1867570     0.0868330    -0.0975870
  H        0.1681380    -1.1264420     1.3368470
  H        0.1588640    -1.7718550    -0.3168650
  H       -2.4173420     1.0883610     0.7068920
  H        3.0573020     0.2293680    -0.0202400
units angstrom
no_reorient  #important for SAPT in psi4, default
symmetry c1  #important for SAPT in psi4, default
}

set PROPERTIES_ORIGIN ["COM"]
properties('MP2/aug-cc-pvtz', properties = ['dipole'])
--------------------------------------------------------------------------

    Molecular point group: c1
  Charge       = 0
  Multiplicity = 1
  Basis Set: AUG-CC-PVTZ
    Blend: AUG-CC-PVTZ
  Basis Set: (AUG-CC-PVTZ AUX)
    Blend: AUG-CC-PVTZ-JKFIT

    Orbital Energies [Eh]
    ---------------------

    Doubly Occupied:

       1A    -20.636756     2A    -20.624416     3A    -20.573815
       4A    -20.564113     5A    -11.418503     6A    -11.408155
       7A    -11.285429     8A     -1.482807     9A     -1.465760
      10A     -1.380001    11A     -1.362488    12A     -1.089144
      13A     -0.889502    14A     -0.810565    15A     -0.729038
      16A     -0.719675    17A     -0.715851    18A     -0.685376
      19A     -0.664190    20A     -0.632771    21A     -0.594531
      22A     -0.591985    23A     -0.583969    24A     -0.504026
      25A     -0.489464    26A     -0.477263    27A     -0.468805

  @DF-RHF Final Energy:  -415.58304500610842

   => Energetics <=

    Nuclear Repulsion Energy =            300.2999512410721081
    One-Electron Energy =               -1166.0691953717698652
    Two-Electron Energy =                 450.1861991245893364
    Total Energy =                       -415.5830450061084207
  Basis Set: (AUG-CC-PVTZ AUX)
    Blend: AUG-CC-PVTZ-RI
    Molecular point group: c1

    Geometry (in Angstrom), charge = 0, multiplicity = 1:

       Center              X                  Y                   Z               Mass
    ------------   -----------------  -----------------  -----------------  -----------------
         O           -1.562142615251     0.665209606287     0.993412957884    15.994914619570
         O            2.395290384749    -0.437223393713     0.290009957884    15.994914619570
         O           -1.979584615251    -0.477852393713    -0.923568042116    15.994914619570
         O            1.060574384749     1.137826606287    -0.654478042116    15.994914619570
         C            0.078344384749    -0.874787393713     0.296371957884    12.000000000000
         C           -1.241444415251    -0.244098693713     0.029416757884    12.000000000000
         C            1.193927384749     0.072780606287    -0.081739042116    12.000000000000
         H            0.175308384749    -1.140494393713     1.352694957884     1.007825032230
         H            0.166034384749    -1.785907393713    -0.301017042116     1.007825032230
         H           -2.410171615251     1.074308606287     0.722739957884     1.007825032230
         H            3.064472384749     0.215315606287    -0.004392042116     1.007825032230

  Basis Set: AUG-CC-PVTZ
    Blend: AUG-CC-PVTZ
  Basis Set: (AUG-CC-PVTZ AUX)
    Blend: AUG-CC-PVTZ-JKFIT
	 Reference Energy          =    -415.5830450061084207 [Eh]
	 Singles Energy            =      -0.0000000000000000 [Eh]
	 Same-Spin Energy          =      -0.3935042391965980 [Eh]
	 Opposite-Spin Energy      =      -1.1655338017572081 [Eh]
	 Correlation Energy        =      -1.5590380409538060 [Eh]
	 Total Energy              =    -417.1420830470622150 [Eh]

	 ================> DF-SCS-MP2 Energies <==================
	-----------------------------------------------------------
	 SCS Same-Spin Scale       =       0.3333333333333333 [-]
	 SCS Opposite-Spin Scale   =       1.2000000000000000 [-]
	 SCS Same-Spin Energy      =      -0.1311680797321993 [Eh]
	 SCS Opposite-Spin Energy  =      -1.3986405621086497 [Eh]
	 SCS Correlation Energy    =      -1.5298086418408490 [Eh]
	 SCS Total Energy          =    -417.1128536479492936 [Eh]
	-----------------------------------------------------------

  Dipole Moment: [D]
     X:     1.3484      Y:    -0.7218      Z:     1.8681     Total:     2.4144

*** Psi4 exiting successfully. Buy a developer a beer!
