                               Psi4 1.3.2 release

  ==> Input File <==

--------------------------------------------------------------------------
#psi4
#
memory 32 gb

molecule  {
0 1
  O        2.3317040    -0.8186130    -0.0014310
  O       -2.3317020    -0.8186160     0.0009270
  O        1.4266620     1.2613620     0.0018990
  O       -1.4266720     1.2613600    -0.0019020
  C        0.0000050    -0.7381970     0.0004560
  C        1.3225394    -0.0213992    -0.1316428
  C       -1.2840430     0.0565240    -0.0003020
  H        0.0001910    -1.4067280    -0.8673040
  H       -0.0001890    -1.4057310     0.8689960
  H        3.1367490    -0.2602560    -0.0011430
  H       -3.1367720    -0.2602910     0.0002510
units angstrom
no_reorient  #important for SAPT in psi4, default
symmetry c1  #important for SAPT in psi4, default
}

set PROPERTIES_ORIGIN ["COM"]
properties('MP2/aug-cc-pvtz', properties = ['dipole'])
--------------------------------------------------------------------------

    Molecular point group: c1
  Charge       = 0
  Multiplicity = 1
  Basis Set: AUG-CC-PVTZ
    Blend: AUG-CC-PVTZ
  Basis Set: (AUG-CC-PVTZ AUX)
    Blend: AUG-CC-PVTZ-JKFIT

    Orbital Energies [Eh]
    ---------------------

    Doubly Occupied:

       1A    -20.649169     2A    -20.626840     3A    -20.562025
       4A    -20.549489     5A    -11.414344     6A    -11.407686
       7A    -11.289036     8A     -1.501875     9A     -1.470522
      10A     -1.368037    11A     -1.326310    12A     -1.082879
      13A     -0.908302    14A     -0.813323    15A     -0.727443
      16A     -0.717769    17A     -0.692935    18A     -0.690512
      19A     -0.679491    20A     -0.642828    21A     -0.599089
      22A     -0.579236    23A     -0.568412    24A     -0.491146
      25A     -0.470818    26A     -0.463602    27A     -0.449703

  @DF-RHF Final Energy:  -415.55424443456360

   => Energetics <=

    Nuclear Repulsion Energy =            296.4009105478402830
    One-Electron Energy =               -1158.4246695891918080
    Two-Electron Energy =                 446.4695146067878682
    Total Energy =                       -415.5542444345636000
  Basis Set: (AUG-CC-PVTZ AUX)
    Blend: AUG-CC-PVTZ-RI
    Molecular point group: c1

    Geometry (in Angstrom), charge = 0, multiplicity = 1:

       Center              X                  Y                   Z               Mass
    ------------   -----------------  -----------------  -----------------  -----------------
         O            2.327263432558    -0.841374367490     0.013809401424    15.994914619570
         O           -2.336142567442    -0.841377367490     0.016167401424    15.994914619570
         O            1.422221432558     1.238600632510     0.017139401424    15.994914619570
         O           -1.431112567442     1.238598632510     0.013338401424    15.994914619570
         C           -0.004435567442    -0.760958367490     0.015696401424    12.000000000000
         C            1.318098832558    -0.044160567490    -0.116402398576    12.000000000000
         C           -1.288483567442     0.033762632510     0.014938401424    12.000000000000
         H           -0.004249567442    -1.429489367490    -0.852063598576     1.007825032230
         H           -0.004629567442    -1.428492367490     0.884236401424     1.007825032230
         H            3.132308432558    -0.283017367490     0.014097401424     1.007825032230
         H           -3.141212567442    -0.283052367490     0.015491401424     1.007825032230

  Basis Set: AUG-CC-PVTZ
    Blend: AUG-CC-PVTZ
  Basis Set: (AUG-CC-PVTZ AUX)
    Blend: AUG-CC-PVTZ-JKFIT
	 Reference Energy          =    -415.5542444345636000 [Eh]
	 Singles Energy            =      -0.0000000000000000 [Eh]
	 Same-Spin Energy          =      -0.3951496599179463 [Eh]
	 Opposite-Spin Energy      =      -1.1689224701930438 [Eh]
	 Correlation Energy        =      -1.5640721301109901 [Eh]
	 Total Energy              =    -417.1183165646746147 [Eh]

	 ================> DF-SCS-MP2 Energies <==================
	-----------------------------------------------------------
	 SCS Same-Spin Scale       =       0.3333333333333333 [-]
	 SCS Opposite-Spin Scale   =       1.2000000000000000 [-]
	 SCS Same-Spin Energy      =      -0.1317165533059821 [Eh]
	 SCS Opposite-Spin Energy  =      -1.4027069642316525 [Eh]
	 SCS Correlation Energy    =      -1.5344235175376346 [Eh]
	 SCS Total Energy          =    -417.0886679521012184 [Eh]
	-----------------------------------------------------------

  Dipole Moment: [D]
     X:     0.3578      Y:    -3.3278      Z:    -0.1168     Total:     3.3490

*** Psi4 exiting successfully. Buy a developer a beer!
