                               Psi4 1.3.2 release

  ==> Input File <==

--------------------------------------------------------------------------
#psi4
#
memory 32 gb

molecule  {
0 1
  O        2.3317040    -0.8186130    -0.0014310
  O       -2.3317020    -0.8186160     0.0009270
  O        1.4266620     1.2613620     0.0018990
  O       -1.4266720     1.2613600    -0.0019020
  C        0.0000050    -0.7381970     0.0004560
  C        1.3600889    -0.0820581     0.0004804
  C       -1.2840430     0.0565240    -0.0003020
  H        0.0001910    -1.4067280    -0.8673040
  H       -0.0001890    -1.4057310     0.8689960
  H        3.1367490    -0.2602560    -0.0011430
  H       -3.1367720    -0.2602910     0.0002510
units angstrom
no_reorient  #important for SAPT in psi4, default
symmetry c1  #important for SAPT in psi4, default
}

set PROPERTIES_ORIGIN ["COM"]
properties('MP2/aug-cc-pvtz', properties = ['dipole'])
--------------------------------------------------------------------------

    Molecular point group: c1
  Charge       = 0
  Multiplicity = 1
  Basis Set: AUG-CC-PVTZ
    Blend: AUG-CC-PVTZ
  Basis Set: (AUG-CC-PVTZ AUX)
    Blend: AUG-CC-PVTZ-JKFIT

    Orbital Energies [Eh]
    ---------------------

    Doubly Occupied:

       1A    -20.668865     2A    -20.626204     3A    -20.559681
       4A    -20.531992     5A    -11.413793     6A    -11.406988
       7A    -11.288910     8A     -1.549593     9A     -1.469274
      10A     -1.365745    11A     -1.292190    12A     -1.083270
      13A     -0.928190    14A     -0.828732    15A     -0.742858
      16A     -0.718525    17A     -0.706368    18A     -0.692423
      19A     -0.678957    20A     -0.653796    21A     -0.598850
      22A     -0.579923    23A     -0.547501    24A     -0.488719
      25A     -0.465009    26A     -0.443142    27A     -0.437965

  @DF-RHF Final Energy:  -415.53661122417117

   => Energetics <=

    Nuclear Repulsion Energy =            296.6086940873523190
    One-Electron Energy =               -1158.7556859731332679
    Two-Electron Energy =                 446.6103806616097813
    Total Energy =                       -415.5366112241711676
  Basis Set: (AUG-CC-PVTZ AUX)
    Blend: AUG-CC-PVTZ-RI
    Molecular point group: c1

    Geometry (in Angstrom), charge = 0, multiplicity = 1:

       Center              X                  Y                   Z               Mass
    ------------   -----------------  -----------------  -----------------  -----------------
         O            2.322931254430    -0.834376001070    -0.001433976978    15.994914619570
         O           -2.340474745570    -0.834379001070     0.000924023022    15.994914619570
         O            1.417889254430     1.245598998930     0.001896023022    15.994914619570
         O           -1.435444745570     1.245596998930    -0.001904976978    15.994914619570
         C           -0.008767745570    -0.753960001070     0.000453023022    12.000000000000
         C            1.351316154430    -0.097821101070     0.000477423022    12.000000000000
         C           -1.292815745570     0.040760998930    -0.000304976978    12.000000000000
         H           -0.008581745570    -1.422491001070    -0.867306976978     1.007825032230
         H           -0.008961745570    -1.421494001070     0.868993023022     1.007825032230
         H            3.127976254430    -0.276019001070    -0.001145976978     1.007825032230
         H           -3.145544745570    -0.276054001070     0.000248023022     1.007825032230

  Basis Set: AUG-CC-PVTZ
    Blend: AUG-CC-PVTZ
  Basis Set: (AUG-CC-PVTZ AUX)
    Blend: AUG-CC-PVTZ-JKFIT
	 Reference Energy          =    -415.5366112241711676 [Eh]
	 Singles Energy            =      -0.0000000000000000 [Eh]
	 Same-Spin Energy          =      -0.3954687614549003 [Eh]
	 Opposite-Spin Energy      =      -1.1686103325832422 [Eh]
	 Correlation Energy        =      -1.5640790940381426 [Eh]
	 Total Energy              =    -417.1006903182093311 [Eh]

	 ================> DF-SCS-MP2 Energies <==================
	-----------------------------------------------------------
	 SCS Same-Spin Scale       =       0.3333333333333333 [-]
	 SCS Opposite-Spin Scale   =       1.2000000000000000 [-]
	 SCS Same-Spin Energy      =      -0.1318229204849668 [Eh]
	 SCS Opposite-Spin Energy  =      -1.4023323990998906 [Eh]
	 SCS Correlation Energy    =      -1.5341553195848574 [Eh]
	 SCS Total Energy          =    -417.0707665437560081 [Eh]
	-----------------------------------------------------------

  Dipole Moment: [D]
     X:     0.6831      Y:    -3.8339      Z:    -0.0014     Total:     3.8943

*** Psi4 exiting successfully. Buy a developer a beer!
