                               Psi4 1.3.2 release

  ==> Input File <==

--------------------------------------------------------------------------
#psi4
#
memory 32 gb

molecule  {
0 1
  O        2.3317040    -0.8186130    -0.0014310
  O       -2.3317020    -0.8186160     0.0009270
  O        1.4266620     1.2613620     0.0018990
  O       -1.4266720     1.2613600    -0.0019020
  C        0.0000050    -0.7381970     0.0004560
  C        1.4541164     0.1617692     0.0003790
  C       -1.2840430     0.0565240    -0.0003020
  H        0.0001910    -1.4067280    -0.8673040
  H       -0.0001890    -1.4057310     0.8689960
  H        3.1367490    -0.2602560    -0.0011430
  H       -3.1367720    -0.2602910     0.0002510
units angstrom
no_reorient  #important for SAPT in psi4, default
symmetry c1  #important for SAPT in psi4, default
}

set PROPERTIES_ORIGIN ["COM"]
properties('MP2/aug-cc-pvtz', properties = ['dipole'])
--------------------------------------------------------------------------

    Molecular point group: c1
  Charge       = 0
  Multiplicity = 1
  Basis Set: AUG-CC-PVTZ
    Blend: AUG-CC-PVTZ
  Basis Set: (AUG-CC-PVTZ AUX)
    Blend: AUG-CC-PVTZ-JKFIT

    Orbital Energies [Eh]
    ---------------------

    Doubly Occupied:

       1A    -20.647650     2A    -20.614752     3A    -20.582022
       4A    -20.552109     5A    -11.404415     6A    -11.392571
       7A    -11.262567     8A     -1.532117     9A     -1.459238
      10A     -1.449039    11A     -1.357881    12A     -1.032927
      13A     -0.872712    14A     -0.796021    15A     -0.746885
      16A     -0.721509    17A     -0.698861    18A     -0.693788
      19A     -0.676665    20A     -0.642566    21A     -0.616010
      22A     -0.580179    23A     -0.556095    24A     -0.540945
      25A     -0.482583    26A     -0.457224    27A     -0.432552

  @DF-RHF Final Energy:  -415.53824840360232

   => Energetics <=

    Nuclear Repulsion Energy =            297.0897933935809192
    One-Electron Energy =               -1159.6523161114380400
    Two-Electron Energy =                 447.0242743142547397
    Total Energy =                       -415.5382484036023243
  Basis Set: (AUG-CC-PVTZ AUX)
    Blend: AUG-CC-PVTZ-RI
    Molecular point group: c1

    Geometry (in Angstrom), charge = 0, multiplicity = 1:

       Center              X                  Y                   Z               Mass
    ------------   -----------------  -----------------  -----------------  -----------------
         O            2.312083070593    -0.862506956108    -0.001422278211    15.994914619570
         O           -2.351322929407    -0.862509956108     0.000935721789    15.994914619570
         O            1.407041070593     1.217468043892     0.001907721789    15.994914619570
         O           -1.446292929407     1.217466043892    -0.001893278211    15.994914619570
         C           -0.019615929407    -0.782090956108     0.000464721789    12.000000000000
         C            1.434495470593     0.117875243892     0.000387721789    12.000000000000
         C           -1.303663929407     0.012630043892    -0.000293278211    12.000000000000
         H           -0.019429929407    -1.450621956108    -0.867295278211     1.007825032230
         H           -0.019809929407    -1.449624956108     0.869004721789     1.007825032230
         H            3.117128070593    -0.304149956108    -0.001134278211     1.007825032230
         H           -3.156392929407    -0.304184956108     0.000259721789     1.007825032230

  Basis Set: AUG-CC-PVTZ
    Blend: AUG-CC-PVTZ
  Basis Set: (AUG-CC-PVTZ AUX)
    Blend: AUG-CC-PVTZ-JKFIT
	 Reference Energy          =    -415.5382484036023243 [Eh]
	 Singles Energy            =      -0.0000000000000000 [Eh]
	 Same-Spin Energy          =      -0.3917338652528694 [Eh]
	 Opposite-Spin Energy      =      -1.1613165179281042 [Eh]
	 Correlation Energy        =      -1.5530503831809734 [Eh]
	 Total Energy              =    -417.0912987867832840 [Eh]

	 ================> DF-SCS-MP2 Energies <==================
	-----------------------------------------------------------
	 SCS Same-Spin Scale       =       0.3333333333333333 [-]
	 SCS Opposite-Spin Scale   =       1.2000000000000000 [-]
	 SCS Same-Spin Energy      =      -0.1305779550842898 [Eh]
	 SCS Opposite-Spin Energy  =      -1.3935798215137249 [Eh]
	 SCS Correlation Energy    =      -1.5241577765980148 [Eh]
	 SCS Total Energy          =    -417.0624061802003553 [Eh]
	-----------------------------------------------------------

  Dipole Moment: [D]
     X:     1.3074      Y:    -2.1546      Z:     0.0005     Total:     2.5202

*** Psi4 exiting successfully. Buy a developer a beer!
