                               Psi4 1.3.2 release

  ==> Input File <==

--------------------------------------------------------------------------
#psi4
#
memory 32 gb

molecule  {
0 1
  O        2.3317040    -0.8186130    -0.0014310
  O       -2.3317020    -0.8186160     0.0009270
  O        1.4266620     1.2613620     0.0018990
  O       -1.4266720     1.2613600    -0.0019020
  C        0.0000050    -0.7381970     0.0004560
  C        1.2840530     0.0565150     0.0003880
  C       -1.2840430     0.0565240    -0.0003020
  H        0.0001742    -1.4937713    -0.7926698
  H       -0.0001890    -1.4057310     0.8689960
  H        3.1367490    -0.2602560    -0.0011430
  H       -3.1367720    -0.2602910     0.0002510
units angstrom
no_reorient  #important for SAPT in psi4, default
symmetry c1  #important for SAPT in psi4, default
}

set PROPERTIES_ORIGIN ["COM"]
properties('MP2/aug-cc-pvtz', properties = ['dipole'])
--------------------------------------------------------------------------

    Molecular point group: c1
  Charge       = 0
  Multiplicity = 1
  Basis Set: AUG-CC-PVTZ
    Blend: AUG-CC-PVTZ
  Basis Set: (AUG-CC-PVTZ AUX)
    Blend: AUG-CC-PVTZ-JKFIT

    Orbital Energies [Eh]
    ---------------------

    Doubly Occupied:

       1A    -20.627267     2A    -20.627262     3A    -20.564787
       4A    -20.564784     5A    -11.408863     6A    -11.408856
       7A    -11.287438     8A     -1.474879     9A     -1.469109
      10A     -1.373362    11A     -1.366670    12A     -1.082056
      13A     -0.892659    14A     -0.798094    15A     -0.731586
      16A     -0.712727    17A     -0.693720    18A     -0.681507
      19A     -0.678941    20A     -0.633663    21A     -0.604964
      22A     -0.594735    23A     -0.563403    24A     -0.495953
      25A     -0.490647    26A     -0.480609    27A     -0.456810

  @DF-RHF Final Energy:  -415.57729014499245

   => Energetics <=

    Nuclear Repulsion Energy =            296.8751638828712771
    One-Electron Energy =               -1159.3742099269140908
    Two-Electron Energy =                 446.9217558990504244
    Total Energy =                       -415.5772901449924461
  Basis Set: (AUG-CC-PVTZ AUX)
    Blend: AUG-CC-PVTZ-RI
    Molecular point group: c1

    Geometry (in Angstrom), charge = 0, multiplicity = 1:

       Center              X                  Y                   Z               Mass
    ------------   -----------------  -----------------  -----------------  -----------------
         O            2.331703865929    -0.849520105158    -0.002146492428    15.994914619570
         O           -2.331702134071    -0.849523105158     0.000211507572    15.994914619570
         O            1.426661865929     1.230454894842     0.001183507572    15.994914619570
         O           -1.426672134071     1.230452894842    -0.002617492428    15.994914619570
         C            0.000004865929    -0.769104105158    -0.000259492428    12.000000000000
         C            1.284052865929     0.025607894842    -0.000327492428    12.000000000000
         C           -1.284043134071     0.025616894842    -0.001017492428    12.000000000000
         H            0.000174065929    -1.524678405158    -0.793385292428     1.007825032230
         H           -0.000189134071    -1.436638105158     0.868280507572     1.007825032230
         H            3.136748865929    -0.291163105158    -0.001858492428     1.007825032230
         H           -3.136772134071    -0.291198105158    -0.000464492428     1.007825032230

  Basis Set: AUG-CC-PVTZ
    Blend: AUG-CC-PVTZ
  Basis Set: (AUG-CC-PVTZ AUX)
    Blend: AUG-CC-PVTZ-JKFIT
	 Reference Energy          =    -415.5772901449924461 [Eh]
	 Singles Energy            =      -0.0000000000000000 [Eh]
	 Same-Spin Energy          =      -0.3935928277619872 [Eh]
	 Opposite-Spin Energy      =      -1.1656054715160371 [Eh]
	 Correlation Energy        =      -1.5591982992780244 [Eh]
	 Total Energy              =    -417.1364884442704692 [Eh]

	 ================> DF-SCS-MP2 Energies <==================
	-----------------------------------------------------------
	 SCS Same-Spin Scale       =       0.3333333333333333 [-]
	 SCS Opposite-Spin Scale   =       1.2000000000000000 [-]
	 SCS Same-Spin Energy      =      -0.1311976092539957 [Eh]
	 SCS Opposite-Spin Energy  =      -1.3987265658192445 [Eh]
	 SCS Correlation Energy    =      -1.5299241750732402 [Eh]
	 SCS Total Energy          =    -417.1072143200656797 [Eh]
	-----------------------------------------------------------

  Dipole Moment: [D]
     X:     0.0000      Y:    -2.8454      Z:     0.0312     Total:     2.8456

*** Psi4 exiting successfully. Buy a developer a beer!
