                               Psi4 1.3.2 release

  ==> Input File <==

--------------------------------------------------------------------------
#psi4
#
memory 32 gb

molecule  {
0 1
  O        2.3317040    -0.8186130    -0.0014310
  O       -2.3317020    -0.8186160     0.0009270
  O        1.4266620     1.2613620     0.0018990
  O       -1.4266720     1.2613600    -0.0019020
  C        0.0000050    -0.7381970     0.0004560
  C        1.2840530     0.0565150     0.0003880
  C       -1.2840430     0.0565240    -0.0003020
  H        0.0002011    -1.3445676    -0.9118245
  H       -0.0001890    -1.4057310     0.8689960
  H        3.1367490    -0.2602560    -0.0011430
  H       -3.1367720    -0.2602910     0.0002510
units angstrom
no_reorient  #important for SAPT in psi4, default
symmetry c1  #important for SAPT in psi4, default
}

set PROPERTIES_ORIGIN ["COM"]
properties('MP2/aug-cc-pvtz', properties = ['dipole'])
--------------------------------------------------------------------------

    Molecular point group: c1
  Charge       = 0
  Multiplicity = 1
  Basis Set: AUG-CC-PVTZ
    Blend: AUG-CC-PVTZ
  Basis Set: (AUG-CC-PVTZ AUX)
    Blend: AUG-CC-PVTZ-JKFIT

    Orbital Energies [Eh]
    ---------------------

    Doubly Occupied:

       1A    -20.627446     2A    -20.627440     3A    -20.564316
       4A    -20.564313     5A    -11.407747     6A    -11.407740
       7A    -11.287982     8A     -1.474876     9A     -1.469081
      10A     -1.373128    11A     -1.366409    12A     -1.082882
      13A     -0.892855    14A     -0.796642    15A     -0.727020
      16A     -0.712540    17A     -0.690770    18A     -0.687885
      19A     -0.678800    20A     -0.633801    21A     -0.600210
      22A     -0.594753    23A     -0.574325    24A     -0.496484
      25A     -0.490443    26A     -0.476802    27A     -0.456696

  @DF-RHF Final Energy:  -415.57840838002835

   => Energetics <=

    Nuclear Repulsion Energy =            297.0077322383426122
    One-Electron Energy =               -1159.6455098002168143
    Two-Electron Energy =                 447.0593691818457955
    Total Energy =                       -415.5784083800283497
  Basis Set: (AUG-CC-PVTZ AUX)
    Blend: AUG-CC-PVTZ-RI
    Molecular point group: c1

    Geometry (in Angstrom), charge = 0, multiplicity = 1:

       Center              X                  Y                   Z               Mass
    ------------   -----------------  -----------------  -----------------  -----------------
         O            2.331703605278    -0.850965829971    -0.000991930534    15.994914619570
         O           -2.331702394722    -0.850968829971     0.001366069466    15.994914619570
         O            1.426661605278     1.229009170029     0.002338069466    15.994914619570
         O           -1.426672394722     1.229007170029    -0.001462930534    15.994914619570
         C            0.000004605278    -0.770549829971     0.000895069466    12.000000000000
         C            1.284052605278     0.024162170029     0.000827069466    12.000000000000
         C           -1.284043394722     0.024171170029     0.000137069466    12.000000000000
         H            0.000200705278    -1.376920429971    -0.911385430534     1.007825032230
         H           -0.000189394722    -1.438083829971     0.869435069466     1.007825032230
         H            3.136748605278    -0.292608829971    -0.000703930534     1.007825032230
         H           -3.136772394722    -0.292643829971     0.000690069466     1.007825032230

  Basis Set: AUG-CC-PVTZ
    Blend: AUG-CC-PVTZ
  Basis Set: (AUG-CC-PVTZ AUX)
    Blend: AUG-CC-PVTZ-JKFIT
	 Reference Energy          =    -415.5784083800283497 [Eh]
	 Singles Energy            =      -0.0000000000000000 [Eh]
	 Same-Spin Energy          =      -0.3933964503060643 [Eh]
	 Opposite-Spin Energy      =      -1.1655258873771865 [Eh]
	 Correlation Energy        =      -1.5589223376832508 [Eh]
	 Total Energy              =    -417.1373307177116203 [Eh]

	 ================> DF-SCS-MP2 Energies <==================
	-----------------------------------------------------------
	 SCS Same-Spin Scale       =       0.3333333333333333 [-]
	 SCS Opposite-Spin Scale   =       1.2000000000000000 [-]
	 SCS Same-Spin Energy      =      -0.1311321501020214 [Eh]
	 SCS Opposite-Spin Energy  =      -1.3986310648526239 [Eh]
	 SCS Correlation Energy    =      -1.5297632149546454 [Eh]
	 SCS Total Energy          =    -417.1081715949829913 [Eh]
	-----------------------------------------------------------

  Dipole Moment: [D]
     X:     0.0001      Y:    -2.7534      Z:    -0.0150     Total:     2.7534

*** Psi4 exiting successfully. Buy a developer a beer!
