                               Psi4 1.3.2 release

  ==> Input File <==

--------------------------------------------------------------------------
#psi4
#
memory 32 gb

molecule  {
0 1
  O        2.3317040    -0.8186130    -0.0014310
  O       -2.3317020    -0.8186160     0.0009270
  O        1.4266620     1.2613620     0.0018990
  O       -1.4266720     1.2613600    -0.0019020
  C        0.0000050    -0.7381970     0.0004560
  C        1.2699878     0.0788037     0.0003726
  C       -1.2840430     0.0565240    -0.0003020
  H        0.0001910    -1.4067280    -0.8673040
  H       -0.0001890    -1.4057310     0.8689960
  H        3.1367490    -0.2602560    -0.0011430
  H       -3.1367720    -0.2602910     0.0002510
units angstrom
no_reorient  #important for SAPT in psi4, default
symmetry c1  #important for SAPT in psi4, default
}

set PROPERTIES_ORIGIN ["COM"]
properties('MP2/aug-cc-pvtz', properties = ['dipole'])
--------------------------------------------------------------------------

    Molecular point group: c1
  Charge       = 0
  Multiplicity = 1
  Basis Set: AUG-CC-PVTZ
    Blend: AUG-CC-PVTZ
  Basis Set: (AUG-CC-PVTZ AUX)
    Blend: AUG-CC-PVTZ-JKFIT

    Orbital Energies [Eh]
    ---------------------

    Doubly Occupied:

       1A    -20.627694     2A    -20.619995     3A    -20.569397
       4A    -20.565520     5A    -11.408521     6A    -11.406924
       7A    -11.288028     8A     -1.474618     9A     -1.467354
      10A     -1.376197    11A     -1.369257    12A     -1.082700
      13A     -0.888994    14A     -0.792246    15A     -0.730085
      16A     -0.712532    17A     -0.690196    18A     -0.686545
      19A     -0.677671    20A     -0.631790    21A     -0.606232
      22A     -0.595585    23A     -0.568709    24A     -0.501153
      25A     -0.493017    26A     -0.480493    27A     -0.457630

  @DF-RHF Final Energy:  -415.57890396021600

   => Energetics <=

    Nuclear Repulsion Energy =            297.0672957402039742
    One-Electron Energy =               -1159.7542272540508748
    Two-Electron Energy =                 447.1080275536309614
    Total Energy =                       -415.5789039602159960
  Basis Set: (AUG-CC-PVTZ AUX)
    Blend: AUG-CC-PVTZ-RI
    Molecular point group: c1

    Geometry (in Angstrom), charge = 0, multiplicity = 1:

       Center              X                  Y                   Z               Mass
    ------------   -----------------  -----------------  -----------------  -----------------
         O            2.333326439846    -0.852935022407    -0.001421539827    15.994914619570
         O           -2.330079560154    -0.852938022407     0.000936460173    15.994914619570
         O            1.428284439846     1.227039977593     0.001908460173    15.994914619570
         O           -1.425049560154     1.227037977593    -0.001892539827    15.994914619570
         C            0.001627439846    -0.772519022407     0.000465460173    12.000000000000
         C            1.271610239846     0.044481677593     0.000382060173    12.000000000000
         C           -1.282420560154     0.022201977593    -0.000292539827    12.000000000000
         H            0.001813439846    -1.441050022407    -0.867294539827     1.007825032230
         H            0.001433439846    -1.440053022407     0.869005460173     1.007825032230
         H            3.138371439846    -0.294578022407    -0.001133539827     1.007825032230
         H           -3.135149560154    -0.294613022407     0.000260460173     1.007825032230

  Basis Set: AUG-CC-PVTZ
    Blend: AUG-CC-PVTZ
  Basis Set: (AUG-CC-PVTZ AUX)
    Blend: AUG-CC-PVTZ-JKFIT
	 Reference Energy          =    -415.5789039602159960 [Eh]
	 Singles Energy            =      -0.0000000000000000 [Eh]
	 Same-Spin Energy          =      -0.3931679319077716 [Eh]
	 Opposite-Spin Energy      =      -1.1651190568621188 [Eh]
	 Correlation Energy        =      -1.5582869887698902 [Eh]
	 Total Energy              =    -417.1371909489859036 [Eh]

	 ================> DF-SCS-MP2 Energies <==================
	-----------------------------------------------------------
	 SCS Same-Spin Scale       =       0.3333333333333333 [-]
	 SCS Opposite-Spin Scale   =       1.2000000000000000 [-]
	 SCS Same-Spin Energy      =      -0.1310559773025905 [Eh]
	 SCS Opposite-Spin Energy  =      -1.3981428682345425 [Eh]
	 SCS Correlation Energy    =      -1.5291988455371330 [Eh]
	 SCS Total Energy          =    -417.1081028057531057 [Eh]
	-----------------------------------------------------------

  Dipole Moment: [D]
     X:    -0.1355      Y:    -2.6135      Z:     0.0006     Total:     2.6170

*** Psi4 exiting successfully. Buy a developer a beer!
