                               Psi4 1.4a3.dev225

  ==> Input File <==

--------------------------------------------------------------------------
#psi4
#
memory 32 gb

molecule  {
0 1
  O       -1.5693130     0.6792620     0.9775650
  O        2.3881200    -0.4231710     0.2741620
  O       -1.9867550    -0.4638000    -0.9394160
  O        1.0534040     1.1518790    -0.6703260
  C        0.0711740    -0.8607350     0.2805240
  C       -1.2841192    -0.2130797     0.0063872
  C        1.1867570     0.0868330    -0.0975870
  H        0.1681380    -1.1264420     1.3368470
  H        0.1588640    -1.7718550    -0.3168650
  H       -2.4173420     1.0883610     0.7068920
  H        3.0573020     0.2293680    -0.0202400
units angstrom
no_reorient  #important for SAPT in psi4, default
symmetry c1  #important for SAPT in psi4, default
}

set PROPERTIES_ORIGIN ["COM"]
properties('MP2/aug-cc-pvtz', properties = ['dipole'])
--------------------------------------------------------------------------

    Molecular point group: c1
  Charge       = 0
  Multiplicity = 1
  Basis Set: AUG-CC-PVTZ
    Blend: AUG-CC-PVTZ
  Basis Set: (AUG-CC-PVTZ AUX)
    Blend: AUG-CC-PVTZ-JKFIT

    Orbital Energies [Eh]
    ---------------------

    Doubly Occupied:

       1A    -20.634409     2A    -20.628063     3A    -20.571188
       4A    -20.565643     5A    -11.415173     6A    -11.405552
       7A    -11.282616     8A     -1.482115     9A     -1.474683
      10A     -1.377801    11A     -1.377478    12A     -1.077520
      13A     -0.885236    14A     -0.810551    15A     -0.726154
      16A     -0.721264    17A     -0.714939    18A     -0.687352
      19A     -0.663364    20A     -0.636913    21A     -0.596755
      22A     -0.592438    23A     -0.579708    24A     -0.504151
      25A     -0.493991    26A     -0.475785    27A     -0.468007

  @DF-RHF Final Energy:  -415.58625372108941

   => Energetics <=

    Nuclear Repulsion Energy =            300.2962849027681500
    One-Electron Energy =               -1166.0673729194343196
    Two-Electron Energy =                 450.1848342955768203
    Total Energy =                       -415.5862537210894061
  Basis Set: (AUG-CC-PVTZ AUX)
    Blend: AUG-CC-PVTZ-RI
    Molecular point group: c1

    Geometry (in Angstrom), charge = 0, multiplicity = 1:

       Center              X                  Y                   Z               Mass
    ------------   -----------------  -----------------  -----------------  -----------------
         O           -1.558046385337     0.663252127933     0.994241516731    15.994914619570
         O            2.399386614663    -0.439180872067     0.290838516731    15.994914619570
         O           -1.975488385337    -0.479809872067    -0.922739483269    15.994914619570
         O            1.064670614663     1.135869127933    -0.653649483269    15.994914619570
         C            0.082440614663    -0.876744872067     0.297200516731    12.000000000000
         C           -1.272852585337    -0.229089572067     0.023063716731    12.000000000000
         C            1.198023614663     0.070823127933    -0.080910483269    12.000000000000
         H            0.179404614663    -1.142451872067     1.353523516731     1.007825032230
         H            0.170130614663    -1.787864872067    -0.300188483269     1.007825032230
         H           -2.406075385337     1.072351127933     0.723568516731     1.007825032230
         H            3.068568614663     0.213358127933    -0.003563483269     1.007825032230

  Basis Set: AUG-CC-PVTZ
    Blend: AUG-CC-PVTZ
  Basis Set: (AUG-CC-PVTZ AUX)
    Blend: AUG-CC-PVTZ-JKFIT
	 Reference Energy          =    -415.5862537210894061 [Eh]
	 Singles Energy            =      -0.0000000000000000 [Eh]
	 Same-Spin Energy          =      -0.3926809354077708 [Eh]
	 Opposite-Spin Energy      =      -1.1638050253955130 [Eh]
	 Correlation Energy        =      -1.5564859608032839 [Eh]
	 Total Energy              =    -417.1427396818926923 [Eh]

	 ================> DF-SCS-MP2 Energies <==================
	-----------------------------------------------------------
	 SCS Same-Spin Scale       =       0.3333333333333333 [-]
	 SCS Opposite-Spin Scale   =       1.2000000000000000 [-]
	 SCS Same-Spin Energy      =      -0.1308936451359236 [Eh]
	 SCS Opposite-Spin Energy  =      -1.3965660304746155 [Eh]
	 SCS Correlation Energy    =      -1.5274596756105390 [Eh]
	 SCS Total Energy          =    -417.1137133966999500 [Eh]
	-----------------------------------------------------------

  Dipole Moment: [D]
     X:     1.1230      Y:    -0.6450      Z:     1.8515     Total:     2.2595

*** Psi4 exiting successfully. Buy a developer a beer!
