                               Psi4 1.3.2 release

  ==> Input File <==

--------------------------------------------------------------------------
#psi4
#
memory 32 gb

molecule  {
0 1
  O        2.3317040    -0.8186130    -0.0014310
  O       -2.3317020    -0.8186160     0.0009270
  O        1.4266620     1.2613620     0.0018990
  O       -1.4266720     1.2613600    -0.0019020
  C        0.0000050    -0.7381970     0.0004560
  C        1.2314983     0.1257221     0.1324196
  C       -1.2840430     0.0565240    -0.0003020
  H        0.0001910    -1.4067280    -0.8673040
  H       -0.0001890    -1.4057310     0.8689960
  H        3.1367490    -0.2602560    -0.0011430
  H       -3.1367720    -0.2602910     0.0002510
units angstrom
no_reorient  #important for SAPT in psi4, default
symmetry c1  #important for SAPT in psi4, default
}

set PROPERTIES_ORIGIN ["COM"]
properties('MP2/aug-cc-pvtz', properties = ['dipole'])
--------------------------------------------------------------------------

    Molecular point group: c1
  Charge       = 0
  Multiplicity = 1
  Basis Set: AUG-CC-PVTZ
    Blend: AUG-CC-PVTZ
  Basis Set: (AUG-CC-PVTZ AUX)
    Blend: AUG-CC-PVTZ-JKFIT

    Orbital Energies [Eh]
    ---------------------

    Doubly Occupied:

       1A    -20.628939     2A    -20.601610     3A    -20.581793
       4A    -20.568302     5A    -11.409967     6A    -11.407227
       7A    -11.290961     8A     -1.479550     9A     -1.471684
      10A     -1.373522    11A     -1.363152    12A     -1.084703
      13A     -0.882471    14A     -0.782786    15A     -0.733111
      16A     -0.714747    17A     -0.691585    18A     -0.686320
      19A     -0.673101    20A     -0.629217    21A     -0.612284
      22A     -0.595517    23A     -0.565375    24A     -0.505876
      25A     -0.495771    26A     -0.483144    27A     -0.457292

  @DF-RHF Final Energy:  -415.56369053733130

   => Energetics <=

    Nuclear Repulsion Energy =            297.0904343121924853
    One-Electron Energy =               -1159.7682350924292223
    Two-Electron Energy =                 447.1141102429054968
    Total Energy =                       -415.5636905373312970
  Basis Set: (AUG-CC-PVTZ AUX)
    Blend: AUG-CC-PVTZ-RI
    Molecular point group: c1

    Geometry (in Angstrom), charge = 0, multiplicity = 1:

       Center              X                  Y                   Z               Mass
    ------------   -----------------  -----------------  -----------------  -----------------
         O            2.337767068085    -0.858348113561    -0.016656126847    15.994914619570
         O           -2.325638931915    -0.858351113561    -0.014298126847    15.994914619570
         O            1.432725068085     1.221626886439    -0.013326126847    15.994914619570
         O           -1.420608931915     1.221624886439    -0.017127126847    15.994914619570
         C            0.006068068085    -0.777932113561    -0.014769126847    12.000000000000
         C            1.237561368085     0.085986986439     0.117194473153    12.000000000000
         C           -1.277979931915     0.016788886439    -0.015527126847    12.000000000000
         H            0.006254068085    -1.446463113561    -0.882529126847     1.007825032230
         H            0.005874068085    -1.445466113561     0.853770873153     1.007825032230
         H            3.142812068085    -0.299991113561    -0.016368126847     1.007825032230
         H           -3.130708931915    -0.300026113561    -0.014974126847     1.007825032230

  Basis Set: AUG-CC-PVTZ
    Blend: AUG-CC-PVTZ
  Basis Set: (AUG-CC-PVTZ AUX)
    Blend: AUG-CC-PVTZ-JKFIT
	 Reference Energy          =    -415.5636905373312970 [Eh]
	 Singles Energy            =      -0.0000000000000000 [Eh]
	 Same-Spin Energy          =      -0.3933706684508794 [Eh]
	 Opposite-Spin Energy      =      -1.1662776959378838 [Eh]
	 Correlation Energy        =      -1.5596483643887633 [Eh]
	 Total Energy              =    -417.1233389017200466 [Eh]

	 ================> DF-SCS-MP2 Energies <==================
	-----------------------------------------------------------
	 SCS Same-Spin Scale       =       0.3333333333333333 [-]
	 SCS Opposite-Spin Scale   =       1.2000000000000000 [-]
	 SCS Same-Spin Energy      =      -0.1311235561502931 [Eh]
	 SCS Opposite-Spin Energy  =      -1.3995332351254606 [Eh]
	 SCS Correlation Energy    =      -1.5306567912757538 [Eh]
	 SCS Total Energy          =    -417.0943473286070571 [Eh]
	-----------------------------------------------------------

  Dipole Moment: [D]
     X:    -0.5093      Y:    -2.2035      Z:     0.1631     Total:     2.2674

*** Psi4 exiting successfully. Buy a developer a beer!
