                               Psi4 1.3.2 release

  ==> Input File <==

--------------------------------------------------------------------------
#psi4
#
memory 32 gb

molecule  {
0 1
  O        2.3317040    -0.8186130    -0.0014310
  O       -2.3317020    -0.8186160     0.0009270
  O        1.4266620     1.2613620     0.0018990
  O       -1.4266720     1.2613600    -0.0019020
  C        0.0000050    -0.7381970     0.0004560
  C        1.2840530     0.0565150     0.0003880
  C       -1.2840430     0.0565240    -0.0003020
  H        0.0002058    -1.3123601    -0.9324308
  H       -0.0001890    -1.4057310     0.8689960
  H        3.1367490    -0.2602560    -0.0011430
  H       -3.1367720    -0.2602910     0.0002510
units angstrom
no_reorient  #important for SAPT in psi4, default
symmetry c1  #important for SAPT in psi4, default
}

set PROPERTIES_ORIGIN ["COM"]
properties('MP2/aug-cc-pvtz', properties = ['dipole'])
--------------------------------------------------------------------------

    Molecular point group: c1
  Charge       = 0
  Multiplicity = 1
  Basis Set: AUG-CC-PVTZ
    Blend: AUG-CC-PVTZ
  Basis Set: (AUG-CC-PVTZ AUX)
    Blend: AUG-CC-PVTZ-JKFIT

    Orbital Energies [Eh]
    ---------------------

    Doubly Occupied:

       1A    -20.627485     2A    -20.627479     3A    -20.564185
       4A    -20.564182     5A    -11.407555     6A    -11.407549
       7A    -11.288142     8A     -1.474878     9A     -1.469075
      10A     -1.373071    11A     -1.366346    12A     -1.083207
      13A     -0.892910    14A     -0.796445    15A     -0.726293
      16A     -0.712494    17A     -0.692743    18A     -0.686687
      19A     -0.678769    20A     -0.633837    21A     -0.599282
      22A     -0.594760    23A     -0.576012    24A     -0.496525
      25A     -0.490411    26A     -0.475940    27A     -0.456648

  @DF-RHF Final Energy:  -415.57786450915006

   => Energetics <=

    Nuclear Repulsion Energy =            297.0390787563235904
    One-Electron Energy =               -1159.7080637724445751
    Two-Electron Energy =                 447.0911205069709808
    Total Energy =                       -415.5778645091500607
  Basis Set: (AUG-CC-PVTZ AUX)
    Blend: AUG-CC-PVTZ-RI
    Molecular point group: c1

    Geometry (in Angstrom), charge = 0, multiplicity = 1:

       Center              X                  Y                   Z               Mass
    ------------   -----------------  -----------------  -----------------  -----------------
         O            2.331703559737    -0.851277907902    -0.000792263641    15.994914619570
         O           -2.331702440263    -0.851280907902     0.001565736359    15.994914619570
         O            1.426661559737     1.228697092098     0.002537736359    15.994914619570
         O           -1.426672440263     1.228695092098    -0.001263263641    15.994914619570
         C            0.000004559737    -0.770861907902     0.001094736359    12.000000000000
         C            1.284052559737     0.023850092098     0.001026736359    12.000000000000
         C           -1.284043440263     0.023859092098     0.000336736359    12.000000000000
         H            0.000205359737    -1.345025007902    -0.931792063641     1.007825032230
         H           -0.000189440263    -1.438395907902     0.869634736359     1.007825032230
         H            3.136748559737    -0.292920907902    -0.000504263641     1.007825032230
         H           -3.136772440263    -0.292955907902     0.000889736359     1.007825032230

  Basis Set: AUG-CC-PVTZ
    Blend: AUG-CC-PVTZ
  Basis Set: (AUG-CC-PVTZ AUX)
    Blend: AUG-CC-PVTZ-JKFIT
	 Reference Energy          =    -415.5778645091500607 [Eh]
	 Singles Energy            =      -0.0000000000000000 [Eh]
	 Same-Spin Energy          =      -0.3934003619717660 [Eh]
	 Opposite-Spin Energy      =      -1.1655573642984347 [Eh]
	 Correlation Energy        =      -1.5589577262702008 [Eh]
	 Total Energy              =    -417.1368222354202544 [Eh]

	 ================> DF-SCS-MP2 Energies <==================
	-----------------------------------------------------------
	 SCS Same-Spin Scale       =       0.3333333333333333 [-]
	 SCS Opposite-Spin Scale   =       1.2000000000000000 [-]
	 SCS Same-Spin Energy      =      -0.1311334539905887 [Eh]
	 SCS Opposite-Spin Energy  =      -1.3986688371581215 [Eh]
	 SCS Correlation Energy    =      -1.5298022911487101 [Eh]
	 SCS Total Energy          =    -417.1076668002987731 [Eh]
	-----------------------------------------------------------

  Dipole Moment: [D]
     X:     0.0001      Y:    -2.7364      Z:    -0.0212     Total:     2.7365

*** Psi4 exiting successfully. Buy a developer a beer!
