                               Psi4 1.4a3.dev225

  ==> Input File <==

--------------------------------------------------------------------------
#psi4
#
memory 32 gb

molecule  {
0 1
  O       -1.5693130     0.6792620     0.9775650
  O        2.3881200    -0.4231710     0.2741620
  O       -1.9867550    -0.4638000    -0.9394160
  O        1.0534040     1.1518790    -0.6703260
  C        0.0711740    -0.8607350     0.2805240
  C       -1.2663670    -0.2215630     0.0099780
  C        1.1867570     0.0868330    -0.0975870
  H        0.1699114    -1.1313016     1.3561664
  H        0.1588640    -1.7718550    -0.3168650
  H       -2.4173420     1.0883610     0.7068920
  H        3.0573020     0.2293680    -0.0202400
units angstrom
no_reorient  #important for SAPT in psi4, default
symmetry c1  #important for SAPT in psi4, default
}

set PROPERTIES_ORIGIN ["COM"]
properties('MP2/aug-cc-pvtz', properties = ['dipole'])
--------------------------------------------------------------------------

    Molecular point group: c1
  Charge       = 0
  Multiplicity = 1
  Basis Set: AUG-CC-PVTZ
    Blend: AUG-CC-PVTZ
  Basis Set: (AUG-CC-PVTZ AUX)
    Blend: AUG-CC-PVTZ-JKFIT

    Orbital Energies [Eh]
    ---------------------

    Doubly Occupied:

       1A    -20.635517     2A    -20.626167     3A    -20.572568
       4A    -20.564926     5A    -11.416917     6A    -11.406896
       7A    -11.286189     8A     -1.481992     9A     -1.470638
      10A     -1.378784    11A     -1.370123    12A     -1.081837
      13A     -0.887320    14A     -0.810103    15A     -0.726986
      16A     -0.719619    17A     -0.715567    18A     -0.684773
      19A     -0.663506    20A     -0.634663    21A     -0.595551
      22A     -0.591784    23A     -0.580525    24A     -0.503709
      25A     -0.491873    26A     -0.476641    27A     -0.468629

  @DF-RHF Final Energy:  -415.58466573178970

   => Energetics <=

    Nuclear Repulsion Energy =            300.1973574812590755
    One-Electron Energy =               -1165.8764402780968794
    Two-Electron Energy =                 450.0944170650480487
    Total Energy =                       -415.5846657317896984
  Basis Set: (AUG-CC-PVTZ AUX)
    Blend: AUG-CC-PVTZ-RI
    Molecular point group: c1

    Geometry (in Angstrom), charge = 0, multiplicity = 1:

       Center              X                  Y                   Z               Mass
    ------------   -----------------  -----------------  -----------------  -----------------
         O           -1.560111683838     0.664277954711     0.993640039966    15.994914619570
         O            2.397321316162    -0.438155045289     0.290237039966    15.994914619570
         O           -1.977553683838    -0.478784045289    -0.923340960034    15.994914619570
         O            1.062605316162     1.136894954711    -0.654250960034    15.994914619570
         C            0.080375316162    -0.875719045289     0.296599039966    12.000000000000
         C           -1.257165683838    -0.236547045289     0.026053039966    12.000000000000
         C            1.195958316162     0.071848954711    -0.081511960034    12.000000000000
         H            0.179112716162    -1.146285645289     1.372241439966     1.007825032230
         H            0.168065316162    -1.786839045289    -0.300789960034     1.007825032230
         H           -2.408140683838     1.073376954711     0.722967039966     1.007825032230
         H            3.066503316162     0.214383954711    -0.004164960034     1.007825032230

  Basis Set: AUG-CC-PVTZ
    Blend: AUG-CC-PVTZ
  Basis Set: (AUG-CC-PVTZ AUX)
    Blend: AUG-CC-PVTZ-JKFIT
	 Reference Energy          =    -415.5846657317896984 [Eh]
	 Singles Energy            =      -0.0000000000000000 [Eh]
	 Same-Spin Energy          =      -0.3930896838528130 [Eh]
	 Opposite-Spin Energy      =      -1.1647602027412347 [Eh]
	 Correlation Energy        =      -1.5578498865940478 [Eh]
	 Total Energy              =    -417.1425156183837544 [Eh]

	 ================> DF-SCS-MP2 Energies <==================
	-----------------------------------------------------------
	 SCS Same-Spin Scale       =       0.3333333333333333 [-]
	 SCS Opposite-Spin Scale   =       1.2000000000000000 [-]
	 SCS Same-Spin Energy      =      -0.1310298946176043 [Eh]
	 SCS Opposite-Spin Energy  =      -1.3977122432894815 [Eh]
	 SCS Correlation Energy    =      -1.5287421379070858 [Eh]
	 SCS Total Energy          =    -417.1134078696968004 [Eh]
	-----------------------------------------------------------

  Dipole Moment: [D]
     X:     1.2361      Y:    -0.6829      Z:     1.8626     Total:     2.3375

*** Psi4 exiting successfully. Buy a developer a beer!
