                               Psi4 1.3.2 release

  ==> Input File <==

--------------------------------------------------------------------------
#psi4
#
memory 32 gb

molecule  {
0 1
  O        2.3317040    -0.8186130    -0.0014310
  O       -2.3317020    -0.8186160     0.0009270
  O        1.4266620     1.2613620     0.0018990
  O       -1.4266720     1.2613600    -0.0019020
  C        0.0000050    -0.7381970     0.0004560
  C        1.2505473     0.1036694     0.0884984
  C       -1.2840430     0.0565240    -0.0003020
  H        0.0001910    -1.4067280    -0.8673040
  H       -0.0001890    -1.4057310     0.8689960
  H        3.1367490    -0.2602560    -0.0011430
  H       -3.1367720    -0.2602910     0.0002510
units angstrom
no_reorient  #important for SAPT in psi4, default
symmetry c1  #important for SAPT in psi4, default
}

set PROPERTIES_ORIGIN ["COM"]
properties('MP2/aug-cc-pvtz', properties = ['dipole'])
--------------------------------------------------------------------------

    Molecular point group: c1
  Charge       = 0
  Multiplicity = 1
  Basis Set: AUG-CC-PVTZ
    Blend: AUG-CC-PVTZ
  Basis Set: (AUG-CC-PVTZ AUX)
    Blend: AUG-CC-PVTZ-JKFIT

    Orbital Energies [Eh]
    ---------------------

    Doubly Occupied:

       1A    -20.628280     2A    -20.610558     3A    -20.575800
       4A    -20.566903     5A    -11.409196     6A    -11.406781
       7A    -11.289300     8A     -1.476063     9A     -1.468469
      10A     -1.373988    11A     -1.369609    12A     -1.083580
      13A     -0.885214    14A     -0.786774    15A     -0.731776
      16A     -0.713317    17A     -0.690479    18A     -0.686484
      19A     -0.675236    20A     -0.629957    21A     -0.610029
      22A     -0.595711    23A     -0.566600    24A     -0.504903
      25A     -0.494596    26A     -0.482223    27A     -0.457855

  @DF-RHF Final Energy:  -415.57258394860440

   => Energetics <=

    Nuclear Repulsion Energy =            297.0948814944856053
    One-Electron Energy =               -1159.7955733067085475
    Two-Electron Energy =                 447.1281078636184816
    Total Energy =                       -415.5725839486044038
  Basis Set: (AUG-CC-PVTZ AUX)
    Blend: AUG-CC-PVTZ-RI
    Molecular point group: c1

    Geometry (in Angstrom), charge = 0, multiplicity = 1:

       Center              X                  Y                   Z               Mass
    ------------   -----------------  -----------------  -----------------  -----------------
         O            2.335569338124    -0.855803839347    -0.011588830025    15.994914619570
         O           -2.327836661876    -0.855806839347    -0.009230830025    15.994914619570
         O            1.430527338124     1.224171160653    -0.008258830025    15.994914619570
         O           -1.422806661876     1.224169160653    -0.012059830025    15.994914619570
         C            0.003870338124    -0.775387839347    -0.009701830025    12.000000000000
         C            1.254412638124     0.066478560653     0.078340569975    12.000000000000
         C           -1.280177661876     0.019333160653    -0.010459830025    12.000000000000
         H            0.004056338124    -1.443918839347    -0.877461830025     1.007825032230
         H            0.003676338124    -1.442921839347     0.858838169975     1.007825032230
         H            3.140614338124    -0.297446839347    -0.011300830025     1.007825032230
         H           -3.132906661876    -0.297481839347    -0.009906830025     1.007825032230

  Basis Set: AUG-CC-PVTZ
    Blend: AUG-CC-PVTZ
  Basis Set: (AUG-CC-PVTZ AUX)
    Blend: AUG-CC-PVTZ-JKFIT
	 Reference Energy          =    -415.5725839486044038 [Eh]
	 Singles Energy            =      -0.0000000000000000 [Eh]
	 Same-Spin Energy          =      -0.3931953555620397 [Eh]
	 Opposite-Spin Energy      =      -1.1655317743928346 [Eh]
	 Correlation Energy        =      -1.5587271299548742 [Eh]
	 Total Energy              =    -417.1313110785592926 [Eh]

	 ================> DF-SCS-MP2 Energies <==================
	-----------------------------------------------------------
	 SCS Same-Spin Scale       =       0.3333333333333333 [-]
	 SCS Opposite-Spin Scale   =       1.2000000000000000 [-]
	 SCS Same-Spin Energy      =      -0.1310651185206799 [Eh]
	 SCS Opposite-Spin Energy  =      -1.3986381292714014 [Eh]
	 SCS Correlation Energy    =      -1.5297032477920813 [Eh]
	 SCS Total Energy          =    -417.1022871963965031 [Eh]
	-----------------------------------------------------------

  Dipole Moment: [D]
     X:    -0.3237      Y:    -2.3992      Z:     0.1057     Total:     2.4232

*** Psi4 exiting successfully. Buy a developer a beer!
