                               Psi4 1.3.2 release

  ==> Input File <==

--------------------------------------------------------------------------
#psi4
#
memory 32 gb

molecule  {
0 1
  O        2.3317040    -0.8186130    -0.0014310
  O       -2.3317020    -0.8186160     0.0009270
  O        1.4266620     1.2613620     0.0018990
  O       -1.4266720     1.2613600    -0.0019020
  C        0.0000050    -0.7381970     0.0004560
  C        1.2680726     0.0805910     0.0444700
  C       -1.2840430     0.0565240    -0.0003020
  H        0.0001910    -1.4067280    -0.8673040
  H       -0.0001890    -1.4057310     0.8689960
  H        3.1367490    -0.2602560    -0.0011430
  H       -3.1367720    -0.2602910     0.0002510
units angstrom
no_reorient  #important for SAPT in psi4, default
symmetry c1  #important for SAPT in psi4, default
}

set PROPERTIES_ORIGIN ["COM"]
properties('MP2/aug-cc-pvtz', properties = ['dipole'])
--------------------------------------------------------------------------

    Molecular point group: c1
  Charge       = 0
  Multiplicity = 1
  Basis Set: AUG-CC-PVTZ
    Blend: AUG-CC-PVTZ
  Basis Set: (AUG-CC-PVTZ AUX)
    Blend: AUG-CC-PVTZ-JKFIT

    Orbital Energies [Eh]
    ---------------------

    Doubly Occupied:

       1A    -20.627758     2A    -20.619165     3A    -20.570055
       4A    -20.565651     5A    -11.408598     6A    -11.407122
       7A    -11.288225     8A     -1.474581     9A     -1.466978
      10A     -1.375855    11A     -1.369290    12A     -1.082813
      13A     -0.888649    14A     -0.791692    15A     -0.730210
      16A     -0.712498    17A     -0.690154    18A     -0.686552
      19A     -0.677234    20A     -0.631461    21A     -0.606494
      22A     -0.595657    23A     -0.568364    24A     -0.501316
      25A     -0.493139    26A     -0.480642    27A     -0.457647

  @DF-RHF Final Energy:  -415.57775385834861

   => Energetics <=

    Nuclear Repulsion Energy =            297.0467631234884607
    One-Electron Energy =               -1159.7134331923844002
    Two-Electron Energy =                 447.0889162105472678
    Total Energy =                       -415.5777538583486148
  Basis Set: (AUG-CC-PVTZ AUX)
    Blend: AUG-CC-PVTZ-RI
    Molecular point group: c1

    Geometry (in Angstrom), charge = 0, multiplicity = 1:

       Center              X                  Y                   Z               Mass
    ------------   -----------------  -----------------  -----------------  -----------------
         O            2.333547401178    -0.853141227602    -0.006509165276    15.994914619570
         O           -2.329858598822    -0.853144227602    -0.004151165276    15.994914619570
         O            1.428505401178     1.226833772398    -0.003179165276    15.994914619570
         O           -1.424828598822     1.226831772398    -0.006980165276    15.994914619570
         C            0.001848401178    -0.772725227602    -0.004622165276    12.000000000000
         C            1.269916001178     0.046062772398     0.039391834724    12.000000000000
         C           -1.282199598822     0.021995772398    -0.005380165276    12.000000000000
         H            0.002034401178    -1.441256227602    -0.872382165276     1.007825032230
         H            0.001654401178    -1.440259227602     0.863917834724     1.007825032230
         H            3.138592401178    -0.294784227602    -0.006221165276     1.007825032230
         H           -3.134928598822    -0.294819227602    -0.004827165276     1.007825032230

  Basis Set: AUG-CC-PVTZ
    Blend: AUG-CC-PVTZ
  Basis Set: (AUG-CC-PVTZ AUX)
    Blend: AUG-CC-PVTZ-JKFIT
	 Reference Energy          =    -415.5777538583486148 [Eh]
	 Singles Energy            =      -0.0000000000000000 [Eh]
	 Same-Spin Energy          =      -0.3932166720387166 [Eh]
	 Opposite-Spin Energy      =      -1.1652801063968083 [Eh]
	 Correlation Energy        =      -1.5584967784355248 [Eh]
	 Total Energy              =    -417.1362506367841547 [Eh]

	 ================> DF-SCS-MP2 Energies <==================
	-----------------------------------------------------------
	 SCS Same-Spin Scale       =       0.3333333333333333 [-]
	 SCS Opposite-Spin Scale   =       1.2000000000000000 [-]
	 SCS Same-Spin Energy      =      -0.1310722240129055 [Eh]
	 SCS Opposite-Spin Energy  =      -1.3983361276761699 [Eh]
	 SCS Correlation Energy    =      -1.5294083516890753 [Eh]
	 SCS Total Energy          =    -417.1071622100376999 [Eh]
	-----------------------------------------------------------

  Dipole Moment: [D]
     X:    -0.1535      Y:    -2.5951      Z:     0.0511     Total:     2.6001

*** Psi4 exiting successfully. Buy a developer a beer!
