                               Psi4 1.3.2 release

  ==> Input File <==

--------------------------------------------------------------------------
#psi4
#
memory 32 gb

molecule  {
0 1
  O        2.3317040    -0.8186130    -0.0014310
  O       -2.3317020    -0.8186160     0.0009270
  O        1.4266620     1.2613620     0.0018990
  O       -1.4266720     1.2613600    -0.0019020
  C        0.0000050    -0.7381970     0.0004560
  C        1.3110058     0.0112183     0.0004188
  C       -1.2840430     0.0565240    -0.0003020
  H        0.0001910    -1.4067280    -0.8673040
  H       -0.0001890    -1.4057310     0.8689960
  H        3.1367490    -0.2602560    -0.0011430
  H       -3.1367720    -0.2602910     0.0002510
units angstrom
no_reorient  #important for SAPT in psi4, default
symmetry c1  #important for SAPT in psi4, default
}

set PROPERTIES_ORIGIN ["COM"]
properties('MP2/aug-cc-pvtz', properties = ['dipole'])
--------------------------------------------------------------------------

    Molecular point group: c1
  Charge       = 0
  Multiplicity = 1
  Basis Set: AUG-CC-PVTZ
    Blend: AUG-CC-PVTZ
  Basis Set: (AUG-CC-PVTZ AUX)
    Blend: AUG-CC-PVTZ-JKFIT

    Orbital Energies [Eh]
    ---------------------

    Doubly Occupied:

       1A    -20.641598     2A    -20.626856     3A    -20.562765
       4A    -20.554415     5A    -11.410535     6A    -11.407624
       7A    -11.287599     8A     -1.490255     9A     -1.470713
      10A     -1.369071    11A     -1.348345    12A     -1.082190
      13A     -0.902014    14A     -0.807673    15A     -0.726875
      16A     -0.715994    17A     -0.690453    18A     -0.689544
      19A     -0.680915    20A     -0.639873    21A     -0.598871
      22A     -0.584674    23A     -0.574193    24A     -0.492197
      25A     -0.477373    26A     -0.473463    27A     -0.453450

  @DF-RHF Final Energy:  -415.57259756077053

   => Energetics <=

    Nuclear Repulsion Energy =            296.7645751606016802
    One-Electron Energy =               -1159.1552912668473709
    Two-Electron Energy =                 446.8181185454751585
    Total Energy =                       -415.5725975607705323
  Basis Set: (AUG-CC-PVTZ AUX)
    Blend: AUG-CC-PVTZ-RI
    Molecular point group: c1

    Geometry (in Angstrom), charge = 0, multiplicity = 1:

       Center              X                  Y                   Z               Mass
    ------------   -----------------  -----------------  -----------------  -----------------
         O            2.328594092345    -0.845137528653    -0.001426870034    15.994914619570
         O           -2.334811907655    -0.845140528653     0.000931129966    15.994914619570
         O            1.423552092345     1.234837471347     0.001903129966    15.994914619570
         O           -1.429781907655     1.234835471347    -0.001897870034    15.994914619570
         C           -0.003104907655    -0.764721528653     0.000460129966    12.000000000000
         C            1.307895892345    -0.015306228653     0.000422929966    12.000000000000
         C           -1.287152907655     0.029999471347    -0.000297870034    12.000000000000
         H           -0.002918907655    -1.433252528653    -0.867299870034     1.007825032230
         H           -0.003298907655    -1.432255528653     0.869000129966     1.007825032230
         H            3.133639092345    -0.286780528653    -0.001138870034     1.007825032230
         H           -3.139881907655    -0.286815528653     0.000255129966     1.007825032230

  Basis Set: AUG-CC-PVTZ
    Blend: AUG-CC-PVTZ
  Basis Set: (AUG-CC-PVTZ AUX)
    Blend: AUG-CC-PVTZ-JKFIT
	 Reference Energy          =    -415.5725975607705323 [Eh]
	 Singles Energy            =      -0.0000000000000000 [Eh]
	 Same-Spin Energy          =      -0.3940571282530229 [Eh]
	 Opposite-Spin Energy      =      -1.1664615908547433 [Eh]
	 Correlation Energy        =      -1.5605187191077663 [Eh]
	 Total Energy              =    -417.1331162798783225 [Eh]

	 ================> DF-SCS-MP2 Energies <==================
	-----------------------------------------------------------
	 SCS Same-Spin Scale       =       0.3333333333333333 [-]
	 SCS Opposite-Spin Scale   =       1.2000000000000000 [-]
	 SCS Same-Spin Energy      =      -0.1313523760843409 [Eh]
	 SCS Opposite-Spin Energy  =      -1.3997539090256919 [Eh]
	 SCS Correlation Energy    =      -1.5311062851100328 [Eh]
	 SCS Total Energy          =    -417.1037038458805455 [Eh]
	-----------------------------------------------------------

  Dipole Moment: [D]
     X:     0.2509      Y:    -3.1352      Z:    -0.0002     Total:     3.1452

*** Psi4 exiting successfully. Buy a developer a beer!
