                               Psi4 1.4a3.dev225

  ==> Input File <==

--------------------------------------------------------------------------
#psi4
#
memory 32 gb

molecule  {
0 1
  O       -1.5693130     0.6792620     0.9775650
  O        2.3881200    -0.4231710     0.2741620
  O       -1.9867550    -0.4638000    -0.9394160
  O        1.0534040     1.1518790    -0.6703260
  C        0.0711740    -0.8607350     0.2805240
  C       -1.2219865    -0.2427712     0.0189549
  C        1.1867570     0.0868330    -0.0975870
  H        0.1681380    -1.1264420     1.3368470
  H        0.1588640    -1.7718550    -0.3168650
  H       -2.4173420     1.0883610     0.7068920
  H        3.0573020     0.2293680    -0.0202400
units angstrom
no_reorient  #important for SAPT in psi4, default
symmetry c1  #important for SAPT in psi4, default
}

set PROPERTIES_ORIGIN ["COM"]
properties('MP2/aug-cc-pvtz', properties = ['dipole'])
--------------------------------------------------------------------------

    Molecular point group: c1
  Charge       = 0
  Multiplicity = 1
  Basis Set: AUG-CC-PVTZ
    Blend: AUG-CC-PVTZ
  Basis Set: (AUG-CC-PVTZ AUX)
    Blend: AUG-CC-PVTZ-JKFIT

    Orbital Energies [Eh]
    ---------------------

    Doubly Occupied:

       1A    -20.638502     2A    -20.621741     3A    -20.575779
       4A    -20.563141     5A    -11.421035     6A    -11.410379
       7A    -11.287127     8A     -1.484396     9A     -1.458043
      10A     -1.381841    11A     -1.351231    12A     -1.098468
      13A     -0.892908    14A     -0.810347    15A     -0.731377
      16A     -0.721981    17A     -0.714190    18A     -0.683905
      19A     -0.664936    20A     -0.630638    21A     -0.593951
      22A     -0.591814    23A     -0.584242    24A     -0.505026
      25A     -0.486961    26A     -0.476338    27A     -0.468246

  @DF-RHF Final Energy:  -415.57742831198448

   => Energetics <=

    Nuclear Repulsion Energy =            300.3122111815051198
    One-Electron Energy =               -1166.0821964149047290
    Two-Electron Energy =                 450.1925569214151892
    Total Energy =                       -415.5774283119844767
  Basis Set: (AUG-CC-PVTZ AUX)
    Blend: AUG-CC-PVTZ-RI
    Molecular point group: c1

    Geometry (in Angstrom), charge = 0, multiplicity = 1:

       Center              X                  Y                   Z               Mass
    ------------   -----------------  -----------------  -----------------  -----------------
         O           -1.565214787686     0.666677709283     0.992791550285    15.994914619570
         O            2.392218212314    -0.435755290717     0.289388550285    15.994914619570
         O           -1.982656787686    -0.476384290717    -0.924189449715    15.994914619570
         O            1.057502212314     1.139294709283    -0.655099449715    15.994914619570
         C            0.075272212314    -0.873319290717     0.295750550285    12.000000000000
         C           -1.217888287686    -0.255355490717     0.034181450285    12.000000000000
         C            1.190855212314     0.074248709283    -0.082360449715    12.000000000000
         H            0.172236212314    -1.139026290717     1.352073550285     1.007825032230
         H            0.162962212314    -1.784439290717    -0.301638449715     1.007825032230
         H           -2.413243787686     1.075776709283     0.722118550285     1.007825032230
         H            3.061400212314     0.216783709283    -0.005013449715     1.007825032230

  Basis Set: AUG-CC-PVTZ
    Blend: AUG-CC-PVTZ
  Basis Set: (AUG-CC-PVTZ AUX)
    Blend: AUG-CC-PVTZ-JKFIT
	 Reference Energy          =    -415.5774283119844767 [Eh]
	 Singles Energy            =      -0.0000000000000000 [Eh]
	 Same-Spin Energy          =      -0.3942573537233722 [Eh]
	 Opposite-Spin Energy      =      -1.1670936635684559 [Eh]
	 Correlation Energy        =      -1.5613510172918281 [Eh]
	 Total Energy              =    -417.1387793292763035 [Eh]

	 ================> DF-SCS-MP2 Energies <==================
	-----------------------------------------------------------
	 SCS Same-Spin Scale       =       0.3333333333333333 [-]
	 SCS Opposite-Spin Scale   =       1.2000000000000000 [-]
	 SCS Same-Spin Energy      =      -0.1314191179077907 [Eh]
	 SCS Opposite-Spin Energy  =      -1.4005123962821471 [Eh]
	 SCS Correlation Energy    =      -1.5319315141899379 [Eh]
	 SCS Total Energy          =    -417.1093598261743978 [Eh]
	-----------------------------------------------------------

  Dipole Moment: [D]
     X:     1.5110      Y:    -0.7792      Z:     1.8754     Total:     2.5313

*** Psi4 exiting successfully. Buy a developer a beer!
