                               Psi4 1.3.2 release

  ==> Input File <==

--------------------------------------------------------------------------
#psi4
#
memory 32 gb

molecule  {
0 1
  O        2.3317040    -0.8186130    -0.0014310
  O       -2.3317020    -0.8186160     0.0009270
  O        1.4266620     1.2613620     0.0018990
  O       -1.4266720     1.2613600    -0.0019020
  C        0.0000050    -0.7381970     0.0004560
  C        1.2762572     0.0686759     0.0224324
  C       -1.2840430     0.0565240    -0.0003020
  H        0.0001910    -1.4067280    -0.8673040
  H       -0.0001890    -1.4057310     0.8689960
  H        3.1367490    -0.2602560    -0.0011430
  H       -3.1367720    -0.2602910     0.0002510
units angstrom
no_reorient  #important for SAPT in psi4, default
symmetry c1  #important for SAPT in psi4, default
}

set PROPERTIES_ORIGIN ["COM"]
properties('MP2/aug-cc-pvtz', properties = ['dipole'])
--------------------------------------------------------------------------

    Molecular point group: c1
  Charge       = 0
  Multiplicity = 1
  Basis Set: AUG-CC-PVTZ
    Blend: AUG-CC-PVTZ
  Basis Set: (AUG-CC-PVTZ AUX)
    Blend: AUG-CC-PVTZ-JKFIT

    Orbital Energies [Eh]
    ---------------------

    Doubly Occupied:

       1A    -20.627547     2A    -20.623321     3A    -20.567270
       4A    -20.565079     5A    -11.408360     6A    -11.407561
       7A    -11.287901     8A     -1.474393     9A     -1.467683
      10A     -1.375026    11A     -1.368303    12A     -1.082560
      13A     -0.890624    14A     -0.794368    15A     -0.729417
      16A     -0.712425    17A     -0.690185    18A     -0.686667
      19A     -0.678115    20A     -0.632509    21A     -0.604323
      22A     -0.595402    23A     -0.569376    24A     -0.498817
      25A     -0.492127    26A     -0.479603    27A     -0.457290

  @DF-RHF Final Energy:  -415.57878938910591

   => Energetics <=

    Nuclear Repulsion Energy =            297.0041899990096681
    One-Electron Energy =               -1159.6334526761752386
    Two-Electron Energy =                 447.0504732880596634
    Total Energy =                       -415.5787893891059070
  Basis Set: (AUG-CC-PVTZ AUX)
    Blend: AUG-CC-PVTZ-RI
    Molecular point group: c1

    Geometry (in Angstrom), charge = 0, multiplicity = 1:

       Center              X                  Y                   Z               Mass
    ------------   -----------------  -----------------  -----------------  -----------------
         O            2.332603123755    -0.851766553222    -0.003966633186    15.994914619570
         O           -2.330802876245    -0.851769553222    -0.001608633186    15.994914619570
         O            1.427561123755     1.228208446778    -0.000636633186    15.994914619570
         O           -1.425772876245     1.228206446778    -0.004437633186    15.994914619570
         C            0.000904123755    -0.771350553222    -0.002079633186    12.000000000000
         C            1.277156323755     0.035522346778     0.019896766814    12.000000000000
         C           -1.283143876245     0.023370446778    -0.002837633186    12.000000000000
         H            0.001090123755    -1.439881553222    -0.869839633186     1.007825032230
         H            0.000710123755    -1.438884553222     0.866460366814     1.007825032230
         H            3.137648123755    -0.293409553222    -0.003678633186     1.007825032230
         H           -3.135872876245    -0.293444553222    -0.002284633186     1.007825032230

  Basis Set: AUG-CC-PVTZ
    Blend: AUG-CC-PVTZ
  Basis Set: (AUG-CC-PVTZ AUX)
    Blend: AUG-CC-PVTZ-JKFIT
	 Reference Energy          =    -415.5787893891059070 [Eh]
	 Singles Energy            =      -0.0000000000000000 [Eh]
	 Same-Spin Energy          =      -0.3933002019552402 [Eh]
	 Opposite-Spin Energy      =      -1.1653358569654593 [Eh]
	 Correlation Energy        =      -1.5586360589206993 [Eh]
	 Total Energy              =    -417.1374254480265904 [Eh]

	 ================> DF-SCS-MP2 Energies <==================
	-----------------------------------------------------------
	 SCS Same-Spin Scale       =       0.3333333333333333 [-]
	 SCS Opposite-Spin Scale   =       1.2000000000000000 [-]
	 SCS Same-Spin Energy      =      -0.1311000673184134 [Eh]
	 SCS Opposite-Spin Energy  =      -1.3984030283585511 [Eh]
	 SCS Correlation Energy    =      -1.5295030956769646 [Eh]
	 SCS Total Energy          =    -417.1082924847828508 [Eh]
	-----------------------------------------------------------

  Dipole Moment: [D]
     X:    -0.0746      Y:    -2.6923      Z:     0.0252     Total:     2.6935

*** Psi4 exiting successfully. Buy a developer a beer!
