                               Psi4 1.3.2 release

  ==> Input File <==

--------------------------------------------------------------------------
#psi4
#
memory 32 gb

molecule  {
0 1
  O        2.3317040    -0.8186130    -0.0014310
  O       -2.3317020    -0.8186160     0.0009270
  O        1.4266620     1.2613620     0.0018990
  O       -1.4266720     1.2613600    -0.0019020
  C        0.0000050    -0.7381970     0.0004560
  C        1.2840530     0.0565150     0.0003880
  C       -1.2840430     0.0565240    -0.0003020
  H        0.0001570    -1.2846685    -0.7088695
  H       -0.0001890    -1.4057310     0.8689960
  H        3.1367490    -0.2602560    -0.0011430
  H       -3.1367720    -0.2602910     0.0002510
units angstrom
no_reorient  #important for SAPT in psi4, default
symmetry c1  #important for SAPT in psi4, default
}

set PROPERTIES_ORIGIN ["COM"]
properties('MP2/aug-cc-pvtz', properties = ['dipole'])
--------------------------------------------------------------------------

    Molecular point group: c1
  Charge       = 0
  Multiplicity = 1
  Basis Set: AUG-CC-PVTZ
    Blend: AUG-CC-PVTZ
  Basis Set: (AUG-CC-PVTZ AUX)
    Blend: AUG-CC-PVTZ-JKFIT

    Orbital Energies [Eh]
    ---------------------

    Doubly Occupied:

       1A    -20.628122     2A    -20.628117     3A    -20.564432
       4A    -20.564426     5A    -11.407776     6A    -11.407769
       7A    -11.266038     8A     -1.475435     9A     -1.469496
      10A     -1.373382    11A     -1.366653    12A     -1.103979
      13A     -0.893016    14A     -0.807429    15A     -0.739288
      16A     -0.712970    17A     -0.709652    18A     -0.688585
      19A     -0.678751    20A     -0.634105    21A     -0.606113
      22A     -0.594873    23A     -0.582854    24A     -0.497195
      25A     -0.490624    26A     -0.479411    27A     -0.456857

  @DF-RHF Final Energy:  -415.54527136690240

   => Energetics <=

    Nuclear Repulsion Energy =            298.0785774950127234
    One-Electron Energy =               -1161.5929976939380595
    Two-Electron Energy =                 447.9691488320229382
    Total Energy =                       -415.5452713669023979
  Basis Set: (AUG-CC-PVTZ AUX)
    Blend: AUG-CC-PVTZ-RI
    Molecular point group: c1

    Geometry (in Angstrom), charge = 0, multiplicity = 1:

       Center              X                  Y                   Z               Mass
    ------------   -----------------  -----------------  -----------------  -----------------
         O            2.331704032590    -0.851546228549    -0.002958484176    15.994914619570
         O           -2.331701967410    -0.851549228549    -0.000600484176    15.994914619570
         O            1.426662032590     1.228428771451     0.000371515824    15.994914619570
         O           -1.426671967410     1.228426771451    -0.003429484176    15.994914619570
         C            0.000005032590    -0.771130228549    -0.001071484176    12.000000000000
         C            1.284053032590     0.023581771451    -0.001139484176    12.000000000000
         C           -1.284042967410     0.023590771451    -0.001829484176    12.000000000000
         H            0.000157032590    -1.317601728549    -0.710396984176     1.007825032230
         H           -0.000188967410    -1.438664228549     0.867468515824     1.007825032230
         H            3.136749032590    -0.293189228549    -0.002670484176     1.007825032230
         H           -3.136771967410    -0.293224228549    -0.001276484176     1.007825032230

  Basis Set: AUG-CC-PVTZ
    Blend: AUG-CC-PVTZ
  Basis Set: (AUG-CC-PVTZ AUX)
    Blend: AUG-CC-PVTZ-JKFIT
	 Reference Energy          =    -415.5452713669023979 [Eh]
	 Singles Energy            =      -0.0000000000000000 [Eh]
	 Same-Spin Energy          =      -0.3933799463730695 [Eh]
	 Opposite-Spin Energy      =      -1.1650234269589497 [Eh]
	 Correlation Energy        =      -1.5584033733320193 [Eh]
	 Total Energy              =    -417.1036747402343963 [Eh]

	 ================> DF-SCS-MP2 Energies <==================
	-----------------------------------------------------------
	 SCS Same-Spin Scale       =       0.3333333333333333 [-]
	 SCS Opposite-Spin Scale   =       1.2000000000000000 [-]
	 SCS Same-Spin Energy      =      -0.1311266487910231 [Eh]
	 SCS Opposite-Spin Energy  =      -1.3980281123507396 [Eh]
	 SCS Correlation Energy    =      -1.5291547611417629 [Eh]
	 SCS Total Energy          =    -417.0744261280441378 [Eh]
	-----------------------------------------------------------

  Dipole Moment: [D]
     X:    -0.0000      Y:    -2.7650      Z:     0.0394     Total:     2.7653

*** Psi4 exiting successfully. Buy a developer a beer!
