                               Psi4 1.3.2 release

  ==> Input File <==

--------------------------------------------------------------------------
#psi4
#
memory 32 gb

molecule  {
0 1
  O        2.3317040    -0.8186130    -0.0014310
  O       -2.3317020    -0.8186160     0.0009270
  O        1.4266620     1.2613620     0.0018990
  O       -1.4266720     1.2613600    -0.0019020
  C        0.0000050    -0.7381970     0.0004560
  C        1.3690847     0.1091421     0.0003835
  C       -1.2840430     0.0565240    -0.0003020
  H        0.0001910    -1.4067280    -0.8673040
  H       -0.0001890    -1.4057310     0.8689960
  H        3.1367490    -0.2602560    -0.0011430
  H       -3.1367720    -0.2602910     0.0002510
units angstrom
no_reorient  #important for SAPT in psi4, default
symmetry c1  #important for SAPT in psi4, default
}

set PROPERTIES_ORIGIN ["COM"]
properties('MP2/aug-cc-pvtz', properties = ['dipole'])
--------------------------------------------------------------------------

    Molecular point group: c1
  Charge       = 0
  Multiplicity = 1
  Basis Set: AUG-CC-PVTZ
    Blend: AUG-CC-PVTZ
  Basis Set: (AUG-CC-PVTZ AUX)
    Blend: AUG-CC-PVTZ-JKFIT

    Orbital Energies [Eh]
    ---------------------

    Doubly Occupied:

       1A    -20.636377     2A    -20.621561     3A    -20.570977
       4A    -20.558644     5A    -11.403372     6A    -11.400829
       7A    -11.277915     8A     -1.500095     9A     -1.465853
      10A     -1.410224    11A     -1.364114    12A     -1.055919
      13A     -0.881781    14A     -0.797119    15A     -0.731716
      16A     -0.716263    17A     -0.693258    18A     -0.683864
      19A     -0.681675    20A     -0.641439    21A     -0.607043
      22A     -0.586825    23A     -0.565633    24A     -0.516798
      25A     -0.488134    26A     -0.470016    27A     -0.450919

  @DF-RHF Final Energy:  -415.57220496507892

   => Energetics <=

    Nuclear Repulsion Energy =            297.0044773555998745
    One-Electron Energy =               -1159.5966377755351004
    Two-Electron Energy =                 447.0199554548563015
    Total Energy =                       -415.5722049650789245
  Basis Set: (AUG-CC-PVTZ AUX)
    Blend: AUG-CC-PVTZ-RI
    Molecular point group: c1

    Geometry (in Angstrom), charge = 0, multiplicity = 1:

       Center              X                  Y                   Z               Mass
    ------------   -----------------  -----------------  -----------------  -----------------
         O            2.321893386868    -0.856435238200    -0.001422797387    15.994914619570
         O           -2.341512613132    -0.856438238200     0.000935202613    15.994914619570
         O            1.416851386868     1.223539761800     0.001907202613    15.994914619570
         O           -1.436482613132     1.223537761800    -0.001893797387    15.994914619570
         C           -0.009805613132    -0.776019238200     0.000464202613    12.000000000000
         C            1.359274086868     0.071319861800     0.000391702613    12.000000000000
         C           -1.293853613132     0.018701761800    -0.000293797387    12.000000000000
         H           -0.009619613132    -1.444550238200    -0.867295797387     1.007825032230
         H           -0.009999613132    -1.443553238200     0.869004202613     1.007825032230
         H            3.126938386868    -0.298078238200    -0.001134797387     1.007825032230
         H           -3.146582613132    -0.298113238200     0.000259202613     1.007825032230

  Basis Set: AUG-CC-PVTZ
    Blend: AUG-CC-PVTZ
  Basis Set: (AUG-CC-PVTZ AUX)
    Blend: AUG-CC-PVTZ-JKFIT
	 Reference Energy          =    -415.5722049650789245 [Eh]
	 Singles Energy            =      -0.0000000000000000 [Eh]
	 Same-Spin Energy          =      -0.3920131827525132 [Eh]
	 Opposite-Spin Energy      =      -1.1623264113718277 [Eh]
	 Correlation Energy        =      -1.5543395941243410 [Eh]
	 Total Energy              =    -417.1265445592032393 [Eh]

	 ================> DF-SCS-MP2 Energies <==================
	-----------------------------------------------------------
	 SCS Same-Spin Scale       =       0.3333333333333333 [-]
	 SCS Opposite-Spin Scale   =       1.2000000000000000 [-]
	 SCS Same-Spin Energy      =      -0.1306710609175044 [Eh]
	 SCS Opposite-Spin Energy  =      -1.3947916936461933 [Eh]
	 SCS Correlation Energy    =      -1.5254627545636976 [Eh]
	 SCS Total Energy          =    -417.0976677196426294 [Eh]
	-----------------------------------------------------------

  Dipole Moment: [D]
     X:     0.6088      Y:    -2.5163      Z:     0.0004     Total:     2.5889

*** Psi4 exiting successfully. Buy a developer a beer!
