                               Psi4 1.4a3.dev225

  ==> Input File <==

--------------------------------------------------------------------------
#psi4
#
memory 32 gb

molecule  {
0 1
  O       -1.5693130     0.6792620     0.9775650
  O        2.3881200    -0.4231710     0.2741620
  O       -1.9867550    -0.4638000    -0.9394160
  O        1.0534040     1.1518790    -0.6703260
  C        0.0711740    -0.8607350     0.2805240
  C       -1.2663670    -0.2215630     0.0099780
  C        1.1867570     0.0868330    -0.0975870
  H        0.1663646    -1.1215824     1.3175276
  H        0.1588640    -1.7718550    -0.3168650
  H       -2.4173420     1.0883610     0.7068920
  H        3.0573020     0.2293680    -0.0202400
units angstrom
no_reorient  #important for SAPT in psi4, default
symmetry c1  #important for SAPT in psi4, default
}

set PROPERTIES_ORIGIN ["COM"]
properties('MP2/aug-cc-pvtz', properties = ['dipole'])
--------------------------------------------------------------------------

    Molecular point group: c1
  Charge       = 0
  Multiplicity = 1
  Basis Set: AUG-CC-PVTZ
    Blend: AUG-CC-PVTZ
  Basis Set: (AUG-CC-PVTZ AUX)
    Blend: AUG-CC-PVTZ-JKFIT

    Orbital Energies [Eh]
    ---------------------

    Doubly Occupied:

       1A    -20.635661     2A    -20.626283     3A    -20.572447
       4A    -20.564753     5A    -11.416759     6A    -11.406692
       7A    -11.281991     8A     -1.482055     9A     -1.470669
      10A     -1.378755    11A     -1.370054    12A     -1.084707
      13A     -0.887339    14A     -0.811158    15A     -0.728257
      16A     -0.719595    17A     -0.716600    18A     -0.687882
      19A     -0.664002    20A     -0.634686    21A     -0.595885
      22A     -0.592598    23A     -0.583499    24A     -0.503772
      25A     -0.491858    26A     -0.476863    27A     -0.468657

  @DF-RHF Final Energy:  -415.58533611397934

   => Energetics <=

    Nuclear Repulsion Energy =            300.3978289999768094
    One-Electron Energy =               -1166.2593800203067076
    Two-Electron Energy =                 450.2762149063505603
    Total Energy =                       -415.5853361139793378
  Basis Set: (AUG-CC-PVTZ AUX)
    Blend: AUG-CC-PVTZ-RI
    Molecular point group: c1

    Geometry (in Angstrom), charge = 0, multiplicity = 1:

       Center              X                  Y                   Z               Mass
    ------------   -----------------  -----------------  -----------------  -----------------
         O           -1.560077316749     0.664183779509     0.994014434649    15.994914619570
         O            2.397355683251    -0.438249220491     0.290611434649    15.994914619570
         O           -1.977519316749    -0.478878220491    -0.922966565351    15.994914619570
         O            1.062639683251     1.136800779509    -0.653876565351    15.994914619570
         C            0.080409683251    -0.875813220491     0.296973434649    12.000000000000
         C           -1.257131316749    -0.236641220491     0.026427434649    12.000000000000
         C            1.195992683251     0.071754779509    -0.081137565351    12.000000000000
         H            0.175600283251    -1.136660620491     1.333977034649     1.007825032230
         H            0.168099683251    -1.786933220491    -0.300415565351     1.007825032230
         H           -2.408106316749     1.073282779509     0.723341434649     1.007825032230
         H            3.066537683251     0.214289779509    -0.003790565351     1.007825032230

  Basis Set: AUG-CC-PVTZ
    Blend: AUG-CC-PVTZ
  Basis Set: (AUG-CC-PVTZ AUX)
    Blend: AUG-CC-PVTZ-JKFIT
	 Reference Energy          =    -415.5853361139793378 [Eh]
	 Singles Energy            =      -0.0000000000000000 [Eh]
	 Same-Spin Energy          =      -0.3930462194211882 [Eh]
	 Opposite-Spin Energy      =      -1.1644912816803981 [Eh]
	 Correlation Energy        =      -1.5575375011015864 [Eh]
	 Total Energy              =    -417.1428736150809300 [Eh]

	 ================> DF-SCS-MP2 Energies <==================
	-----------------------------------------------------------
	 SCS Same-Spin Scale       =       0.3333333333333333 [-]
	 SCS Opposite-Spin Scale   =       1.2000000000000000 [-]
	 SCS Same-Spin Energy      =      -0.1310154064737294 [Eh]
	 SCS Opposite-Spin Energy  =      -1.3973895380164776 [Eh]
	 SCS Correlation Energy    =      -1.5284049444902070 [Eh]
	 SCS Total Energy          =    -417.1137410584695431 [Eh]
	-----------------------------------------------------------

  Dipole Moment: [D]
     X:     1.2381      Y:    -0.6840      Z:     1.8588     Total:     2.3358

*** Psi4 exiting successfully. Buy a developer a beer!
