                               Psi4 1.4a3.dev225

  ==> Input File <==

--------------------------------------------------------------------------
#psi4
#
memory 32 gb

molecule  {
0 1
  O       -1.5693130     0.6792620     0.9775650
  O        2.3881200    -0.4231710     0.2741620
  O       -1.9867550    -0.4638000    -0.9394160
  O        1.0534040     1.1518790    -0.6703260
  C        0.0711740    -0.8607350     0.2805240
  C       -1.2663670    -0.2215630     0.0099780
  C        1.1867570     0.0868330    -0.0975870
  H        0.1637045    -1.1142930     1.2885485
  H        0.1588640    -1.7718550    -0.3168650
  H       -2.4173420     1.0883610     0.7068920
  H        3.0573020     0.2293680    -0.0202400
units angstrom
no_reorient  #important for SAPT in psi4, default
symmetry c1  #important for SAPT in psi4, default
}

set PROPERTIES_ORIGIN ["COM"]
properties('MP2/aug-cc-pvtz', properties = ['dipole'])
--------------------------------------------------------------------------

    Molecular point group: c1
  Charge       = 0
  Multiplicity = 1
  Basis Set: AUG-CC-PVTZ
    Blend: AUG-CC-PVTZ
  Basis Set: (AUG-CC-PVTZ AUX)
    Blend: AUG-CC-PVTZ-JKFIT

    Orbital Energies [Eh]
    ---------------------

    Doubly Occupied:

       1A    -20.635773     2A    -20.626375     3A    -20.572373
       4A    -20.564640     5A    -11.416658     6A    -11.406559
       7A    -11.278765     8A     -1.482112     9A     -1.470699
      10A     -1.378743    11A     -1.370013    12A     -1.087139
      13A     -0.887364    14A     -0.812104    15A     -0.729613
      16A     -0.719615    17A     -0.717389    18A     -0.690182
      19A     -0.664293    20A     -0.634708    21A     -0.596463
      22A     -0.593297    23A     -0.585090    24A     -0.503819
      25A     -0.491853    26A     -0.477018    27A     -0.468680

  @DF-RHF Final Energy:  -415.58440223794753

   => Energetics <=

    Nuclear Repulsion Energy =            300.5539869425011830
    One-Electron Energy =               -1166.5541016140643933
    Two-Electron Energy =                 450.4157124336156812
    Total Energy =                       -415.5844022379475291
  Basis Set: (AUG-CC-PVTZ AUX)
    Blend: AUG-CC-PVTZ-RI
    Molecular point group: c1

    Geometry (in Angstrom), charge = 0, multiplicity = 1:

       Center              X                  Y                   Z               Mass
    ------------   -----------------  -----------------  -----------------  -----------------
         O           -1.560051541433     0.664113148108     0.994295230661    15.994914619570
         O            2.397381458567    -0.438319851892     0.290892230661    15.994914619570
         O           -1.977493541433    -0.478948851892    -0.922685769339    15.994914619570
         O            1.062665458567     1.136730148108    -0.653595769339    15.994914619570
         C            0.080435458567    -0.875883851892     0.297254230661    12.000000000000
         C           -1.257105541433    -0.236711851892     0.026708230661    12.000000000000
         C            1.196018458567     0.071684148108    -0.080856769339    12.000000000000
         H            0.172965958567    -1.129441851892     1.305278730661     1.007825032230
         H            0.168125458567    -1.787003851892    -0.300134769339     1.007825032230
         H           -2.408080541433     1.073212148108     0.723622230661     1.007825032230
         H            3.066563458567     0.214219148108    -0.003509769339     1.007825032230

  Basis Set: AUG-CC-PVTZ
    Blend: AUG-CC-PVTZ
  Basis Set: (AUG-CC-PVTZ AUX)
    Blend: AUG-CC-PVTZ-JKFIT
	 Reference Energy          =    -415.5844022379475291 [Eh]
	 Singles Energy            =      -0.0000000000000000 [Eh]
	 Same-Spin Energy          =      -0.3930203607808795 [Eh]
	 Opposite-Spin Energy      =      -1.1643256523810388 [Eh]
	 Correlation Energy        =      -1.5573460131619183 [Eh]
	 Total Energy              =    -417.1417482511094477 [Eh]

	 ================> DF-SCS-MP2 Energies <==================
	-----------------------------------------------------------
	 SCS Same-Spin Scale       =       0.3333333333333333 [-]
	 SCS Opposite-Spin Scale   =       1.2000000000000000 [-]
	 SCS Same-Spin Energy      =      -0.1310067869269598 [Eh]
	 SCS Opposite-Spin Energy  =      -1.3971907828572465 [Eh]
	 SCS Correlation Energy    =      -1.5281975697842063 [Eh]
	 SCS Total Energy          =    -417.1125998077317263 [Eh]
	-----------------------------------------------------------

  Dipole Moment: [D]
     X:     1.2396      Y:    -0.6844      Z:     1.8552     Total:     2.3338

*** Psi4 exiting successfully. Buy a developer a beer!
