                               Psi4 1.3.2 release

  ==> Input File <==

--------------------------------------------------------------------------
#psi4
#
memory 32 gb

molecule  {
0 1
  O        2.3317040    -0.8186130    -0.0014310
  O       -2.3317020    -0.8186160     0.0009270
  O        1.4266620     1.2613620     0.0018990
  O       -1.4266720     1.2613600    -0.0019020
  C        0.0000050    -0.7381970     0.0004560
  C        1.2840530     0.0565150     0.0003880
  C       -1.2840430     0.0565240    -0.0003020
  H        0.0001910    -1.4067280    -0.8673040
  H       -0.0001890    -1.4057310     0.8689960
  H        3.1367490    -0.2602560    -0.0011430
  H       -3.1367720    -0.2602910     0.0002510
units angstrom
no_reorient  #important for SAPT in psi4, default
symmetry c1  #important for SAPT in psi4, default
}

set PROPERTIES_ORIGIN ["COM"]
properties('MP2/aug-cc-pvtz', properties = ['dipole'])
--------------------------------------------------------------------------

    Molecular point group: c1
  Charge       = 0
  Multiplicity = 1
  Basis Set: AUG-CC-PVTZ
    Blend: AUG-CC-PVTZ
  Basis Set: (AUG-CC-PVTZ AUX)
    Blend: AUG-CC-PVTZ-JKFIT

    Orbital Energies [Eh]
    ---------------------

    Doubly Occupied:

       1A    -20.627372     2A    -20.627366     3A    -20.564545
       4A    -20.564542     5A    -11.408166     6A    -11.408159
       7A    -11.287713     8A     -1.474877     9A     -1.469094
      10A     -1.373234    11A     -1.366527    12A     -1.082390
      13A     -0.892762    14A     -0.797121    15A     -0.728662
      16A     -0.712624    17A     -0.690263    18A     -0.686924
      19A     -0.678863    20A     -0.633738    21A     -0.602134
      22A     -0.594744    23A     -0.570407    24A     -0.496347
      25A     -0.490519    26A     -0.478422    27A     -0.456769

  @DF-RHF Final Energy:  -415.57872748511090

   => Energetics <=

    Nuclear Repulsion Energy =            296.9499091608870458
    One-Electron Energy =               -1159.5287038219589704
    Two-Electron Energy =                 447.0000671759610213
    Total Energy =                       -415.5787274851109032
  Basis Set: (AUG-CC-PVTZ AUX)
    Blend: AUG-CC-PVTZ-RI
    Molecular point group: c1

    Geometry (in Angstrom), charge = 0, multiplicity = 1:

       Center              X                  Y                   Z               Mass
    ------------   -----------------  -----------------  -----------------  -----------------
         O            2.331703703143    -0.850363520292    -0.001423316563    15.994914619570
         O           -2.331702296857    -0.850366520292     0.000934683437    15.994914619570
         O            1.426661703143     1.229611479708     0.001906683437    15.994914619570
         O           -1.426672296857     1.229609479708    -0.001894316563    15.994914619570
         C            0.000004703143    -0.769947520292     0.000463683437    12.000000000000
         C            1.284052703143     0.024764479708     0.000395683437    12.000000000000
         C           -1.284043296857     0.024773479708    -0.000294316563    12.000000000000
         H            0.000190703143    -1.438478520292    -0.867296316563     1.007825032230
         H           -0.000189296857    -1.437481520292     0.869003683437     1.007825032230
         H            3.136748703143    -0.292006520292    -0.001135316563     1.007825032230
         H           -3.136772296857    -0.292041520292     0.000258683437     1.007825032230

  Basis Set: AUG-CC-PVTZ
    Blend: AUG-CC-PVTZ
  Basis Set: (AUG-CC-PVTZ AUX)
    Blend: AUG-CC-PVTZ-JKFIT
	 Reference Energy          =    -415.5787274851109032 [Eh]
	 Singles Energy            =      -0.0000000000000000 [Eh]
	 Same-Spin Energy          =      -0.3934314553908647 [Eh]
	 Opposite-Spin Energy      =      -1.1655099294196372 [Eh]
	 Correlation Energy        =      -1.5589413848105018 [Eh]
	 Total Energy              =    -417.1376688699214128 [Eh]

	 ================> DF-SCS-MP2 Energies <==================
	-----------------------------------------------------------
	 SCS Same-Spin Scale       =       0.3333333333333333 [-]
	 SCS Opposite-Spin Scale   =       1.2000000000000000 [-]
	 SCS Same-Spin Energy      =      -0.1311438184636216 [Eh]
	 SCS Opposite-Spin Energy  =      -1.3986119153035645 [Eh]
	 SCS Correlation Energy    =      -1.5297557337671861 [Eh]
	 SCS Total Energy          =    -417.1084832188780638 [Eh]
	-----------------------------------------------------------

  Dipole Moment: [D]
     X:     0.0001      Y:    -2.7887      Z:     0.0003     Total:     2.7887

*** Psi4 exiting successfully. Buy a developer a beer!
