                               Psi4 1.3.2 release

  ==> Input File <==

--------------------------------------------------------------------------
#psi4
#
memory 32 gb

molecule  {
0 1
  O        2.3317040    -0.8186130    -0.0014310
  O       -2.3317020    -0.8186160     0.0009270
  O        1.4266620     1.2613620     0.0018990
  O       -1.4266720     1.2613600    -0.0019020
  C        0.0000050    -0.7381970     0.0004560
  C        1.2914577     0.0441120    -0.0216563
  C       -1.2840430     0.0565240    -0.0003020
  H        0.0001910    -1.4067280    -0.8673040
  H       -0.0001890    -1.4057310     0.8689960
  H        3.1367490    -0.2602560    -0.0011430
  H       -3.1367720    -0.2602910     0.0002510
units angstrom
no_reorient  #important for SAPT in psi4, default
symmetry c1  #important for SAPT in psi4, default
}

set PROPERTIES_ORIGIN ["COM"]
properties('MP2/aug-cc-pvtz', properties = ['dipole'])
--------------------------------------------------------------------------

    Molecular point group: c1
  Charge       = 0
  Multiplicity = 1
  Basis Set: AUG-CC-PVTZ
    Blend: AUG-CC-PVTZ
  Basis Set: (AUG-CC-PVTZ AUX)
    Blend: AUG-CC-PVTZ-JKFIT

    Orbital Energies [Eh]
    ---------------------

    Doubly Occupied:

       1A    -20.631311     2A    -20.627215     3A    -20.564042
       4A    -20.561873     5A    -11.408913     6A    -11.408001
       7A    -11.287655     8A     -1.476794     9A     -1.470287
      10A     -1.371463    11A     -1.363158    12A     -1.082299
      13A     -0.895055    14A     -0.799911    15A     -0.727978
      16A     -0.713110    17A     -0.690342    18A     -0.687377
      19A     -0.679433    20A     -0.635122    21A     -0.600385
      22A     -0.593250    23A     -0.571393    24A     -0.494518
      25A     -0.487787    26A     -0.477129    27A     -0.456080

  @DF-RHF Final Energy:  -415.57753335860519

   => Energetics <=

    Nuclear Repulsion Energy =            296.8843712450034786
    One-Electron Energy =               -1159.4000438450175352
    Two-Electron Energy =                 446.9381392414089191
    Total Energy =                       -415.5775333586051943
  Basis Set: (AUG-CC-PVTZ AUX)
    Blend: AUG-CC-PVTZ-RI
    Molecular point group: c1

    Geometry (in Angstrom), charge = 0, multiplicity = 1:

       Center              X                  Y                   Z               Mass
    ------------   -----------------  -----------------  -----------------  -----------------
         O            2.330849404700    -0.848932555690     0.001119988523    15.994914619570
         O           -2.332556595300    -0.848935555690     0.003477988523    15.994914619570
         O            1.425807404700     1.231042444310     0.004449988523    15.994914619570
         O           -1.427526595300     1.231040444310     0.000648988523    15.994914619570
         C           -0.000849595300    -0.768516555690     0.003006988523    12.000000000000
         C            1.290603104700     0.013792444310    -0.019105311477    12.000000000000
         C           -1.284897595300     0.026204444310     0.002248988523    12.000000000000
         H           -0.000663595300    -1.437047555690    -0.864753011477     1.007825032230
         H           -0.001043595300    -1.436050555690     0.871546988523     1.007825032230
         H            3.135894404700    -0.290575555690     0.001407988523     1.007825032230
         H           -3.137626595300    -0.290610555690     0.002801988523     1.007825032230

  Basis Set: AUG-CC-PVTZ
    Blend: AUG-CC-PVTZ
  Basis Set: (AUG-CC-PVTZ AUX)
    Blend: AUG-CC-PVTZ-JKFIT
	 Reference Energy          =    -415.5775333586051943 [Eh]
	 Singles Energy            =      -0.0000000000000000 [Eh]
	 Same-Spin Energy          =      -0.3936095130448825 [Eh]
	 Opposite-Spin Energy      =      -1.1658001647231160 [Eh]
	 Correlation Energy        =      -1.5594096777679984 [Eh]
	 Total Energy              =    -417.1369430363731681 [Eh]

	 ================> DF-SCS-MP2 Energies <==================
	-----------------------------------------------------------
	 SCS Same-Spin Scale       =       0.3333333333333333 [-]
	 SCS Opposite-Spin Scale   =       1.2000000000000000 [-]
	 SCS Same-Spin Energy      =      -0.1312031710149608 [Eh]
	 SCS Opposite-Spin Energy  =      -1.3989601976677390 [Eh]
	 SCS Correlation Energy    =      -1.5301633686826999 [Eh]
	 SCS Total Energy          =    -417.1076967272878733 [Eh]
	-----------------------------------------------------------

  Dipole Moment: [D]
     X:     0.0704      Y:    -2.8838      Z:    -0.0232     Total:     2.8847

*** Psi4 exiting successfully. Buy a developer a beer!
