                               Psi4 1.3.2 release

  ==> Input File <==

--------------------------------------------------------------------------
#psi4
#
memory 32 gb

molecule  {
0 1
  O        2.3317040    -0.8186130    -0.0014310
  O       -2.3317020    -0.8186160     0.0009270
  O        1.4266620     1.2613620     0.0018990
  O       -1.4266720     1.2613600    -0.0019020
  C        0.0000050    -0.7381970     0.0004560
  C        1.2840530     0.0565150     0.0003880
  C       -1.2840430     0.0565240    -0.0003020
  H        0.0001962    -1.3760364    -0.8901068
  H       -0.0001890    -1.4057310     0.8689960
  H        3.1367490    -0.2602560    -0.0011430
  H       -3.1367720    -0.2602910     0.0002510
units angstrom
no_reorient  #important for SAPT in psi4, default
symmetry c1  #important for SAPT in psi4, default
}

set PROPERTIES_ORIGIN ["COM"]
properties('MP2/aug-cc-pvtz', properties = ['dipole'])
--------------------------------------------------------------------------

    Molecular point group: c1
  Charge       = 0
  Multiplicity = 1
  Basis Set: AUG-CC-PVTZ
    Blend: AUG-CC-PVTZ
  Basis Set: (AUG-CC-PVTZ AUX)
    Blend: AUG-CC-PVTZ-JKFIT

    Orbital Energies [Eh]
    ---------------------

    Doubly Occupied:

       1A    -20.627408     2A    -20.627402     3A    -20.564436
       4A    -20.564434     5A    -11.407951     6A    -11.407944
       7A    -11.287839     8A     -1.474876     9A     -1.469087
      10A     -1.373182    11A     -1.366470    12A     -1.082610
      13A     -0.892806    14A     -0.796867    15A     -0.727810
      16A     -0.712583    17A     -0.689090    18A     -0.688816
      19A     -0.678832    20A     -0.633768    21A     -0.601167
      22A     -0.594748    23A     -0.572450    24A     -0.496426
      25A     -0.490479    26A     -0.477629    27A     -0.456737

  @DF-RHF Final Energy:  -415.57869595433544

   => Energetics <=

    Nuclear Repulsion Energy =            296.9780132956063312
    One-Electron Energy =               -1159.5857239571014361
    Two-Electron Energy =                 447.0290147071596039
    Total Energy =                       -415.5786959543354442
  Basis Set: (AUG-CC-PVTZ AUX)
    Blend: AUG-CC-PVTZ-RI
    Molecular point group: c1

    Geometry (in Angstrom), charge = 0, multiplicity = 1:

       Center              X                  Y                   Z               Mass
    ------------   -----------------  -----------------  -----------------  -----------------
         O            2.331703652757    -0.850660909752    -0.001202366454    15.994914619570
         O           -2.331702347243    -0.850663909752     0.001155633546    15.994914619570
         O            1.426661652757     1.229314090248     0.002127633546    15.994914619570
         O           -1.426672347243     1.229312090248    -0.001673366454    15.994914619570
         C            0.000004652757    -0.770244909752     0.000684633546    12.000000000000
         C            1.284052652757     0.024467090248     0.000616633546    12.000000000000
         C           -1.284043347243     0.024476090248    -0.000073366454    12.000000000000
         H            0.000195852757    -1.408084309752    -0.889878166454     1.007825032230
         H           -0.000189347243    -1.437778909752     0.869224633546     1.007825032230
         H            3.136748652757    -0.292303909752    -0.000914366454     1.007825032230
         H           -3.136772347243    -0.292338909752     0.000479633546     1.007825032230

  Basis Set: AUG-CC-PVTZ
    Blend: AUG-CC-PVTZ
  Basis Set: (AUG-CC-PVTZ AUX)
    Blend: AUG-CC-PVTZ-JKFIT
	 Reference Energy          =    -415.5786959543354442 [Eh]
	 Singles Energy            =      -0.0000000000000000 [Eh]
	 Same-Spin Energy          =      -0.3934067793119463 [Eh]
	 Opposite-Spin Energy      =      -1.1655100498218611 [Eh]
	 Correlation Energy        =      -1.5589168291338074 [Eh]
	 Total Energy              =    -417.1376127834692511 [Eh]

	 ================> DF-SCS-MP2 Energies <==================
	-----------------------------------------------------------
	 SCS Same-Spin Scale       =       0.3333333333333333 [-]
	 SCS Opposite-Spin Scale   =       1.2000000000000000 [-]
	 SCS Same-Spin Energy      =      -0.1311355931039821 [Eh]
	 SCS Opposite-Spin Energy  =      -1.3986120597862333 [Eh]
	 SCS Correlation Energy    =      -1.5297476528902154 [Eh]
	 SCS Total Energy          =    -417.1084436072256381 [Eh]
	-----------------------------------------------------------

  Dipole Moment: [D]
     X:     0.0001      Y:    -2.7708      Z:    -0.0078     Total:     2.7708

*** Psi4 exiting successfully. Buy a developer a beer!
