                               Psi4 1.3.2 release

  ==> Input File <==

--------------------------------------------------------------------------
#psi4
#
memory 32 gb

molecule  {
0 1
  O        2.3317040    -0.8186130    -0.0014310
  O       -2.3317020    -0.8186160     0.0009270
  O        1.4266620     1.2613620     0.0018990
  O       -1.4266720     1.2613600    -0.0019020
  C        0.0000050    -0.7381970     0.0004560
  C        1.2840530     0.0565150     0.0003880
  C       -1.2840430     0.0565240    -0.0003020
  H        0.0002080    -1.4677577    -0.9465212
  H       -0.0001890    -1.4057310     0.8689960
  H        3.1367490    -0.2602560    -0.0011430
  H       -3.1367720    -0.2602910     0.0002510
units angstrom
no_reorient  #important for SAPT in psi4, default
symmetry c1  #important for SAPT in psi4, default
}

set PROPERTIES_ORIGIN ["COM"]
properties('MP2/aug-cc-pvtz', properties = ['dipole'])
--------------------------------------------------------------------------

    Molecular point group: c1
  Charge       = 0
  Multiplicity = 1
  Basis Set: AUG-CC-PVTZ
    Blend: AUG-CC-PVTZ
  Basis Set: (AUG-CC-PVTZ AUX)
    Blend: AUG-CC-PVTZ-JKFIT

    Orbital Energies [Eh]
    ---------------------

    Doubly Occupied:

       1A    -20.627050     2A    -20.627045     3A    -20.564823
       4A    -20.564819     5A    -11.408600     6A    -11.408593
       7A    -11.297686     8A     -1.474730     9A     -1.468979
      10A     -1.373288    11A     -1.366600    12A     -1.075899
      13A     -0.892784    14A     -0.794731    15A     -0.726897
      16A     -0.712552    17A     -0.689264    18A     -0.679100
      19A     -0.676747    20A     -0.633604    21A     -0.600801
      22A     -0.594883    23A     -0.560735    24A     -0.495808
      25A     -0.490558    26A     -0.477679    27A     -0.456947

  @DF-RHF Final Energy:  -415.57193190340604

   => Energetics <=

    Nuclear Repulsion Energy =            296.4726371906961049
    One-Electron Energy =               -1158.6067338422790272
    Two-Electron Energy =                 446.5621647481768832
    Total Energy =                       -415.5719319034060391
  Basis Set: (AUG-CC-PVTZ AUX)
    Blend: AUG-CC-PVTZ-RI
    Molecular point group: c1

    Geometry (in Angstrom), charge = 0, multiplicity = 1:

       Center              X                  Y                   Z               Mass
    ------------   -----------------  -----------------  -----------------  -----------------
         O            2.331703538420    -0.849772166648    -0.000655733241    15.994914619570
         O           -2.331702461580    -0.849775166648     0.001702266759    15.994914619570
         O            1.426661538420     1.230202833352     0.002674266759    15.994914619570
         O           -1.426672461580     1.230200833352    -0.001126733241    15.994914619570
         C            0.000004538420    -0.769356166648     0.001231266759    12.000000000000
         C            1.284052538420     0.025355833352     0.001163266759    12.000000000000
         C           -1.284043461580     0.025364833352     0.000473266759    12.000000000000
         H            0.000207538420    -1.498916866648    -0.945745933241     1.007825032230
         H           -0.000189461580    -1.436890166648     0.869771266759     1.007825032230
         H            3.136748538420    -0.291415166648    -0.000367733241     1.007825032230
         H           -3.136772461580    -0.291450166648     0.001026266759     1.007825032230

  Basis Set: AUG-CC-PVTZ
    Blend: AUG-CC-PVTZ
  Basis Set: (AUG-CC-PVTZ AUX)
    Blend: AUG-CC-PVTZ-JKFIT
	 Reference Energy          =    -415.5719319034060391 [Eh]
	 Singles Energy            =      -0.0000000000000000 [Eh]
	 Same-Spin Energy          =      -0.3935560703621974 [Eh]
	 Opposite-Spin Energy      =      -1.1662898047888755 [Eh]
	 Correlation Energy        =      -1.5598458751510729 [Eh]
	 Total Energy              =    -417.1317777785571366 [Eh]

	 ================> DF-SCS-MP2 Energies <==================
	-----------------------------------------------------------
	 SCS Same-Spin Scale       =       0.3333333333333333 [-]
	 SCS Opposite-Spin Scale   =       1.2000000000000000 [-]
	 SCS Same-Spin Energy      =      -0.1311853567873991 [Eh]
	 SCS Opposite-Spin Energy  =      -1.3995477657466504 [Eh]
	 SCS Correlation Energy    =      -1.5307331225340495 [Eh]
	 SCS Total Energy          =    -417.1026650259400981 [Eh]
	-----------------------------------------------------------

  Dipole Moment: [D]
     X:     0.0001      Y:    -2.7919      Z:    -0.0134     Total:     2.7919

*** Psi4 exiting successfully. Buy a developer a beer!
