                               Psi4 1.3.2 release

  ==> Input File <==

--------------------------------------------------------------------------
#psi4
#
memory 32 gb

molecule  {
0 1
  O        2.3317040    -0.8186130    -0.0014310
  O       -2.3317020    -0.8186160     0.0009270
  O        1.4266620     1.2613620     0.0018990
  O       -1.4266720     1.2613600    -0.0019020
  C        0.0000050    -0.7381970     0.0004560
  C        1.2977271     0.0339842     0.0004034
  C       -1.2840430     0.0565240    -0.0003020
  H        0.0001910    -1.4067280    -0.8673040
  H       -0.0001890    -1.4057310     0.8689960
  H        3.1367490    -0.2602560    -0.0011430
  H       -3.1367720    -0.2602910     0.0002510
units angstrom
no_reorient  #important for SAPT in psi4, default
symmetry c1  #important for SAPT in psi4, default
}

set PROPERTIES_ORIGIN ["COM"]
properties('MP2/aug-cc-pvtz', properties = ['dipole'])
--------------------------------------------------------------------------

    Molecular point group: c1
  Charge       = 0
  Multiplicity = 1
  Basis Set: AUG-CC-PVTZ
    Blend: AUG-CC-PVTZ
  Basis Set: (AUG-CC-PVTZ AUX)
    Blend: AUG-CC-PVTZ-JKFIT

    Orbital Energies [Eh]
    ---------------------

    Doubly Occupied:

       1A    -20.634559     2A    -20.627090     3A    -20.563628
       4A    -20.559559     5A    -11.409380     6A    -11.407867
       7A    -11.287577     8A     -1.480051     9A     -1.470719
      10A     -1.370494    11A     -1.359438    12A     -1.082222
      13A     -0.897087    14A     -0.802311    15A     -0.727495
      16A     -0.713818    17A     -0.690401    18A     -0.687886
      19A     -0.680009    20A     -0.636505    21A     -0.599554
      22A     -0.591193    23A     -0.572315    24A     -0.493574
      25A     -0.484964    26A     -0.476017    27A     -0.455409

  @DF-RHF Final Energy:  -415.57663077361661

   => Energetics <=

    Nuclear Repulsion Energy =            296.8487360025374642
    One-Electron Energy =               -1159.3284844385727865
    Two-Electron Energy =                 446.9031176624187651
    Total Energy =                       -415.5766307736166141
  Basis Set: (AUG-CC-PVTZ AUX)
    Blend: AUG-CC-PVTZ-RI
    Molecular point group: c1

    Geometry (in Angstrom), charge = 0, multiplicity = 1:

       Center              X                  Y                   Z               Mass
    ------------   -----------------  -----------------  -----------------  -----------------
         O            2.330126088609    -0.847764086505    -0.001425093298    15.994914619570
         O           -2.333279911391    -0.847767086505     0.000932906702    15.994914619570
         O            1.425084088609     1.232210913495     0.001904906702    15.994914619570
         O           -1.428249911391     1.232208913495    -0.001896093298    15.994914619570
         C           -0.001572911391    -0.767348086505     0.000461906702    12.000000000000
         C            1.296149188609     0.004833113495     0.000409306702    12.000000000000
         C           -1.285620911391     0.027372913495    -0.000296093298    12.000000000000
         H           -0.001386911391    -1.435879086505    -0.867298093298     1.007825032230
         H           -0.001766911391    -1.434882086505     0.869001906702     1.007825032230
         H            3.135171088609    -0.289407086505    -0.001137093298     1.007825032230
         H           -3.138349911391    -0.289442086505     0.000256906702     1.007825032230

  Basis Set: AUG-CC-PVTZ
    Blend: AUG-CC-PVTZ
  Basis Set: (AUG-CC-PVTZ AUX)
    Blend: AUG-CC-PVTZ-JKFIT
	 Reference Energy          =    -415.5766307736166141 [Eh]
	 Singles Energy            =      -0.0000000000000000 [Eh]
	 Same-Spin Energy          =      -0.3937298921789983 [Eh]
	 Opposite-Spin Energy      =      -1.1659613414611822 [Eh]
	 Correlation Energy        =      -1.5596912336401805 [Eh]
	 Total Energy              =    -417.1363220072568083 [Eh]

	 ================> DF-SCS-MP2 Energies <==================
	-----------------------------------------------------------
	 SCS Same-Spin Scale       =       0.3333333333333333 [-]
	 SCS Opposite-Spin Scale   =       1.2000000000000000 [-]
	 SCS Same-Spin Energy      =      -0.1312432973929994 [Eh]
	 SCS Opposite-Spin Energy  =      -1.3991536097534187 [Eh]
	 SCS Correlation Energy    =      -1.5303969071464181 [Eh]
	 SCS Total Energy          =    -417.1070276807630535 [Eh]
	-----------------------------------------------------------

  Dipole Moment: [D]
     X:     0.1287      Y:    -2.9624      Z:     0.0001     Total:     2.9652

*** Psi4 exiting successfully. Buy a developer a beer!
