                               Psi4 1.3.2 release

  ==> Input File <==

--------------------------------------------------------------------------
#psi4
#
memory 32 gb

molecule  {
0 1
  O        2.3317040    -0.8186130    -0.0014310
  O       -2.3317020    -0.8186160     0.0009270
  O        1.4266620     1.2613620     0.0018990
  O       -1.4266720     1.2613600    -0.0019020
  C        0.0000050    -0.7381970     0.0004560
  C        1.3113030     0.0054889    -0.0877221
  C       -1.2840430     0.0565240    -0.0003020
  H        0.0001910    -1.4067280    -0.8673040
  H       -0.0001890    -1.4057310     0.8689960
  H        3.1367490    -0.2602560    -0.0011430
  H       -3.1367720    -0.2602910     0.0002510
units angstrom
no_reorient  #important for SAPT in psi4, default
symmetry c1  #important for SAPT in psi4, default
}

set PROPERTIES_ORIGIN ["COM"]
properties('MP2/aug-cc-pvtz', properties = ['dipole'])
--------------------------------------------------------------------------

    Molecular point group: c1
  Charge       = 0
  Multiplicity = 1
  Basis Set: AUG-CC-PVTZ
    Blend: AUG-CC-PVTZ
  Basis Set: (AUG-CC-PVTZ AUX)
    Blend: AUG-CC-PVTZ-JKFIT

    Orbital Energies [Eh]
    ---------------------

    Doubly Occupied:

       1A    -20.642411     2A    -20.626922     3A    -20.562739
       4A    -20.554232     5A    -11.411902     6A    -11.407724
       7A    -11.288189     8A     -1.490447     9A     -1.470750
      10A     -1.368911    11A     -1.343515    12A     -1.082461
      13A     -0.902725    14A     -0.808159    15A     -0.726801
      16A     -0.715885    17A     -0.690617    18A     -0.689945
      19A     -0.679927    20A     -0.639790    21A     -0.598921
      22A     -0.583585    23A     -0.572936    24A     -0.492057
      25A     -0.474839    26A     -0.472657    27A     -0.452880

  @DF-RHF Final Energy:  -415.56699679236317

   => Energetics <=

    Nuclear Repulsion Energy =            296.6241857657375931
    One-Electron Energy =               -1158.8785129765019519
    Two-Electron Energy =                 446.6873304184011886
    Total Energy =                       -415.5669967923631702
  Basis Set: (AUG-CC-PVTZ AUX)
    Blend: AUG-CC-PVTZ-RI
    Molecular point group: c1

    Geometry (in Angstrom), charge = 0, multiplicity = 1:

       Center              X                  Y                   Z               Mass
    ------------   -----------------  -----------------  -----------------  -----------------
         O            2.328559803651    -0.844476513690     0.008742162288    15.994914619570
         O           -2.334846196349    -0.844479513690     0.011100162288    15.994914619570
         O            1.423517803651     1.235498486310     0.012072162288    15.994914619570
         O           -1.429816196349     1.235496486310     0.008271162288    15.994914619570
         C           -0.003139196349    -0.764060513690     0.010629162288    12.000000000000
         C            1.308158803651    -0.020374613690    -0.077548937712    12.000000000000
         C           -1.287187196349     0.030660486310     0.009871162288    12.000000000000
         H           -0.002953196349    -1.432591513690    -0.857130837712     1.007825032230
         H           -0.003333196349    -1.431594513690     0.879169162288     1.007825032230
         H            3.133604803651    -0.286119513690     0.009030162288     1.007825032230
         H           -3.139916196349    -0.286154513690     0.010424162288     1.007825032230

  Basis Set: AUG-CC-PVTZ
    Blend: AUG-CC-PVTZ
  Basis Set: (AUG-CC-PVTZ AUX)
    Blend: AUG-CC-PVTZ-JKFIT
	 Reference Energy          =    -415.5669967923631702 [Eh]
	 Singles Energy            =      -0.0000000000000000 [Eh]
	 Same-Spin Energy          =      -0.3944113382468134 [Eh]
	 Opposite-Spin Energy      =      -1.1673479356978758 [Eh]
	 Correlation Energy        =      -1.5617592739446891 [Eh]
	 Total Energy              =    -417.1287560663078580 [Eh]

	 ================> DF-SCS-MP2 Energies <==================
	-----------------------------------------------------------
	 SCS Same-Spin Scale       =       0.3333333333333333 [-]
	 SCS Opposite-Spin Scale   =       1.2000000000000000 [-]
	 SCS Same-Spin Energy      =      -0.1314704460822711 [Eh]
	 SCS Opposite-Spin Energy  =      -1.4008175228374509 [Eh]
	 SCS Correlation Energy    =      -1.5322879689197220 [Eh]
	 SCS Total Energy          =    -417.0992847612828882 [Eh]
	-----------------------------------------------------------

  Dipole Moment: [D]
     X:     0.2556      Y:    -3.1579      Z:    -0.0847     Total:     3.1694

*** Psi4 exiting successfully. Buy a developer a beer!
