                               Psi4 1.3.2 release

  ==> Input File <==

--------------------------------------------------------------------------
#psi4
#
memory 32 gb

molecule  {
0 1
  O        2.3317040    -0.8186130    -0.0014310
  O       -2.3317020    -0.8186160     0.0009270
  O        1.4266620     1.2613620     0.0018990
  O       -1.4266720     1.2613600    -0.0019020
  C        0.0000050    -0.7381970     0.0004560
  C        1.2840530     0.0565150     0.0003880
  C       -1.2840430     0.0565240    -0.0003020
  H        0.0001740    -1.3456983    -0.7880868
  H       -0.0001890    -1.4057310     0.8689960
  H        3.1367490    -0.2602560    -0.0011430
  H       -3.1367720    -0.2602910     0.0002510
units angstrom
no_reorient  #important for SAPT in psi4, default
symmetry c1  #important for SAPT in psi4, default
}

set PROPERTIES_ORIGIN ["COM"]
properties('MP2/aug-cc-pvtz', properties = ['dipole'])
--------------------------------------------------------------------------

    Molecular point group: c1
  Charge       = 0
  Multiplicity = 1
  Basis Set: AUG-CC-PVTZ
    Blend: AUG-CC-PVTZ
  Basis Set: (AUG-CC-PVTZ AUX)
    Blend: AUG-CC-PVTZ-JKFIT

    Orbital Energies [Eh]
    ---------------------

    Doubly Occupied:

       1A    -20.627735     2A    -20.627730     3A    -20.564416
       4A    -20.564412     5A    -11.407886     6A    -11.407879
       7A    -11.276951     8A     -1.475115     9A     -1.469271
      10A     -1.373268    11A     -1.366548    12A     -1.091537
      13A     -0.892845    14A     -0.801054    15A     -0.732360
      16A     -0.712769    17A     -0.700509    18A     -0.688463
      19A     -0.678746    20A     -0.633911    21A     -0.603957
      22A     -0.594738    23A     -0.577735    24A     -0.496797
      25A     -0.490543    26A     -0.478946    27A     -0.456738

  @DF-RHF Final Energy:  -415.57292796995927

   => Energetics <=

    Nuclear Repulsion Energy =            297.4800693227237502
    One-Electron Energy =               -1160.5202779016808563
    Two-Electron Energy =                 447.4672806089978963
    Total Energy =                       -415.5729279699592666
  Basis Set: (AUG-CC-PVTZ AUX)
    Blend: AUG-CC-PVTZ-RI
    Molecular point group: c1

    Geometry (in Angstrom), charge = 0, multiplicity = 1:

       Center              X                  Y                   Z               Mass
    ------------   -----------------  -----------------  -----------------  -----------------
         O            2.331703867867    -0.850954873936    -0.002190899885    15.994914619570
         O           -2.331702132133    -0.850957873936     0.000167100115    15.994914619570
         O            1.426661867867     1.229020126064     0.001139100115    15.994914619570
         O           -1.426672132133     1.229018126064    -0.002661899885    15.994914619570
         C            0.000004867867    -0.770538873936    -0.000303899885    12.000000000000
         C            1.284052867867     0.024173126064    -0.000371899885    12.000000000000
         C           -1.284043132133     0.024182126064    -0.001061899885    12.000000000000
         H            0.000173867867    -1.378040173936    -0.788846699885     1.007825032230
         H           -0.000189132133    -1.438072873936     0.868236100115     1.007825032230
         H            3.136748867867    -0.292597873936    -0.001902899885     1.007825032230
         H           -3.136772132133    -0.292632873936    -0.000508899885     1.007825032230

  Basis Set: AUG-CC-PVTZ
    Blend: AUG-CC-PVTZ
  Basis Set: (AUG-CC-PVTZ AUX)
    Blend: AUG-CC-PVTZ-JKFIT
	 Reference Energy          =    -415.5729279699592666 [Eh]
	 Singles Energy            =      -0.0000000000000000 [Eh]
	 Same-Spin Energy          =      -0.3933632440026050 [Eh]
	 Opposite-Spin Energy      =      -1.1650513504862787 [Eh]
	 Correlation Energy        =      -1.5584145944888839 [Eh]
	 Total Energy              =    -417.1313425644481754 [Eh]

	 ================> DF-SCS-MP2 Energies <==================
	-----------------------------------------------------------
	 SCS Same-Spin Scale       =       0.3333333333333333 [-]
	 SCS Opposite-Spin Scale   =       1.2000000000000000 [-]
	 SCS Same-Spin Energy      =      -0.1311210813342017 [Eh]
	 SCS Opposite-Spin Energy  =      -1.3980616205835343 [Eh]
	 SCS Correlation Energy    =      -1.5291827019177360 [Eh]
	 SCS Total Energy          =    -417.1021106718770284 [Eh]
	-----------------------------------------------------------

  Dipole Moment: [D]
     X:     0.0000      Y:    -2.7795      Z:     0.0180     Total:     2.7796

*** Psi4 exiting successfully. Buy a developer a beer!
