                               Psi4 1.3.2 release

  ==> Input File <==

--------------------------------------------------------------------------
#psi4
#
memory 32 gb

molecule  {
0 1
  O        2.3317040    -0.8186130    -0.0014310
  O       -2.3317020    -0.8186160     0.0009270
  O        1.4266620     1.2613620     0.0018990
  O       -1.4266720     1.2613600    -0.0019020
  C        0.0000050    -0.7381970     0.0004560
  C        1.2840530     0.0565150     0.0003880
  C       -1.2840430     0.0565240    -0.0003020
  H        0.0001800    -1.4656314    -0.8185558
  H       -0.0001890    -1.4057310     0.8689960
  H        3.1367490    -0.2602560    -0.0011430
  H       -3.1367720    -0.2602910     0.0002510
units angstrom
no_reorient  #important for SAPT in psi4, default
symmetry c1  #important for SAPT in psi4, default
}

set PROPERTIES_ORIGIN ["COM"]
properties('MP2/aug-cc-pvtz', properties = ['dipole'])
--------------------------------------------------------------------------

    Molecular point group: c1
  Charge       = 0
  Multiplicity = 1
  Basis Set: AUG-CC-PVTZ
    Blend: AUG-CC-PVTZ
  Basis Set: (AUG-CC-PVTZ AUX)
    Blend: AUG-CC-PVTZ-JKFIT

    Orbital Energies [Eh]
    ---------------------

    Doubly Occupied:

       1A    -20.627301     2A    -20.627296     3A    -20.564721
       4A    -20.564718     5A    -11.408623     6A    -11.408616
       7A    -11.287512     8A     -1.474879     9A     -1.469105
      10A     -1.373324    11A     -1.366628    12A     -1.082111
      13A     -0.892689    14A     -0.797732    15A     -0.730550
      16A     -0.712697    17A     -0.692587    18A     -0.683260
      19A     -0.678918    20A     -0.633686    21A     -0.604042
      22A     -0.594739    23A     -0.565872    24A     -0.496115
      25A     -0.490603    26A     -0.479912    27A     -0.456807

  @DF-RHF Final Energy:  -415.57802401133819

   => Energetics <=

    Nuclear Repulsion Energy =            296.8984943803458236
    One-Electron Energy =               -1159.4229463349588514
    Two-Electron Energy =                 446.9464279432748413
    Total Energy =                       -415.5780240113381865
  Basis Set: (AUG-CC-PVTZ AUX)
    Blend: AUG-CC-PVTZ-RI
    Molecular point group: c1

    Geometry (in Angstrom), charge = 0, multiplicity = 1:

       Center              X                  Y                   Z               Mass
    ------------   -----------------  -----------------  -----------------  -----------------
         O            2.331703809729    -0.849792769654    -0.001895667331    15.994914619570
         O           -2.331702190271    -0.849795769654     0.000462332669    15.994914619570
         O            1.426661809729     1.230182230346     0.001434332669    15.994914619570
         O           -1.426672190271     1.230180230346    -0.002366667331    15.994914619570
         C            0.000004809729    -0.769376769654    -0.000008667331    12.000000000000
         C            1.284052809729     0.025335230346    -0.000076667331    12.000000000000
         C           -1.284043190271     0.025344230346    -0.000766667331    12.000000000000
         H            0.000179809729    -1.496811169654    -0.819020467331     1.007825032230
         H           -0.000189190271    -1.436910769654     0.868531332669     1.007825032230
         H            3.136748809729    -0.291435769654    -0.001607667331     1.007825032230
         H           -3.136772190271    -0.291470769654    -0.000213667331     1.007825032230

  Basis Set: AUG-CC-PVTZ
    Blend: AUG-CC-PVTZ
  Basis Set: (AUG-CC-PVTZ AUX)
    Blend: AUG-CC-PVTZ-JKFIT
	 Reference Energy          =    -415.5780240113381865 [Eh]
	 Singles Energy            =      -0.0000000000000000 [Eh]
	 Same-Spin Energy          =      -0.3935243471485508 [Eh]
	 Opposite-Spin Energy      =      -1.1655574329376148 [Eh]
	 Correlation Energy        =      -1.5590817800861656 [Eh]
	 Total Energy              =    -417.1371057914243465 [Eh]

	 ================> DF-SCS-MP2 Energies <==================
	-----------------------------------------------------------
	 SCS Same-Spin Scale       =       0.3333333333333333 [-]
	 SCS Opposite-Spin Scale   =       1.2000000000000000 [-]
	 SCS Same-Spin Energy      =      -0.1311747823828502 [Eh]
	 SCS Opposite-Spin Energy  =      -1.3986689195251378 [Eh]
	 SCS Correlation Energy    =      -1.5298437019079880 [Eh]
	 SCS Total Energy          =    -417.1078677132461507 [Eh]
	-----------------------------------------------------------

  Dipole Moment: [D]
     X:     0.0000      Y:    -2.8260      Z:     0.0198     Total:     2.8260

*** Psi4 exiting successfully. Buy a developer a beer!
