                               Psi4 1.3.2 release

  ==> Input File <==

--------------------------------------------------------------------------
#psi4
#
memory 32 gb

molecule  {
0 1
  O        2.3317040    -0.8186130    -0.0014310
  O       -2.3317020    -0.8186160     0.0009270
  O        1.4266620     1.2613620     0.0018990
  O       -1.4266720     1.2613600    -0.0019020
  C        0.0000050    -0.7381970     0.0004560
  C        1.2840530     0.0565150     0.0003880
  C       -1.2840430     0.0565240    -0.0003020
  H        0.0002250    -1.5287875    -1.0257385
  H       -0.0001890    -1.4057310     0.8689960
  H        3.1367490    -0.2602560    -0.0011430
  H       -3.1367720    -0.2602910     0.0002510
units angstrom
no_reorient  #important for SAPT in psi4, default
symmetry c1  #important for SAPT in psi4, default
}

set PROPERTIES_ORIGIN ["COM"]
properties('MP2/aug-cc-pvtz', properties = ['dipole'])
--------------------------------------------------------------------------

    Molecular point group: c1
  Charge       = 0
  Multiplicity = 1
  Basis Set: AUG-CC-PVTZ
    Blend: AUG-CC-PVTZ
  Basis Set: (AUG-CC-PVTZ AUX)
    Blend: AUG-CC-PVTZ-JKFIT

    Orbital Energies [Eh]
    ---------------------

    Doubly Occupied:

       1A    -20.626786     2A    -20.626780     3A    -20.565251
       4A    -20.565246     5A    -11.409175     6A    -11.409168
       7A    -11.306686     8A     -1.474681     9A     -1.468940
      10A     -1.373436    11A     -1.366771    12A     -1.071459
      13A     -0.892922    14A     -0.793292    15A     -0.726096
      16A     -0.712563    17A     -0.689529    18A     -0.679450
      19A     -0.667597    20A     -0.633520    21A     -0.599963
      22A     -0.595146    23A     -0.549379    24A     -0.495141
      25A     -0.490668    26A     -0.476419    27A     -0.457265

  @DF-RHF Final Energy:  -415.55802673600255

   => Energetics <=

    Nuclear Repulsion Energy =            296.0376365381760593
    One-Electron Energy =               -1157.7446715529436005
    Two-Electron Energy =                 446.1490082787650522
    Total Energy =                       -415.5580267360025459
  Basis Set: (AUG-CC-PVTZ AUX)
    Blend: AUG-CC-PVTZ-RI
    Molecular point group: c1

    Geometry (in Angstrom), charge = 0, multiplicity = 1:

       Center              X                  Y                   Z               Mass
    ------------   -----------------  -----------------  -----------------  -----------------
         O            2.331703373697    -0.849180812035     0.000111851051    15.994914619570
         O           -2.331702626303    -0.849183812035     0.002469851051    15.994914619570
         O            1.426661373697     1.230794187965     0.003441851051    15.994914619570
         O           -1.426672626303     1.230792187965    -0.000359148949    15.994914619570
         C            0.000004373697    -0.768764812035     0.001998851051    12.000000000000
         C            1.284052373697     0.025947187965     0.001930851051    12.000000000000
         C           -1.284043626303     0.025956187965     0.001240851051    12.000000000000
         H            0.000224373697    -1.559355312035    -1.024195648949     1.007825032230
         H           -0.000189626303    -1.436298812035     0.870538851051     1.007825032230
         H            3.136748373697    -0.290823812035     0.000399851051     1.007825032230
         H           -3.136772626303    -0.290858812035     0.001793851051     1.007825032230

  Basis Set: AUG-CC-PVTZ
    Blend: AUG-CC-PVTZ
  Basis Set: (AUG-CC-PVTZ AUX)
    Blend: AUG-CC-PVTZ-JKFIT
	 Reference Energy          =    -415.5580267360025459 [Eh]
	 Singles Energy            =      -0.0000000000000000 [Eh]
	 Same-Spin Energy          =      -0.3937123253411294 [Eh]
	 Opposite-Spin Energy      =      -1.1672992333868550 [Eh]
	 Correlation Energy        =      -1.5610115587279845 [Eh]
	 Total Energy              =    -417.1190382947305579 [Eh]

	 ================> DF-SCS-MP2 Energies <==================
	-----------------------------------------------------------
	 SCS Same-Spin Scale       =       0.3333333333333333 [-]
	 SCS Opposite-Spin Scale   =       1.2000000000000000 [-]
	 SCS Same-Spin Energy      =      -0.1312374417803764 [Eh]
	 SCS Opposite-Spin Energy  =      -1.4007590800642260 [Eh]
	 SCS Correlation Energy    =      -1.5319965218446026 [Eh]
	 SCS Total Energy          =    -417.0900232578471218 [Eh]
	-----------------------------------------------------------

  Dipole Moment: [D]
     X:     0.0002      Y:    -2.7890      Z:    -0.0228     Total:     2.7891

*** Psi4 exiting successfully. Buy a developer a beer!
