                               Psi4 1.3.2 release

  ==> Input File <==

--------------------------------------------------------------------------
#psi4
#
memory 32 gb

molecule  {
0 1
  O        2.3317040    -0.8186130    -0.0014310
  O       -2.3317020    -0.8186160     0.0009270
  O        1.4266620     1.2613620     0.0018990
  O       -1.4266720     1.2613600    -0.0019020
  C        0.0000050    -0.7381970     0.0004560
  C        1.2555357     0.1008435     0.0003573
  C       -1.2840430     0.0565240    -0.0003020
  H        0.0001910    -1.4067280    -0.8673040
  H       -0.0001890    -1.4057310     0.8689960
  H        3.1367490    -0.2602560    -0.0011430
  H       -3.1367720    -0.2602910     0.0002510
units angstrom
no_reorient  #important for SAPT in psi4, default
symmetry c1  #important for SAPT in psi4, default
}

set PROPERTIES_ORIGIN ["COM"]
properties('MP2/aug-cc-pvtz', properties = ['dipole'])
--------------------------------------------------------------------------

    Molecular point group: c1
  Charge       = 0
  Multiplicity = 1
  Basis Set: AUG-CC-PVTZ
    Blend: AUG-CC-PVTZ
  Basis Set: (AUG-CC-PVTZ AUX)
    Blend: AUG-CC-PVTZ-JKFIT

    Orbital Energies [Eh]
    ---------------------

    Doubly Occupied:

       1A    -20.628083     2A    -20.612388     3A    -20.574160
       4A    -20.566568     5A    -11.408956     6A    -11.405703
       7A    -11.288545     8A     -1.476365     9A     -1.469222
      10A     -1.375720    11A     -1.370423    12A     -1.083163
      13A     -0.885739    14A     -0.787848    15A     -0.731637
      16A     -0.713341    17A     -0.690495    18A     -0.686680
      19A     -0.676599    20A     -0.630817    21A     -0.609919
      22A     -0.595556    23A     -0.567583    24A     -0.505555
      25A     -0.494404    26A     -0.482107    27A     -0.458038

  @DF-RHF Final Energy:  -415.57717745373924

   => Energetics <=

    Nuclear Repulsion Energy =            297.1999421912317416
    One-Electron Energy =               -1160.0030130507061585
    Two-Electron Energy =                 447.2258934057352349
    Total Energy =                       -415.5771774537392389
  Basis Set: (AUG-CC-PVTZ AUX)
    Blend: AUG-CC-PVTZ-RI
    Molecular point group: c1

    Geometry (in Angstrom), charge = 0, multiplicity = 1:

       Center              X                  Y                   Z               Mass
    ------------   -----------------  -----------------  -----------------  -----------------
         O            2.334993814153    -0.855477808316    -0.001419774628    15.994914619570
         O           -2.328412185847    -0.855480808316     0.000938225372    15.994914619570
         O            1.429951814153     1.224497191684     0.001910225372    15.994914619570
         O           -1.423382185847     1.224495191684    -0.001890774628    15.994914619570
         C            0.003294814153    -0.775061808316     0.000467225372    12.000000000000
         C            1.258825514153     0.063978691684     0.000368525372    12.000000000000
         C           -1.280753185847     0.019659191684    -0.000290774628    12.000000000000
         H            0.003480814153    -1.443592808316    -0.867292774628     1.007825032230
         H            0.003100814153    -1.442595808316     0.869007225372     1.007825032230
         H            3.140038814153    -0.297120808316    -0.001131774628     1.007825032230
         H           -3.133482185847    -0.297155808316     0.000262225372     1.007825032230

  Basis Set: AUG-CC-PVTZ
    Blend: AUG-CC-PVTZ
  Basis Set: (AUG-CC-PVTZ AUX)
    Blend: AUG-CC-PVTZ-JKFIT
	 Reference Energy          =    -415.5771774537392389 [Eh]
	 Singles Energy            =      -0.0000000000000000 [Eh]
	 Same-Spin Energy          =      -0.3929430505152587 [Eh]
	 Opposite-Spin Energy      =      -1.1647957250990173 [Eh]
	 Correlation Energy        =      -1.5577387756142760 [Eh]
	 Total Energy              =    -417.1349162293535073 [Eh]

	 ================> DF-SCS-MP2 Energies <==================
	-----------------------------------------------------------
	 SCS Same-Spin Scale       =       0.3333333333333333 [-]
	 SCS Opposite-Spin Scale   =       1.2000000000000000 [-]
	 SCS Same-Spin Energy      =      -0.1309810168384196 [Eh]
	 SCS Opposite-Spin Energy  =      -1.3977548701188207 [Eh]
	 SCS Correlation Energy    =      -1.5287358869572403 [Eh]
	 SCS Total Energy          =    -417.1059133406964747 [Eh]
	-----------------------------------------------------------

  Dipole Moment: [D]
     X:    -0.2784      Y:    -2.4365      Z:     0.0009     Total:     2.4524

*** Psi4 exiting successfully. Buy a developer a beer!
