                               Psi4 1.3.2 release

  ==> Input File <==

--------------------------------------------------------------------------
#psi4
#
memory 32 gb

molecule  {
0 1
  O        2.3317040    -0.8186130    -0.0014310
  O       -2.3317020    -0.8186160     0.0009270
  O        1.4266620     1.2613620     0.0018990
  O       -1.4266720     1.2613600    -0.0019020
  C        0.0000050    -0.7381970     0.0004560
  C        1.1990213     0.0038879     0.0003925
  C       -1.2840430     0.0565240    -0.0003020
  H        0.0001910    -1.4067280    -0.8673040
  H       -0.0001890    -1.4057310     0.8689960
  H        3.1367490    -0.2602560    -0.0011430
  H       -3.1367720    -0.2602910     0.0002510
units angstrom
no_reorient  #important for SAPT in psi4, default
symmetry c1  #important for SAPT in psi4, default
}

set PROPERTIES_ORIGIN ["COM"]
properties('MP2/aug-cc-pvtz', properties = ['dipole'])
--------------------------------------------------------------------------

    Molecular point group: c1
  Charge       = 0
  Multiplicity = 1
  Basis Set: AUG-CC-PVTZ
    Blend: AUG-CC-PVTZ
  Basis Set: (AUG-CC-PVTZ AUX)
    Blend: AUG-CC-PVTZ-JKFIT

    Orbital Energies [Eh]
    ---------------------

    Doubly Occupied:

       1A    -20.632832     2A    -20.619149     3A    -20.570356
       4A    -20.560105     5A    -11.415678     6A    -11.415328
       7A    -11.293387     8A     -1.478008     9A     -1.445538
      10A     -1.375686    11A     -1.330227    12A     -1.114294
      13A     -0.905038    14A     -0.795237    15A     -0.737151
      16A     -0.710603    17A     -0.696431    18A     -0.682693
      19A     -0.680176    20A     -0.628580    21A     -0.605332
      22A     -0.589295    23A     -0.568620    24A     -0.498591
      25A     -0.481515    26A     -0.470952    27A     -0.455092

  @DF-RHF Final Energy:  -415.55511515108304

   => Energetics <=

    Nuclear Repulsion Energy =            296.9920947124132340
    One-Electron Energy =               -1159.5826295782999296
    Two-Electron Energy =                 447.0354197148035951
    Total Energy =                       -415.5551151510830437
  Basis Set: (AUG-CC-PVTZ AUX)
    Blend: AUG-CC-PVTZ-RI
    Molecular point group: c1

    Geometry (in Angstrom), charge = 0, multiplicity = 1:

       Center              X                  Y                   Z               Mass
    ------------   -----------------  -----------------  -----------------  -----------------
         O            2.341514019418    -0.844291802384    -0.001423835739    15.994914619570
         O           -2.321891980582    -0.844294802384     0.000934164261    15.994914619570
         O            1.436472019418     1.235683197616     0.001906164261    15.994914619570
         O           -1.416861980582     1.235681197616    -0.001894835739    15.994914619570
         C            0.009815019418    -0.763875802384     0.000463164261    12.000000000000
         C            1.208831319418    -0.021790902384     0.000399664261    12.000000000000
         C           -1.274232980582     0.030845197616    -0.000294835739    12.000000000000
         H            0.010001019418    -1.432406802384    -0.867296835739     1.007825032230
         H            0.009621019418    -1.431409802384     0.869003164261     1.007825032230
         H            3.146559019418    -0.285934802384    -0.001135835739     1.007825032230
         H           -3.126961980582    -0.285969802384     0.000258164261     1.007825032230

  Basis Set: AUG-CC-PVTZ
    Blend: AUG-CC-PVTZ
  Basis Set: (AUG-CC-PVTZ AUX)
    Blend: AUG-CC-PVTZ-JKFIT
	 Reference Energy          =    -415.5551151510830437 [Eh]
	 Singles Energy            =      -0.0000000000000000 [Eh]
	 Same-Spin Energy          =      -0.3960525344279608 [Eh]
	 Opposite-Spin Energy      =      -1.1710026972901404 [Eh]
	 Correlation Energy        =      -1.5670552317181012 [Eh]
	 Total Energy              =    -417.1221703828011300 [Eh]

	 ================> DF-SCS-MP2 Energies <==================
	-----------------------------------------------------------
	 SCS Same-Spin Scale       =       0.3333333333333333 [-]
	 SCS Opposite-Spin Scale   =       1.2000000000000000 [-]
	 SCS Same-Spin Energy      =      -0.1320175114759869 [Eh]
	 SCS Opposite-Spin Energy  =      -1.4052032367481684 [Eh]
	 SCS Correlation Energy    =      -1.5372207482241553 [Eh]
	 SCS Total Energy          =    -417.0923358993072156 [Eh]
	-----------------------------------------------------------

  Dipole Moment: [D]
     X:    -0.5661      Y:    -2.9871      Z:     0.0004     Total:     3.0403

*** Psi4 exiting successfully. Buy a developer a beer!
