                               Psi4 1.3.2 release

  ==> Input File <==

--------------------------------------------------------------------------
#psi4
#
memory 32 gb

molecule  {
0 1
  O        2.3317040    -0.8186130    -0.0014310
  O       -2.3317020    -0.8186160     0.0009270
  O        1.4266620     1.2613620     0.0018990
  O       -1.4266720     1.2613600    -0.0019020
  C        0.0000050    -0.7381970     0.0004560
  C        1.2840530     0.0565150     0.0003880
  C       -1.2840430     0.0565240    -0.0003020
  H        0.0001883    -1.4217707    -0.8555044
  H       -0.0001890    -1.4057310     0.8689960
  H        3.1367490    -0.2602560    -0.0011430
  H       -3.1367720    -0.2602910     0.0002510
units angstrom
no_reorient  #important for SAPT in psi4, default
symmetry c1  #important for SAPT in psi4, default
}

set PROPERTIES_ORIGIN ["COM"]
properties('MP2/aug-cc-pvtz', properties = ['dipole'])
--------------------------------------------------------------------------

    Molecular point group: c1
  Charge       = 0
  Multiplicity = 1
  Basis Set: AUG-CC-PVTZ
    Blend: AUG-CC-PVTZ
  Basis Set: (AUG-CC-PVTZ AUX)
    Blend: AUG-CC-PVTZ-JKFIT

    Orbital Energies [Eh]
    ---------------------

    Doubly Occupied:

       1A    -20.627354     2A    -20.627349     3A    -20.564594
       4A    -20.564591     5A    -11.408277     6A    -11.408270
       7A    -11.287656     8A     -1.474878     9A     -1.469097
      10A     -1.373258    11A     -1.366555    12A     -1.082300
      13A     -0.892742    14A     -0.797261    15A     -0.729111
      16A     -0.712644    17A     -0.690850    18A     -0.685990
      19A     -0.678878    20A     -0.633725    21A     -0.602616
      22A     -0.594743    23A     -0.569327    24A     -0.496299
      25A     -0.490539    26A     -0.478806    27A     -0.456782

  @DF-RHF Final Energy:  -415.57864734208283

   => Energetics <=

    Nuclear Repulsion Energy =            296.9364581235948890
    One-Electron Energy =               -1159.5012288561174501
    Two-Electron Energy =                 446.9861233904397295
    Total Energy =                       -415.5786473420828315
  Basis Set: (AUG-CC-PVTZ AUX)
    Blend: AUG-CC-PVTZ-RI
    Molecular point group: c1

    Geometry (in Angstrom), charge = 0, multiplicity = 1:

       Center              X                  Y                   Z               Mass
    ------------   -----------------  -----------------  -----------------  -----------------
         O            2.331703729305    -0.850217762481    -0.001537650018    15.994914619570
         O           -2.331702270695    -0.850220762481     0.000820349982    15.994914619570
         O            1.426661729305     1.229757237519     0.001792349982    15.994914619570
         O           -1.426672270695     1.229755237519    -0.002008650018    15.994914619570
         C            0.000004729305    -0.769801762481     0.000349349982    12.000000000000
         C            1.284052729305     0.024910237519     0.000281349982    12.000000000000
         C           -1.284043270695     0.024919237519    -0.000408650018    12.000000000000
         H            0.000188029305    -1.453375462481    -0.855611050018     1.007825032230
         H           -0.000189270695    -1.437335762481     0.868889349982     1.007825032230
         H            3.136748729305    -0.291860762481    -0.001249650018     1.007825032230
         H           -3.136772270695    -0.291895762481     0.000144349982     1.007825032230

  Basis Set: AUG-CC-PVTZ
    Blend: AUG-CC-PVTZ
  Basis Set: (AUG-CC-PVTZ AUX)
    Blend: AUG-CC-PVTZ-JKFIT
	 Reference Energy          =    -415.5786473420828315 [Eh]
	 Singles Energy            =      -0.0000000000000000 [Eh]
	 Same-Spin Energy          =      -0.3934492114442882 [Eh]
	 Opposite-Spin Energy      =      -1.1655158033783677 [Eh]
	 Correlation Energy        =      -1.5589650148226559 [Eh]
	 Total Energy              =    -417.1376123569054926 [Eh]

	 ================> DF-SCS-MP2 Energies <==================
	-----------------------------------------------------------
	 SCS Same-Spin Scale       =       0.3333333333333333 [-]
	 SCS Opposite-Spin Scale   =       1.2000000000000000 [-]
	 SCS Same-Spin Energy      =      -0.1311497371480961 [Eh]
	 SCS Opposite-Spin Energy  =      -1.3986189640540412 [Eh]
	 SCS Correlation Energy    =      -1.5297687012021373 [Eh]
	 SCS Total Energy          =    -417.1084160432849899 [Eh]
	-----------------------------------------------------------

  Dipole Moment: [D]
     X:     0.0000      Y:    -2.7978      Z:     0.0048     Total:     2.7978

*** Psi4 exiting successfully. Buy a developer a beer!
