                               Psi4 1.4a3.dev225

  ==> Input File <==

--------------------------------------------------------------------------
#psi4
#
memory 32 gb

molecule  {
0 1
  O       -1.5693130     0.6792620     0.9775650
  O        2.3881200    -0.4231710     0.2741620
  O       -1.9867550    -0.4638000    -0.9394160
  O        1.0534040     1.1518790    -0.6703260
  C        0.0711740    -0.8607350     0.2805240
  C       -1.3107475    -0.2003548     0.0010011
  C        1.1867570     0.0868330    -0.0975870
  H        0.1681380    -1.1264420     1.3368470
  H        0.1588640    -1.7718550    -0.3168650
  H       -2.4173420     1.0883610     0.7068920
  H        3.0573020     0.2293680    -0.0202400
units angstrom
no_reorient  #important for SAPT in psi4, default
symmetry c1  #important for SAPT in psi4, default
}

set PROPERTIES_ORIGIN ["COM"]
properties('MP2/aug-cc-pvtz', properties = ['dipole'])
--------------------------------------------------------------------------

    Molecular point group: c1
  Charge       = 0
  Multiplicity = 1
  Basis Set: AUG-CC-PVTZ
    Blend: AUG-CC-PVTZ
  Basis Set: (AUG-CC-PVTZ AUX)
    Blend: AUG-CC-PVTZ-JKFIT

    Orbital Energies [Eh]
    ---------------------

    Doubly Occupied:

       1A    -20.632609     2A    -20.630909     3A    -20.569190
       4A    -20.567055     5A    -11.412676     6A    -11.403987
       7A    -11.280044     8A     -1.486778     9A     -1.476242
      10A     -1.389382    11A     -1.375626    12A     -1.069355
      13A     -0.882265    14A     -0.810305    15A     -0.725497
      16A     -0.723521    17A     -0.712807    18A     -0.689234
      19A     -0.662659    20A     -0.640788    21A     -0.598376
      22A     -0.592446    23A     -0.575778    24A     -0.506953
      25A     -0.495387    26A     -0.473848    27A     -0.466059

  @DF-RHF Final Energy:  -415.58556518625545

   => Energetics <=

    Nuclear Repulsion Energy =            300.3006621718466818
    One-Electron Energy =               -1166.0729030236707331
    Two-Electron Energy =                 450.1866756655686572
    Total Energy =                       -415.5855651862554510
  Basis Set: (AUG-CC-PVTZ AUX)
    Blend: AUG-CC-PVTZ-RI
    Molecular point group: c1

    Geometry (in Angstrom), charge = 0, multiplicity = 1:

       Center              X                  Y                   Z               Mass
    ------------   -----------------  -----------------  -----------------  -----------------
         O           -1.554974212902     0.661784024937     0.994862924330    15.994914619570
         O            2.402458787098    -0.440648975063     0.291459924330    15.994914619570
         O           -1.972416212902    -0.481277975063    -0.922118075670    15.994914619570
         O            1.067742787098     1.134401024937    -0.653028075670    15.994914619570
         C            0.085512787098    -0.878212975063     0.297821924330    12.000000000000
         C           -1.296408712902    -0.217832775063     0.018299024330    12.000000000000
         C            1.201095787098     0.069355024937    -0.080289075670    12.000000000000
         H            0.182476787098    -1.143919975063     1.354144924330     1.007825032230
         H            0.173202787098    -1.789332975063    -0.299567075670     1.007825032230
         H           -2.403003212902     1.070883024937     0.724189924330     1.007825032230
         H            3.071640787098     0.211890024937    -0.002942075670     1.007825032230

  Basis Set: AUG-CC-PVTZ
    Blend: AUG-CC-PVTZ
  Basis Set: (AUG-CC-PVTZ AUX)
    Blend: AUG-CC-PVTZ-JKFIT
	 Reference Energy          =    -415.5855651862554510 [Eh]
	 Singles Energy            =      -0.0000000000000000 [Eh]
	 Same-Spin Energy          =      -0.3921984486979362 [Eh]
	 Opposite-Spin Energy      =      -1.1627702069077182 [Eh]
	 Correlation Energy        =      -1.5549686556056543 [Eh]
	 Total Energy              =    -417.1405338418610995 [Eh]

	 ================> DF-SCS-MP2 Energies <==================
	-----------------------------------------------------------
	 SCS Same-Spin Scale       =       0.3333333333333333 [-]
	 SCS Opposite-Spin Scale   =       1.2000000000000000 [-]
	 SCS Same-Spin Energy      =      -0.1307328162326454 [Eh]
	 SCS Opposite-Spin Energy  =      -1.3953242482892618 [Eh]
	 SCS Correlation Energy    =      -1.5260570645219071 [Eh]
	 SCS Total Energy          =    -417.1116222507773728 [Eh]
	-----------------------------------------------------------

  Dipole Moment: [D]
     X:     0.9456      Y:    -0.5865      Z:     1.8337     Total:     2.1449

*** Psi4 exiting successfully. Buy a developer a beer!
