                               Psi4 1.3.2 release

  ==> Input File <==

--------------------------------------------------------------------------
#psi4
#
memory 32 gb

molecule  {
0 1
  O        2.3317040    -0.8186130    -0.0014310
  O       -2.3317020    -0.8186160     0.0009270
  O        1.4266620     1.2613620     0.0018990
  O       -1.4266720     1.2613600    -0.0019020
  C        0.0000050    -0.7381970     0.0004560
  C        1.2984690     0.0314708    -0.0436939
  C       -1.2840430     0.0565240    -0.0003020
  H        0.0001910    -1.4067280    -0.8673040
  H       -0.0001890    -1.4057310     0.8689960
  H        3.1367490    -0.2602560    -0.0011430
  H       -3.1367720    -0.2602910     0.0002510
units angstrom
no_reorient  #important for SAPT in psi4, default
symmetry c1  #important for SAPT in psi4, default
}

set PROPERTIES_ORIGIN ["COM"]
properties('MP2/aug-cc-pvtz', properties = ['dipole'])
--------------------------------------------------------------------------

    Molecular point group: c1
  Charge       = 0
  Multiplicity = 1
  Basis Set: AUG-CC-PVTZ
    Blend: AUG-CC-PVTZ
  Basis Set: (AUG-CC-PVTZ AUX)
    Blend: AUG-CC-PVTZ-JKFIT

    Orbital Energies [Eh]
    ---------------------

    Doubly Occupied:

       1A    -20.635133     2A    -20.627092     3A    -20.563575
       4A    -20.559263     5A    -11.409797     6A    -11.407876
       7A    -11.287721     8A     -1.480410     9A     -1.470747
      10A     -1.370277    11A     -1.357895    12A     -1.082283
      13A     -0.897491    14A     -0.802700    15A     -0.727404
      16A     -0.713862    17A     -0.690401    18A     -0.688056
      19A     -0.679798    20A     -0.636622    21A     -0.599412
      22A     -0.590639    23A     -0.572256    24A     -0.493392
      25A     -0.483959    26A     -0.475757    27A     -0.455211

  @DF-RHF Final Energy:  -415.57518446233962

   => Energetics <=

    Nuclear Repulsion Energy =            296.8079948094832616
    One-Electron Energy =               -1159.2482929664836320
    Two-Electron Energy =                 446.8651136946607494
    Total Energy =                       -415.5751844623396209
  Basis Set: (AUG-CC-PVTZ AUX)
    Blend: AUG-CC-PVTZ-RI
    Molecular point group: c1

    Geometry (in Angstrom), charge = 0, multiplicity = 1:

       Center              X                  Y                   Z               Mass
    ------------   -----------------  -----------------  -----------------  -----------------
         O            2.330040493782    -0.847474109368     0.003662520613    15.994914619570
         O           -2.333365506218    -0.847477109368     0.006020520613    15.994914619570
         O            1.424998493782     1.232500890632     0.006992520613    15.994914619570
         O           -1.428335506218     1.232498890632     0.003191520613    15.994914619570
         C           -0.001658506218    -0.767058109368     0.005549520613    12.000000000000
         C            1.296805493782     0.002609690632    -0.038600379387    12.000000000000
         C           -1.285706506218     0.027662890632     0.004791520613    12.000000000000
         H           -0.001472506218    -1.435589109368    -0.862210479387     1.007825032230
         H           -0.001852506218    -1.434592109368     0.874089520613     1.007825032230
         H            3.135085493782    -0.289117109368     0.003950520613     1.007825032230
         H           -3.138435506218    -0.289152109368     0.005344520613     1.007825032230

  Basis Set: AUG-CC-PVTZ
    Blend: AUG-CC-PVTZ
  Basis Set: (AUG-CC-PVTZ AUX)
    Blend: AUG-CC-PVTZ-JKFIT
	 Reference Energy          =    -415.5751844623396209 [Eh]
	 Singles Energy            =      -0.0000000000000000 [Eh]
	 Same-Spin Energy          =      -0.3938332048274140 [Eh]
	 Opposite-Spin Energy      =      -1.1662045200604014 [Eh]
	 Correlation Energy        =      -1.5600377248878154 [Eh]
	 Total Energy              =    -417.1352221872274413 [Eh]

	 ================> DF-SCS-MP2 Energies <==================
	-----------------------------------------------------------
	 SCS Same-Spin Scale       =       0.3333333333333333 [-]
	 SCS Opposite-Spin Scale   =       1.2000000000000000 [-]
	 SCS Same-Spin Energy      =      -0.1312777349424713 [Eh]
	 SCS Opposite-Spin Energy  =      -1.3994454240724816 [Eh]
	 SCS Correlation Energy    =      -1.5307231590149530 [Eh]
	 SCS Total Energy          =    -417.1059076213545609 [Eh]
	-----------------------------------------------------------

  Dipole Moment: [D]
     X:     0.1364      Y:    -2.9773      Z:    -0.0453     Total:     2.9807

*** Psi4 exiting successfully. Buy a developer a beer!
