                               Psi4 1.3.2 release

  ==> Input File <==

--------------------------------------------------------------------------
#psi4
#
memory 32 gb

molecule  {
0 1
  O        2.3317040    -0.8186130    -0.0014310
  O       -2.3317020    -0.8186160     0.0009270
  O        1.4266620     1.2613620     0.0018990
  O       -1.4266720     1.2613600    -0.0019020
  C        0.0000050    -0.7381970     0.0004560
  C        1.1139896    -0.0487392     0.0003970
  C       -1.2840430     0.0565240    -0.0003020
  H        0.0001910    -1.4067280    -0.8673040
  H       -0.0001890    -1.4057310     0.8689960
  H        3.1367490    -0.2602560    -0.0011430
  H       -3.1367720    -0.2602910     0.0002510
units angstrom
no_reorient  #important for SAPT in psi4, default
symmetry c1  #important for SAPT in psi4, default
}

set PROPERTIES_ORIGIN ["COM"]
properties('MP2/aug-cc-pvtz', properties = ['dipole'])
--------------------------------------------------------------------------

    Molecular point group: c1
  Charge       = 0
  Multiplicity = 1
  Basis Set: AUG-CC-PVTZ
    Blend: AUG-CC-PVTZ
  Basis Set: (AUG-CC-PVTZ AUX)
    Blend: AUG-CC-PVTZ-JKFIT

    Orbital Energies [Eh]
    ---------------------

    Doubly Occupied:

       1A    -20.638592     2A    -20.610439     3A    -20.576587
       4A    -20.555146     5A    -11.423022     6A    -11.422694
       7A    -11.296394     8A     -1.483928     9A     -1.420281
      10A     -1.381240    11A     -1.293307    12A     -1.151960
      13A     -0.918015    14A     -0.791448    15A     -0.749935
      16A     -0.714850    17A     -0.710292    18A     -0.688838
      19A     -0.666409    20A     -0.629944    21A     -0.613630
      22A     -0.568648    23A     -0.559576    24A     -0.503493
      25A     -0.485201    26A     -0.449635    27A     -0.446169

  @DF-RHF Final Energy:  -415.49836371372010

   => Energetics <=

    Nuclear Repulsion Energy =            297.1937920334280534
    One-Electron Energy =               -1159.8849634199525553
    Two-Electron Energy =                 447.1928076728044061
    Total Energy =                       -415.4983637137200958
  Basis Set: (AUG-CC-PVTZ AUX)
    Blend: AUG-CC-PVTZ-RI
    Molecular point group: c1

    Geometry (in Angstrom), charge = 0, multiplicity = 1:

       Center              X                  Y                   Z               Mass
    ------------   -----------------  -----------------  -----------------  -----------------
         O            2.351324335693    -0.838220084476    -0.001424354915    15.994914619570
         O           -2.312081664307    -0.838223084476     0.000933645085    15.994914619570
         O            1.446282335693     1.241754915524     0.001905645085    15.994914619570
         O           -1.407051664307     1.241752915524    -0.001895354915    15.994914619570
         C            0.019625335693    -0.757804084476     0.000462645085    12.000000000000
         C            1.133609935693    -0.068346284476     0.000403645085    12.000000000000
         C           -1.264422664307     0.036916915524    -0.000295354915    12.000000000000
         H            0.019811335693    -1.426335084476    -0.867297354915     1.007825032230
         H            0.019431335693    -1.425338084476     0.869002645085     1.007825032230
         H            3.156369335693    -0.279863084476    -0.001136354915     1.007825032230
         H           -3.117151664307    -0.279898084476     0.000257645085     1.007825032230

  Basis Set: AUG-CC-PVTZ
    Blend: AUG-CC-PVTZ
  Basis Set: (AUG-CC-PVTZ AUX)
    Blend: AUG-CC-PVTZ-JKFIT
	 Reference Energy          =    -415.4983637137200958 [Eh]
	 Singles Energy            =      -0.0000000000000000 [Eh]
	 Same-Spin Energy          =      -0.3997950623098525 [Eh]
	 Opposite-Spin Energy      =      -1.1785390036707550 [Eh]
	 Correlation Energy        =      -1.5783340659806075 [Eh]
	 Total Energy              =    -417.0766977797006803 [Eh]

	 ================> DF-SCS-MP2 Energies <==================
	-----------------------------------------------------------
	 SCS Same-Spin Scale       =       0.3333333333333333 [-]
	 SCS Opposite-Spin Scale   =       1.2000000000000000 [-]
	 SCS Same-Spin Energy      =      -0.1332650207699508 [Eh]
	 SCS Opposite-Spin Energy  =      -1.4142468044049059 [Eh]
	 SCS Correlation Energy    =      -1.5475118251748567 [Eh]
	 SCS Total Energy          =    -417.0458755388949612 [Eh]
	-----------------------------------------------------------

  Dipole Moment: [D]
     X:    -1.1398      Y:    -3.1315      Z:     0.0006     Total:     3.3325

*** Psi4 exiting successfully. Buy a developer a beer!
