                               Psi4 1.3.2 release

  ==> Input File <==

--------------------------------------------------------------------------
#psi4
#
memory 32 gb

molecule  {
0 1
  O        2.3317040    -0.8186130    -0.0014310
  O       -2.3317020    -0.8186160     0.0009270
  O        1.4266620     1.2613620     0.0018990
  O       -1.4266720     1.2613600    -0.0019020
  C        0.0000050    -0.7381970     0.0004560
  C        1.2840530     0.0565150     0.0003880
  C       -1.2840430     0.0565240    -0.0003020
  H        0.0001856    -1.4366051    -0.8434440
  H       -0.0001890    -1.4057310     0.8689960
  H        3.1367490    -0.2602560    -0.0011430
  H       -3.1367720    -0.2602910     0.0002510
units angstrom
no_reorient  #important for SAPT in psi4, default
symmetry c1  #important for SAPT in psi4, default
}

set PROPERTIES_ORIGIN ["COM"]
properties('MP2/aug-cc-pvtz', properties = ['dipole'])
--------------------------------------------------------------------------

    Molecular point group: c1
  Charge       = 0
  Multiplicity = 1
  Basis Set: AUG-CC-PVTZ
    Blend: AUG-CC-PVTZ
  Basis Set: (AUG-CC-PVTZ AUX)
    Blend: AUG-CC-PVTZ-JKFIT

    Orbital Energies [Eh]
    ---------------------

    Doubly Occupied:

       1A    -20.627336     2A    -20.627331     3A    -20.564640
       4A    -20.564637     5A    -11.408390     6A    -11.408384
       7A    -11.287604     8A     -1.474878     9A     -1.469100
      10A     -1.373281    11A     -1.366580    12A     -1.082223
      13A     -0.892723    14A     -0.797409    15A     -0.729575
      16A     -0.712662    17A     -0.691433    18A     -0.685067
      19A     -0.678892    20A     -0.633711    21A     -0.603096
      22A     -0.594741    23A     -0.568210    24A     -0.496245
      25A     -0.490560    26A     -0.479183    27A     -0.456793

  @DF-RHF Final Energy:  -415.57850333945862

   => Energetics <=

    Nuclear Repulsion Energy =            296.9234065671446956
    One-Electron Energy =               -1159.4744450484138270
    Two-Electron Energy =                 446.9725351418105674
    Total Energy =                       -415.5785033394586208
  Basis Set: (AUG-CC-PVTZ AUX)
    Blend: AUG-CC-PVTZ-RI
    Molecular point group: c1

    Geometry (in Angstrom), charge = 0, multiplicity = 1:

       Center              X                  Y                   Z               Mass
    ------------   -----------------  -----------------  -----------------  -----------------
         O            2.331703755467    -0.850074023015    -0.001654510521    15.994914619570
         O           -2.331702244533    -0.850077023015     0.000703489479    15.994914619570
         O            1.426661755467     1.229900976985     0.001675489479    15.994914619570
         O           -1.426672244533     1.229898976985    -0.002125510521    15.994914619570
         C            0.000004755467    -0.769658023015     0.000232489479    12.000000000000
         C            1.284052755467     0.025053976985     0.000164489479    12.000000000000
         C           -1.284043244533     0.025062976985    -0.000525510521    12.000000000000
         H            0.000185355467    -1.468066123015    -0.843667510521     1.007825032230
         H           -0.000189244533    -1.437192023015     0.868772489479     1.007825032230
         H            3.136748755467    -0.291717023015    -0.001366510521     1.007825032230
         H           -3.136772244533    -0.291752023015     0.000027489479     1.007825032230

  Basis Set: AUG-CC-PVTZ
    Blend: AUG-CC-PVTZ
  Basis Set: (AUG-CC-PVTZ AUX)
    Blend: AUG-CC-PVTZ-JKFIT
	 Reference Energy          =    -415.5785033394586208 [Eh]
	 Singles Energy            =      -0.0000000000000000 [Eh]
	 Same-Spin Energy          =      -0.3934706008445908 [Eh]
	 Opposite-Spin Energy      =      -1.1655256608326292 [Eh]
	 Correlation Energy        =      -1.5589962616772199 [Eh]
	 Total Energy              =    -417.1374996011358576 [Eh]

	 ================> DF-SCS-MP2 Energies <==================
	-----------------------------------------------------------
	 SCS Same-Spin Scale       =       0.3333333333333333 [-]
	 SCS Opposite-Spin Scale   =       1.2000000000000000 [-]
	 SCS Same-Spin Energy      =      -0.1311568669481969 [Eh]
	 SCS Opposite-Spin Energy  =      -1.3986307929991550 [Eh]
	 SCS Correlation Energy    =      -1.5297876599473521 [Eh]
	 SCS Total Energy          =    -417.1082909994059946 [Eh]
	-----------------------------------------------------------

  Dipole Moment: [D]
     X:     0.0000      Y:    -2.8071      Z:     0.0095     Total:     2.8071

*** Psi4 exiting successfully. Buy a developer a beer!
