                               Psi4 1.3.2 release

  ==> Input File <==

--------------------------------------------------------------------------
#psi4
#
memory 32 gb

molecule  {
0 1
  O        2.3317040    -0.8186130    -0.0014310
  O       -2.3317020    -0.8186160     0.0009270
  O        1.4266620     1.2613620     0.0018990
  O       -1.4266720     1.2613600    -0.0019020
  C        0.0000050    -0.7381970     0.0004560
  C        1.2254888     0.1441498     0.0003267
  C       -1.2840430     0.0565240    -0.0003020
  H        0.0001910    -1.4067280    -0.8673040
  H       -0.0001890    -1.4057310     0.8689960
  H        3.1367490    -0.2602560    -0.0011430
  H       -3.1367720    -0.2602910     0.0002510
units angstrom
no_reorient  #important for SAPT in psi4, default
symmetry c1  #important for SAPT in psi4, default
}

set PROPERTIES_ORIGIN ["COM"]
properties('MP2/aug-cc-pvtz', properties = ['dipole'])
--------------------------------------------------------------------------

    Molecular point group: c1
  Charge       = 0
  Multiplicity = 1
  Basis Set: AUG-CC-PVTZ
    Blend: AUG-CC-PVTZ
  Basis Set: (AUG-CC-PVTZ AUX)
    Blend: AUG-CC-PVTZ-JKFIT

    Orbital Energies [Eh]
    ---------------------

    Doubly Occupied:

       1A    -20.629083     2A    -20.596319     3A    -20.583585
       4A    -20.568919     5A    -11.410103     6A    -11.403470
       7A    -11.290266     8A     -1.492133     9A     -1.474003
      10A     -1.373971    11A     -1.361786    12A     -1.084584
      13A     -0.880593    14A     -0.781206    15A     -0.734800
      16A     -0.716762    17A     -0.692988    18A     -0.688402
      19A     -0.675273    20A     -0.632147    21A     -0.614295
      22A     -0.594651    23A     -0.568492    24A     -0.508553
      25A     -0.496573    26A     -0.483867    27A     -0.457371

  @DF-RHF Final Energy:  -415.56811439855915

   => Energetics <=

    Nuclear Repulsion Energy =            297.5064069277704562
    One-Electron Energy =               -1160.5606514262149176
    Two-Electron Energy =                 447.4861300998852585
    Total Energy =                       -415.5681143985591461
  Basis Set: (AUG-CC-PVTZ AUX)
    Blend: AUG-CC-PVTZ-RI
    Molecular point group: c1

    Geometry (in Angstrom), charge = 0, multiplicity = 1:

       Center              X                  Y                   Z               Mass
    ------------   -----------------  -----------------  -----------------  -----------------
         O            2.338460398874    -0.860474162614    -0.001416244231    15.994914619570
         O           -2.324945601126    -0.860477162614     0.000941755769    15.994914619570
         O            1.433418398874     1.219500837386     0.001913755769    15.994914619570
         O           -1.419915601126     1.219498837386    -0.001887244231    15.994914619570
         C            0.006761398874    -0.780058162614     0.000470755769    12.000000000000
         C            1.232245198874     0.102288637386     0.000341455769    12.000000000000
         C           -1.277286601126     0.014662837386    -0.000287244231    12.000000000000
         H            0.006947398874    -1.448589162614    -0.867289244231     1.007825032230
         H            0.006567398874    -1.447592162614     0.869010755769     1.007825032230
         H            3.143505398874    -0.302117162614    -0.001128244231     1.007825032230
         H           -3.130015601126    -0.302152162614     0.000265755769     1.007825032230

  Basis Set: AUG-CC-PVTZ
    Blend: AUG-CC-PVTZ
  Basis Set: (AUG-CC-PVTZ AUX)
    Blend: AUG-CC-PVTZ-JKFIT
	 Reference Energy          =    -415.5681143985591461 [Eh]
	 Singles Energy            =      -0.0000000000000000 [Eh]
	 Same-Spin Energy          =      -0.3926113803465970 [Eh]
	 Opposite-Spin Energy      =      -1.1643536907091294 [Eh]
	 Correlation Energy        =      -1.5569650710557266 [Eh]
	 Total Energy              =    -417.1250794696148887 [Eh]

	 ================> DF-SCS-MP2 Energies <==================
	-----------------------------------------------------------
	 SCS Same-Spin Scale       =       0.3333333333333333 [-]
	 SCS Opposite-Spin Scale   =       1.2000000000000000 [-]
	 SCS Same-Spin Energy      =      -0.1308704601155323 [Eh]
	 SCS Opposite-Spin Energy  =      -1.3972244288509552 [Eh]
	 SCS Correlation Energy    =      -1.5280948889664876 [Eh]
	 SCS Total Energy          =    -417.0962092875256531 [Eh]
	-----------------------------------------------------------

  Dipole Moment: [D]
     X:    -0.5883      Y:    -2.0771      Z:     0.0015     Total:     2.1588

*** Psi4 exiting successfully. Buy a developer a beer!
