                               Psi4 1.3.2 release

  ==> Input File <==

--------------------------------------------------------------------------
#psi4
#
memory 32 gb

molecule  {
0 1
  O        2.3317040    -0.8186130    -0.0014310
  O       -2.3317020    -0.8186160     0.0009270
  O        1.4266620     1.2613620     0.0018990
  O       -1.4266720     1.2613600    -0.0019020
  C        0.0000050    -0.7381970     0.0004560
  C        1.3363614    -0.0349915     0.0004496
  C       -1.2840430     0.0565240    -0.0003020
  H        0.0001910    -1.4067280    -0.8673040
  H       -0.0001890    -1.4057310     0.8689960
  H        3.1367490    -0.2602560    -0.0011430
  H       -3.1367720    -0.2602910     0.0002510
units angstrom
no_reorient  #important for SAPT in psi4, default
symmetry c1  #important for SAPT in psi4, default
}

set PROPERTIES_ORIGIN ["COM"]
properties('MP2/aug-cc-pvtz', properties = ['dipole'])
--------------------------------------------------------------------------

    Molecular point group: c1
  Charge       = 0
  Multiplicity = 1
  Basis Set: AUG-CC-PVTZ
    Blend: AUG-CC-PVTZ
  Basis Set: (AUG-CC-PVTZ AUX)
    Blend: AUG-CC-PVTZ-JKFIT

    Orbital Energies [Eh]
    ---------------------

    Doubly Occupied:

       1A    -20.655365     2A    -20.626487     3A    -20.561162
       4A    -20.543572     5A    -11.412506     6A    -11.407256
       7A    -11.288045     8A     -1.517504     9A     -1.470017
      10A     -1.367229    11A     -1.321273    12A     -1.082500
      13A     -0.913798    14A     -0.818441    15A     -0.730850
      16A     -0.719290    17A     -0.695602    18A     -0.690828
      19A     -0.681156    20A     -0.647293    21A     -0.598792
      22A     -0.577446    23A     -0.567615    24A     -0.490306
      25A     -0.468702    26A     -0.460444    27A     -0.447266

  @DF-RHF Final Energy:  -415.55863918151834

   => Energetics <=

    Nuclear Repulsion Energy =            296.6497189927587215
    One-Electron Energy =               -1158.8952260795679194
    Two-Electron Energy =                 446.6868679052908533
    Total Energy =                       -415.5586391815183447
  Basis Set: (AUG-CC-PVTZ AUX)
    Blend: AUG-CC-PVTZ-RI
    Molecular point group: c1

    Geometry (in Angstrom), charge = 0, multiplicity = 1:

       Center              X                  Y                   Z               Mass
    ------------   -----------------  -----------------  -----------------  -----------------
         O            2.325668754438    -0.839806190423    -0.001430423506    15.994914619570
         O           -2.337737245562    -0.839809190423     0.000927576494    15.994914619570
         O            1.420626754438     1.240168809577     0.001899576494    15.994914619570
         O           -1.432707245562     1.240166809577    -0.001901423506    15.994914619570
         C           -0.006030245562    -0.759390190423     0.000456576494    12.000000000000
         C            1.330326154438    -0.056184690423     0.000450176494    12.000000000000
         C           -1.290078245562     0.035330809577    -0.000301423506    12.000000000000
         H           -0.005844245562    -1.427921190423    -0.867303423506     1.007825032230
         H           -0.006224245562    -1.426924190423     0.868996576494     1.007825032230
         H            3.130713754438    -0.281449190423    -0.001142423506     1.007825032230
         H           -3.142807245562    -0.281484190423     0.000251576494     1.007825032230

  Basis Set: AUG-CC-PVTZ
    Blend: AUG-CC-PVTZ
  Basis Set: (AUG-CC-PVTZ AUX)
    Blend: AUG-CC-PVTZ-JKFIT
	 Reference Energy          =    -415.5586391815183447 [Eh]
	 Singles Energy            =      -0.0000000000000000 [Eh]
	 Same-Spin Energy          =      -0.3947634976815928 [Eh]
	 Opposite-Spin Energy      =      -1.1675437442543801 [Eh]
	 Correlation Energy        =      -1.5623072419359729 [Eh]
	 Total Energy              =    -417.1209464234543134 [Eh]

	 ================> DF-SCS-MP2 Energies <==================
	-----------------------------------------------------------
	 SCS Same-Spin Scale       =       0.3333333333333333 [-]
	 SCS Opposite-Spin Scale   =       1.2000000000000000 [-]
	 SCS Same-Spin Energy      =      -0.1315878325605309 [Eh]
	 SCS Opposite-Spin Energy  =      -1.4010524931052561 [Eh]
	 SCS Correlation Energy    =      -1.5326403256657870 [Eh]
	 SCS Total Energy          =    -417.0912795071841401 [Eh]
	-----------------------------------------------------------

  Dipole Moment: [D]
     X:     0.4778      Y:    -3.4808      Z:    -0.0008     Total:     3.5134

*** Psi4 exiting successfully. Buy a developer a beer!
