                               Psi4 1.4a3.dev225

  ==> Input File <==

--------------------------------------------------------------------------
#psi4
#
memory 32 gb

molecule  {
0 1
  O       -1.5693130     0.6792620     0.9775650
  O        2.3881200    -0.4231710     0.2741620
  O       -1.9867550    -0.4638000    -0.9394160
  O        1.0534040     1.1518790    -0.6703260
  C        0.0711740    -0.8607350     0.2805240
  C       -1.2663670    -0.2215630     0.0099780
  C        1.1867570     0.0868330    -0.0975870
  H        0.1725715    -1.1385910     1.3851455
  H        0.1588640    -1.7718550    -0.3168650
  H       -2.4173420     1.0883610     0.7068920
  H        3.0573020     0.2293680    -0.0202400
units angstrom
no_reorient  #important for SAPT in psi4, default
symmetry c1  #important for SAPT in psi4, default
}

set PROPERTIES_ORIGIN ["COM"]
properties('MP2/aug-cc-pvtz', properties = ['dipole'])
--------------------------------------------------------------------------

    Molecular point group: c1
  Charge       = 0
  Multiplicity = 1
  Basis Set: AUG-CC-PVTZ
    Blend: AUG-CC-PVTZ
  Basis Set: (AUG-CC-PVTZ AUX)
    Blend: AUG-CC-PVTZ-JKFIT

    Orbital Energies [Eh]
    ---------------------

    Doubly Occupied:

       1A    -20.635414     2A    -20.626084     3A    -20.572675
       4A    -20.565072     5A    -11.417053     6A    -11.407067
       7A    -11.289250     8A     -1.481955     9A     -1.470624
      10A     -1.378816    11A     -1.370185    12A     -1.079942
      13A     -0.887317    14A     -0.809444    15A     -0.726324
      16A     -0.719663    17A     -0.714869    18A     -0.682535
      19A     -0.663030    20A     -0.634653    21A     -0.595455
      22A     -0.591373    23A     -0.577729    24A     -0.503661
      25A     -0.491890    26A     -0.476461    27A     -0.468604

  @DF-RHF Final Energy:  -415.58296990898265

   => Energetics <=

    Nuclear Repulsion Energy =            300.0523625437351143
    One-Electron Energy =               -1165.5963725298036024
    Two-Electron Energy =                 449.9610400770857837
    Total Energy =                       -415.5829699089826477
  Basis Set: (AUG-CC-PVTZ AUX)
    Blend: AUG-CC-PVTZ-RI
    Molecular point group: c1

    Geometry (in Angstrom), charge = 0, multiplicity = 1:

       Center              X                  Y                   Z               Mass
    ------------   -----------------  -----------------  -----------------  -----------------
         O           -1.560137459154     0.664348586113     0.993359243954    15.994914619570
         O            2.397295540846    -0.438084413887     0.289956243954    15.994914619570
         O           -1.977579459154    -0.478713413887    -0.923621756046    15.994914619570
         O            1.062579540846     1.136965586113    -0.654531756046    15.994914619570
         C            0.080349540846    -0.875648413887     0.296318243954    12.000000000000
         C           -1.257191459154    -0.236476413887     0.025772243954    12.000000000000
         C            1.195932540846     0.071919586113    -0.081792756046    12.000000000000
         H            0.181747040846    -1.153504413887     1.400939743954     1.007825032230
         H            0.168039540846    -1.786768413887    -0.301070756046     1.007825032230
         H           -2.408166459154     1.073447586113     0.722686243954     1.007825032230
         H            3.066477540846     0.214454586113    -0.004445756046     1.007825032230

  Basis Set: AUG-CC-PVTZ
    Blend: AUG-CC-PVTZ
  Basis Set: (AUG-CC-PVTZ AUX)
    Blend: AUG-CC-PVTZ-JKFIT
	 Reference Energy          =    -415.5829699089826477 [Eh]
	 Singles Energy            =      -0.0000000000000000 [Eh]
	 Same-Spin Energy          =      -0.3931278895321569 [Eh]
	 Opposite-Spin Energy      =      -1.1649937394084326 [Eh]
	 Correlation Energy        =      -1.5581216289405895 [Eh]
	 Total Energy              =    -417.1410915379232165 [Eh]

	 ================> DF-SCS-MP2 Energies <==================
	-----------------------------------------------------------
	 SCS Same-Spin Scale       =       0.3333333333333333 [-]
	 SCS Opposite-Spin Scale   =       1.2000000000000000 [-]
	 SCS Same-Spin Energy      =      -0.1310426298440523 [Eh]
	 SCS Opposite-Spin Energy  =      -1.3979924872901190 [Eh]
	 SCS Correlation Energy    =      -1.5290351171341714 [Eh]
	 SCS Total Energy          =    -417.1120050261168331 [Eh]
	-----------------------------------------------------------

  Dipole Moment: [D]
     X:     1.2345      Y:    -0.6815      Z:     1.8648     Total:     2.3379

*** Psi4 exiting successfully. Buy a developer a beer!
