                               Psi4 1.3.2 release

  ==> Input File <==

--------------------------------------------------------------------------
#psi4
#
memory 32 gb

molecule  {
0 1
  O        2.3317040    -0.8186130    -0.0014310
  O       -2.3317020    -0.8186160     0.0009270
  O        1.4266620     1.2613620     0.0018990
  O       -1.4266720     1.2613600    -0.0019020
  C        0.0000050    -0.7381970     0.0004560
  C        1.1939488     0.1863810     0.0002963
  C       -1.2840430     0.0565240    -0.0003020
  H        0.0001910    -1.4067280    -0.8673040
  H       -0.0001890    -1.4057310     0.8689960
  H        3.1367490    -0.2602560    -0.0011430
  H       -3.1367720    -0.2602910     0.0002510
units angstrom
no_reorient  #important for SAPT in psi4, default
symmetry c1  #important for SAPT in psi4, default
}

set PROPERTIES_ORIGIN ["COM"]
properties('MP2/aug-cc-pvtz', properties = ['dipole'])
--------------------------------------------------------------------------

    Molecular point group: c1
  Charge       = 0
  Multiplicity = 1
  Basis Set: AUG-CC-PVTZ
    Blend: AUG-CC-PVTZ
  Basis Set: (AUG-CC-PVTZ AUX)
    Blend: AUG-CC-PVTZ-JKFIT

    Orbital Energies [Eh]
    ---------------------

    Doubly Occupied:

       1A    -20.630438     2A    -20.593173     3A    -20.578900
       4A    -20.571678     5A    -11.411695     6A    -11.401759
       7A    -11.293029     8A     -1.518965     9A     -1.476473
      10A     -1.376424    11A     -1.341776    12A     -1.086722
      13A     -0.877030    14A     -0.778611    15A     -0.737782
      16A     -0.721655    17A     -0.697721    18A     -0.692222
      19A     -0.675516    20A     -0.637861    21A     -0.615530
      22A     -0.592475    23A     -0.573464    24A     -0.504372
      25A     -0.497079    26A     -0.484301    27A     -0.454035

  @DF-RHF Final Energy:  -415.55185887491109

   => Energetics <=

    Nuclear Repulsion Energy =            297.8584699319682727
    One-Electron Energy =               -1161.1792860247771841
    Two-Electron Energy =                 447.7689572178977642
    Total Energy =                       -415.5518588749110904
  Basis Set: (AUG-CC-PVTZ AUX)
    Blend: AUG-CC-PVTZ-RI
    Molecular point group: c1

    Geometry (in Angstrom), charge = 0, multiplicity = 1:

       Center              X                  Y                   Z               Mass
    ------------   -----------------  -----------------  -----------------  -----------------
         O            2.342099246214    -0.865346479981    -0.001412736908    15.994914619570
         O           -2.321306753786    -0.865349479981     0.000945263092    15.994914619570
         O            1.437057246214     1.214628520019     0.001917263092    15.994914619570
         O           -1.416276753786     1.214626520019    -0.001883736908    15.994914619570
         C            0.010400246214    -0.784930479981     0.000474263092    12.000000000000
         C            1.204344046214     0.139647520019     0.000314563092    12.000000000000
         C           -1.273647753786     0.009790520019    -0.000283736908    12.000000000000
         H            0.010586246214    -1.453461479981    -0.867285736908     1.007825032230
         H            0.010206246214    -1.452464479981     0.869014263092     1.007825032230
         H            3.147144246214    -0.306989479981    -0.001124736908     1.007825032230
         H           -3.126376753786    -0.307024479981     0.000269263092     1.007825032230

  Basis Set: AUG-CC-PVTZ
    Blend: AUG-CC-PVTZ
  Basis Set: (AUG-CC-PVTZ AUX)
    Blend: AUG-CC-PVTZ-JKFIT
	 Reference Energy          =    -415.5518588749110904 [Eh]
	 Singles Energy            =      -0.0000000000000000 [Eh]
	 Same-Spin Energy          =      -0.3924156077446699 [Eh]
	 Opposite-Spin Energy      =      -1.1641365724940749 [Eh]
	 Correlation Energy        =      -1.5565521802387448 [Eh]
	 Total Energy              =    -417.1084110551498156 [Eh]

	 ================> DF-SCS-MP2 Energies <==================
	-----------------------------------------------------------
	 SCS Same-Spin Scale       =       0.3333333333333333 [-]
	 SCS Opposite-Spin Scale   =       1.2000000000000000 [-]
	 SCS Same-Spin Energy      =      -0.1308052025815566 [Eh]
	 SCS Opposite-Spin Energy  =      -1.3969638869928898 [Eh]
	 SCS Correlation Energy    =      -1.5277690895744465 [Eh]
	 SCS Total Energy          =    -417.0796279644855531 [Eh]
	-----------------------------------------------------------

  Dipole Moment: [D]
     X:    -0.9324      Y:    -1.7110      Z:     0.0020     Total:     1.9485

*** Psi4 exiting successfully. Buy a developer a beer!
