                               Psi4 1.3.2 release

  ==> Input File <==

--------------------------------------------------------------------------
#psi4
#
memory 32 gb

molecule  {
0 1
  O        2.3317040    -0.8186130    -0.0014310
  O       -2.3317020    -0.8186160     0.0009270
  O        1.4266620     1.2613620     0.0018990
  O       -1.4266720     1.2613600    -0.0019020
  C        0.0000050    -0.7381970     0.0004560
  C        1.2840530     0.0565150     0.0003880
  C       -1.2840430     0.0565240    -0.0003020
  H        0.0001936    -1.3914817    -0.8788393
  H       -0.0001890    -1.4057310     0.8689960
  H        3.1367490    -0.2602560    -0.0011430
  H       -3.1367720    -0.2602910     0.0002510
units angstrom
no_reorient  #important for SAPT in psi4, default
symmetry c1  #important for SAPT in psi4, default
}

set PROPERTIES_ORIGIN ["COM"]
properties('MP2/aug-cc-pvtz', properties = ['dipole'])
--------------------------------------------------------------------------

    Molecular point group: c1
  Charge       = 0
  Multiplicity = 1
  Basis Set: AUG-CC-PVTZ
    Blend: AUG-CC-PVTZ
  Basis Set: (AUG-CC-PVTZ AUX)
    Blend: AUG-CC-PVTZ-JKFIT

    Orbital Energies [Eh]
    ---------------------

    Doubly Occupied:

       1A    -20.627390     2A    -20.627384     3A    -20.564492
       4A    -20.564489     5A    -11.408057     6A    -11.408051
       7A    -11.287774     8A     -1.474877     9A     -1.469090
      10A     -1.373208    11A     -1.366499    12A     -1.082493
      13A     -0.892783    14A     -0.796990    15A     -0.728228
      16A     -0.712604    17A     -0.689674    18A     -0.687869
      19A     -0.678847    20A     -0.633753    21A     -0.601651
      22A     -0.594746    23A     -0.571449    24A     -0.496389
      25A     -0.490499    26A     -0.478030    27A     -0.456754

  @DF-RHF Final Energy:  -415.57874370588149

   => Energetics <=

    Nuclear Repulsion Energy =            296.9637603424994268
    One-Electron Energy =               -1159.5568686831470586
    Two-Electron Energy =                 447.0143646347661388
    Total Energy =                       -415.5787437058814930
  Basis Set: (AUG-CC-PVTZ AUX)
    Blend: AUG-CC-PVTZ-RI
    Molecular point group: c1

    Geometry (in Angstrom), charge = 0, multiplicity = 1:

       Center              X                  Y                   Z               Mass
    ------------   -----------------  -----------------  -----------------  -----------------
         O            2.331703677950    -0.850511250906    -0.001311544070    15.994914619570
         O           -2.331702322050    -0.850514250906     0.001046455930    15.994914619570
         O            1.426661677950     1.229463749094     0.002018455930    15.994914619570
         O           -1.426672322050     1.229461749094    -0.001782544070    15.994914619570
         C            0.000004677950    -0.770095250906     0.000575455930    12.000000000000
         C            1.284052677950     0.024616749094     0.000507455930    12.000000000000
         C           -1.284043322050     0.024625749094    -0.000182544070    12.000000000000
         H            0.000193277950    -1.423379950906    -0.878719844070     1.007825032230
         H           -0.000189322050    -1.437629250906     0.869115455930     1.007825032230
         H            3.136748677950    -0.292154250906    -0.001023544070     1.007825032230
         H           -3.136772322050    -0.292189250906     0.000370455930     1.007825032230

  Basis Set: AUG-CC-PVTZ
    Blend: AUG-CC-PVTZ
  Basis Set: (AUG-CC-PVTZ AUX)
    Blend: AUG-CC-PVTZ-JKFIT
	 Reference Energy          =    -415.5787437058814930 [Eh]
	 Singles Energy            =      -0.0000000000000000 [Eh]
	 Same-Spin Energy          =      -0.3934173165964761 [Eh]
	 Opposite-Spin Energy      =      -1.1655080177725796 [Eh]
	 Correlation Energy        =      -1.5589253343690557 [Eh]
	 Total Energy              =    -417.1376690402505574 [Eh]

	 ================> DF-SCS-MP2 Energies <==================
	-----------------------------------------------------------
	 SCS Same-Spin Scale       =       0.3333333333333333 [-]
	 SCS Opposite-Spin Scale   =       1.2000000000000000 [-]
	 SCS Same-Spin Energy      =      -0.1311391055321587 [Eh]
	 SCS Opposite-Spin Energy  =      -1.3986096213270955 [Eh]
	 SCS Correlation Energy    =      -1.5297487268592542 [Eh]
	 SCS Total Energy          =    -417.1084924327407748 [Eh]
	-----------------------------------------------------------

  Dipole Moment: [D]
     X:     0.0001      Y:    -2.7797      Z:    -0.0039     Total:     2.7797

*** Psi4 exiting successfully. Buy a developer a beer!
