                               Psi4 1.3.2 release

  ==> Input File <==

--------------------------------------------------------------------------
#psi4
#
memory 32 gb

molecule  {
0 1
  O        2.6230147    -0.5126447    -0.3674104
  C        0.4478060     0.2535600     0.1422380
  C        1.9227370     0.5353370     0.3039990
  C       -0.4705550     1.2975200    -0.0129620
  C       -0.0180930    -1.0668420     0.1769480
  C       -1.8363280     1.0297010    -0.1264230
  C       -1.3815920    -1.3361730     0.0562860
  C       -2.2945940    -0.2887340    -0.0921740
  H        2.1508500     1.5463010    -0.0660670
  H        2.2078120     0.5034310     1.3602160
  H       -0.1156540     2.3265980    -0.0519790
  H        0.6988110    -1.8764940     0.2888760
  H       -2.5409450     1.8488700    -0.2497340
  H       -1.7340040    -2.3648090     0.0820140
  H       -3.3571700    -0.4996250    -0.1857170
  H        2.4798710    -0.4753560    -1.2601120
units angstrom
no_reorient  #important for SAPT in psi4, default
symmetry c1  #important for SAPT in psi4, default
}

set PROPERTIES_ORIGIN ["COM"]
properties('MP2/aug-cc-pvtz', properties = ['dipole'])
--------------------------------------------------------------------------

    Molecular point group: c1
  Charge       = 0
  Multiplicity = 1
  Basis Set: AUG-CC-PVTZ
    Blend: AUG-CC-PVTZ
  Basis Set: (AUG-CC-PVTZ AUX)
    Blend: AUG-CC-PVTZ-JKFIT

    Orbital Energies [Eh]
    ---------------------

    Doubly Occupied:

       1A    -20.554835     2A    -11.288574     3A    -11.240714
       4A    -11.238717     5A    -11.237584     6A    -11.236737
       7A    -11.235603     8A    -11.232122     9A     -1.376708
      10A     -1.152563    11A     -1.038969    12A     -1.013955
      13A     -0.927001    14A     -0.828477    15A     -0.804082
      16A     -0.712854    17A     -0.692053    18A     -0.645246
      19A     -0.619272    20A     -0.614731    21A     -0.594329
      22A     -0.583527    23A     -0.529994    24A     -0.506575
      25A     -0.494990    26A     -0.481874    27A     -0.455196
      28A     -0.337719    29A     -0.330006

  @DF-RHF Final Energy:  -344.70851371021502

   => Energetics <=

    Nuclear Repulsion Energy =            342.3172994060326459
    One-Electron Energy =               -1146.0416119173560219
    Two-Electron Energy =                 459.0157988011084171
    Total Energy =                       -344.7085137102150156
  Basis Set: (AUG-CC-PVTZ AUX)
    Blend: AUG-CC-PVTZ-RI
    Molecular point group: c1

    Geometry (in Angstrom), charge = 0, multiplicity = 1:

       Center              X                  Y                   Z               Mass
    ------------   -----------------  -----------------  -----------------  -----------------
         O            2.639900221043    -0.493298804355    -0.361997518095    15.994914619570
         C            0.464691521043     0.272905895645     0.147650881905    12.000000000000
         C            1.939622521043     0.554682895645     0.309411881905    12.000000000000
         C           -0.453669478957     1.316865895645    -0.007549118095    12.000000000000
         C           -0.001207478957    -1.047496104355     0.182360881905    12.000000000000
         C           -1.819442478957     1.049046895645    -0.121010118095    12.000000000000
         C           -1.364706478957    -1.316827104355     0.061698881905    12.000000000000
         C           -2.277708478957    -0.269388104355    -0.086761118095    12.000000000000
         H            2.167735521043     1.565646895645    -0.060654118095     1.007825032230
         H            2.224697521043     0.522776895645     1.365628881905     1.007825032230
         H           -0.098768478957     2.345943895645    -0.046566118095     1.007825032230
         H            0.715696521043    -1.857148104355     0.294288881905     1.007825032230
         H           -2.524059478957     1.868215895645    -0.244321118095     1.007825032230
         H           -1.717118478957    -2.345463104355     0.087426881905     1.007825032230
         H           -3.340284478957    -0.480279104355    -0.180304118095     1.007825032230
         H            2.496756521043    -0.456010104355    -1.254699118095     1.007825032230

  Basis Set: AUG-CC-PVTZ
    Blend: AUG-CC-PVTZ
  Basis Set: (AUG-CC-PVTZ AUX)
    Blend: AUG-CC-PVTZ-JKFIT
	 Reference Energy          =    -344.7085137102150156 [Eh]
	 Singles Energy            =      -0.0000000000000000 [Eh]
	 Same-Spin Energy          =      -0.3671688931385713 [Eh]
	 Opposite-Spin Energy      =      -1.1605362037480138 [Eh]
	 Correlation Energy        =      -1.5277050968865851 [Eh]
	 Total Energy              =    -346.2362188071015794 [Eh]

	 ================> DF-SCS-MP2 Energies <==================
	-----------------------------------------------------------
	 SCS Same-Spin Scale       =       0.3333333333333333 [-]
	 SCS Opposite-Spin Scale   =       1.2000000000000000 [-]
	 SCS Same-Spin Energy      =      -0.1223896310461904 [Eh]
	 SCS Opposite-Spin Energy  =      -1.3926434444976166 [Eh]
	 SCS Correlation Energy    =      -1.5150330755438071 [Eh]
	 SCS Total Energy          =    -346.2235467857587992 [Eh]
	-----------------------------------------------------------

  Dipole Moment: [D]
     X:    -0.7792      Y:     0.9475      Z:    -0.5729     Total:     1.3539

*** Psi4 exiting successfully. Buy a developer a beer!
