                               Psi4 1.3.2 release

  ==> Input File <==

--------------------------------------------------------------------------
#psi4
#
memory 32 gb

molecule  {
0 1
  O        2.8284874    -0.3928757    -0.2938993
  C        0.4478060     0.2535600     0.1422380
  C        1.9227370     0.5353370     0.3039990
  C       -0.4705550     1.2975200    -0.0129620
  C       -0.0180930    -1.0668420     0.1769480
  C       -1.8363280     1.0297010    -0.1264230
  C       -1.3815920    -1.3361730     0.0562860
  C       -2.2945940    -0.2887340    -0.0921740
  H        2.1508500     1.5463010    -0.0660670
  H        2.2078120     0.5034310     1.3602160
  H       -0.1156540     2.3265980    -0.0519790
  H        0.6988110    -1.8764940     0.2888760
  H       -2.5409450     1.8488700    -0.2497340
  H       -1.7340040    -2.3648090     0.0820140
  H       -3.3571700    -0.4996250    -0.1857170
  H        2.4798710    -0.4753560    -1.2601120
units angstrom
no_reorient  #important for SAPT in psi4, default
symmetry c1  #important for SAPT in psi4, default
}

set PROPERTIES_ORIGIN ["COM"]
properties('MP2/aug-cc-pvtz', properties = ['dipole'])
--------------------------------------------------------------------------

    Molecular point group: c1
  Charge       = 0
  Multiplicity = 1
  Basis Set: AUG-CC-PVTZ
    Blend: AUG-CC-PVTZ
  Basis Set: (AUG-CC-PVTZ AUX)
    Blend: AUG-CC-PVTZ-JKFIT

    Orbital Energies [Eh]
    ---------------------

    Doubly Occupied:

       1A    -20.570290     2A    -11.284065     3A    -11.246954
       4A    -11.242975     5A    -11.241884     6A    -11.241466
       7A    -11.239843     8A    -11.237691     9A     -1.351670
      10A     -1.156856    11A     -1.040124    12A     -1.018348
      13A     -0.917568    14A     -0.831829    15A     -0.804255
      16A     -0.710002    17A     -0.674709    18A     -0.648209
      19A     -0.624435    20A     -0.602740    21A     -0.591742
      22A     -0.585279    23A     -0.536607    24A     -0.507108
      25A     -0.497529    26A     -0.484456    27A     -0.453115
      28A     -0.341840    29A     -0.334671

  @DF-RHF Final Energy:  -344.70405200794960

   => Energetics <=

    Nuclear Repulsion Energy =            339.4748383354101406
    One-Electron Energy =               -1140.3212631454523489
    Two-Electron Energy =                 456.1423728020926092
    Total Energy =                       -344.7040520079495991
  Basis Set: (AUG-CC-PVTZ AUX)
    Blend: AUG-CC-PVTZ-RI
    Molecular point group: c1

    Geometry (in Angstrom), charge = 0, multiplicity = 1:

       Center              X                  Y                   Z               Mass
    ------------   -----------------  -----------------  -----------------  -----------------
         O            2.814958393216    -0.391258279152    -0.299367695250    15.994914619570
         C            0.434276993216     0.255177420848     0.136769604750    12.000000000000
         C            1.909207993216     0.536954420848     0.298530604750    12.000000000000
         C           -0.484084006784     1.299137420848    -0.018430395250    12.000000000000
         C           -0.031622006784    -1.065224579152     0.171479604750    12.000000000000
         C           -1.849857006784     1.031318420848    -0.131891395250    12.000000000000
         C           -1.395121006784    -1.334555579152     0.050817604750    12.000000000000
         C           -2.308123006784    -0.287116579152    -0.097642395250    12.000000000000
         H            2.137320993216     1.547918420848    -0.071535395250     1.007825032230
         H            2.194282993216     0.505048420848     1.354747604750     1.007825032230
         H           -0.129183006784     2.328215420848    -0.057447395250     1.007825032230
         H            0.685281993216    -1.874876579152     0.283407604750     1.007825032230
         H           -2.554474006784     1.850487420848    -0.255202395250     1.007825032230
         H           -1.747533006784    -2.363191579152     0.076545604750     1.007825032230
         H           -3.370699006784    -0.498007579152    -0.191185395250     1.007825032230
         H            2.466341993216    -0.473738579152    -1.265580395250     1.007825032230

  Basis Set: AUG-CC-PVTZ
    Blend: AUG-CC-PVTZ
  Basis Set: (AUG-CC-PVTZ AUX)
    Blend: AUG-CC-PVTZ-JKFIT
	 Reference Energy          =    -344.7040520079495991 [Eh]
	 Singles Energy            =      -0.0000000000000000 [Eh]
	 Same-Spin Energy          =      -0.3685830044471096 [Eh]
	 Opposite-Spin Energy      =      -1.1647262054418004 [Eh]
	 Correlation Energy        =      -1.5333092098889098 [Eh]
	 Total Energy              =    -346.2373612178384974 [Eh]

	 ================> DF-SCS-MP2 Energies <==================
	-----------------------------------------------------------
	 SCS Same-Spin Scale       =       0.3333333333333333 [-]
	 SCS Opposite-Spin Scale   =       1.2000000000000000 [-]
	 SCS Same-Spin Energy      =      -0.1228610014823698 [Eh]
	 SCS Opposite-Spin Energy  =      -1.3976714465301605 [Eh]
	 SCS Correlation Energy    =      -1.5205324480125304 [Eh]
	 SCS Total Energy          =    -346.2245844559621446 [Eh]
	-----------------------------------------------------------

  Dipole Moment: [D]
     X:    -1.4134      Y:     0.6538      Z:    -0.6324     Total:     1.6808

*** Psi4 exiting successfully. Buy a developer a beer!
