                               Psi4 1.3.2 release

  ==> Input File <==

--------------------------------------------------------------------------
#psi4
#
memory 32 gb

molecule  {
0 1
  O        2.7288184    -0.4565346    -0.3330791
  C        0.4478060     0.2535600     0.1422380
  C        1.9227370     0.5353370     0.3039990
  C       -0.4705550     1.2975200    -0.0129620
  C       -0.0180930    -1.0668420     0.1769480
  C       -1.8363280     1.0297010    -0.1264230
  C       -1.3815920    -1.3361730     0.0562860
  C       -2.2945940    -0.2887340    -0.0921740
  H        2.1508500     1.5463010    -0.0660670
  H        2.2078120     0.5034310     1.3602160
  H       -0.1156540     2.3265980    -0.0519790
  H        0.6988110    -1.8764940     0.2888760
  H       -2.5409450     1.8488700    -0.2497340
  H       -1.7340040    -2.3648090     0.0820140
  H       -3.3571700    -0.4996250    -0.1857170
  H        2.4798710    -0.4753560    -1.2601120
units angstrom
no_reorient  #important for SAPT in psi4, default
symmetry c1  #important for SAPT in psi4, default
}

set PROPERTIES_ORIGIN ["COM"]
properties('MP2/aug-cc-pvtz', properties = ['dipole'])
--------------------------------------------------------------------------

    Molecular point group: c1
  Charge       = 0
  Multiplicity = 1
  Basis Set: AUG-CC-PVTZ
    Blend: AUG-CC-PVTZ
  Basis Set: (AUG-CC-PVTZ AUX)
    Blend: AUG-CC-PVTZ-JKFIT

    Orbital Energies [Eh]
    ---------------------

    Doubly Occupied:

       1A    -20.562182     2A    -11.286245     3A    -11.243816
       4A    -11.240969     5A    -11.239877     6A    -11.239253
       7A    -11.237862     8A    -11.235077     9A     -1.364157
      10A     -1.154810    11A     -1.039440    12A     -1.016267
      13A     -0.922352    14A     -0.830091    15A     -0.804648
      16A     -0.711136    17A     -0.683684    18A     -0.646728
      19A     -0.622100    20A     -0.607478    21A     -0.594645
      22A     -0.585647    23A     -0.533667    24A     -0.506586
      25A     -0.496332    26A     -0.483475    27A     -0.455164
      28A     -0.339897    29A     -0.332612

  @DF-RHF Final Energy:  -344.71249690938021

   => Energetics <=

    Nuclear Repulsion Energy =            340.8427654207699220
    One-Electron Energy =               -1143.0781306911110278
    Two-Electron Energy =                 457.5228683609609561
    Total Energy =                       -344.7124969093802065
  Basis Set: (AUG-CC-PVTZ AUX)
    Blend: AUG-CC-PVTZ-RI
    Molecular point group: c1

    Geometry (in Angstrom), charge = 0, multiplicity = 1:

       Center              X                  Y                   Z               Mass
    ------------   -----------------  -----------------  -----------------  -----------------
         O            2.730042621134    -0.445494246638    -0.332748013775    15.994914619570
         C            0.449030221134     0.264600353362     0.142569086225    12.000000000000
         C            1.923961221134     0.546377353362     0.304330086225    12.000000000000
         C           -0.469330778866     1.308560353362    -0.012630913775    12.000000000000
         C           -0.016868778866    -1.055801646638     0.177279086225    12.000000000000
         C           -1.835103778866     1.040741353362    -0.126091913775    12.000000000000
         C           -1.380367778866    -1.325132646638     0.056617086225    12.000000000000
         C           -2.293369778866    -0.277693646638    -0.091842913775    12.000000000000
         H            2.152074221134     1.557341353362    -0.065735913775     1.007825032230
         H            2.209036221134     0.514471353362     1.360547086225     1.007825032230
         H           -0.114429778866     2.337638353362    -0.051647913775     1.007825032230
         H            0.700035221134    -1.865453646638     0.289207086225     1.007825032230
         H           -2.539720778866     1.859910353362    -0.249402913775     1.007825032230
         H           -1.732779778866    -2.353768646638     0.082345086225     1.007825032230
         H           -3.355945778866    -0.488584646638    -0.185385913775     1.007825032230
         H            2.481095221134    -0.464315646638    -1.259780913775     1.007825032230

  Basis Set: AUG-CC-PVTZ
    Blend: AUG-CC-PVTZ
  Basis Set: (AUG-CC-PVTZ AUX)
    Blend: AUG-CC-PVTZ-JKFIT
	 Reference Energy          =    -344.7124969093802065 [Eh]
	 Singles Energy            =      -0.0000000000000000 [Eh]
	 Same-Spin Energy          =      -0.3676726782242605 [Eh]
	 Opposite-Spin Energy      =      -1.1621231608947802 [Eh]
	 Correlation Energy        =      -1.5297958391190407 [Eh]
	 Total Energy              =    -346.2422927484992670 [Eh]

	 ================> DF-SCS-MP2 Energies <==================
	-----------------------------------------------------------
	 SCS Same-Spin Scale       =       0.3333333333333333 [-]
	 SCS Opposite-Spin Scale   =       1.2000000000000000 [-]
	 SCS Same-Spin Energy      =      -0.1225575594080868 [Eh]
	 SCS Opposite-Spin Energy  =      -1.3945477930737362 [Eh]
	 SCS Correlation Energy    =      -1.5171053524818230 [Eh]
	 SCS Total Energy          =    -346.2296022618620555 [Eh]
	-----------------------------------------------------------

  Dipole Moment: [D]
     X:    -1.1210      Y:     0.8052      Z:    -0.6025     Total:     1.5060

*** Psi4 exiting successfully. Buy a developer a beer!
