                               Psi4 1.3.2 release

  ==> Input File <==

--------------------------------------------------------------------------
#psi4
#
memory 32 gb

molecule  {
0 1
  O        2.7694658    -0.4319510    -0.3179731
  C        0.4478060     0.2535600     0.1422380
  C        1.9227370     0.5353370     0.3039990
  C       -0.4705550     1.2975200    -0.0129620
  C       -0.0180930    -1.0668420     0.1769480
  C       -1.8363280     1.0297010    -0.1264230
  C       -1.3815920    -1.3361730     0.0562860
  C       -2.2945940    -0.2887340    -0.0921740
  H        2.1508500     1.5463010    -0.0660670
  H        2.2078120     0.5034310     1.3602160
  H       -0.1156540     2.3265980    -0.0519790
  H        0.6988110    -1.8764940     0.2888760
  H       -2.5409450     1.8488700    -0.2497340
  H       -1.7340040    -2.3648090     0.0820140
  H       -3.3571700    -0.4996250    -0.1857170
  H        2.4798710    -0.4753560    -1.2601120
units angstrom
no_reorient  #important for SAPT in psi4, default
symmetry c1  #important for SAPT in psi4, default
}

set PROPERTIES_ORIGIN ["COM"]
properties('MP2/aug-cc-pvtz', properties = ['dipole'])
--------------------------------------------------------------------------

    Molecular point group: c1
  Charge       = 0
  Multiplicity = 1
  Basis Set: AUG-CC-PVTZ
    Blend: AUG-CC-PVTZ
  Basis Set: (AUG-CC-PVTZ AUX)
    Blend: AUG-CC-PVTZ-JKFIT

    Orbital Energies [Eh]
    ---------------------

    Doubly Occupied:

       1A    -20.565393     2A    -11.285331     3A    -11.245071
       4A    -11.241798     5A    -11.240711     6A    -11.240173
       7A    -11.238685     8A    -11.236162     9A     -1.359050
      10A     -1.155650    11A     -1.039682    12A     -1.017126
      13A     -0.920395    14A     -0.830780    15A     -0.804573
      16A     -0.710642    17A     -0.680046    18A     -0.647332
      19A     -0.623097    20A     -0.604893    21A     -0.593818
      22A     -0.586111    23A     -0.535042    24A     -0.506734
      25A     -0.496809    26A     -0.484022    27A     -0.454531
      28A     -0.340701    29A     -0.333494

  @DF-RHF Final Energy:  -344.71069838917697

   => Energetics <=

    Nuclear Repulsion Energy =            340.2814667371209225
    One-Electron Energy =               -1141.9486291681025705
    Two-Electron Energy =                 456.9564640418046793
    Total Energy =                       -344.7106983891769687
  Basis Set: (AUG-CC-PVTZ AUX)
    Blend: AUG-CC-PVTZ-RI
    Molecular point group: c1

    Geometry (in Angstrom), charge = 0, multiplicity = 1:

       Center              X                  Y                   Z               Mass
    ------------   -----------------  -----------------  -----------------  -----------------
         O            2.764673302230    -0.424549566000    -0.319878037623    15.994914619570
         C            0.443013502230     0.260961434000     0.140333062377    12.000000000000
         C            1.917944502230     0.542738434000     0.302094062377    12.000000000000
         C           -0.475347497770     1.304921434000    -0.014866937623    12.000000000000
         C           -0.022885497770    -1.059440566000     0.175043062377    12.000000000000
         C           -1.841120497770     1.037102434000    -0.128327937623    12.000000000000
         C           -1.386384497770    -1.328771566000     0.054381062377    12.000000000000
         C           -2.299386497770    -0.281332566000    -0.094078937623    12.000000000000
         H            2.146057502230     1.553702434000    -0.067971937623     1.007825032230
         H            2.203019502230     0.510832434000     1.358311062377     1.007825032230
         H           -0.120446497770     2.333999434000    -0.053883937623     1.007825032230
         H            0.694018502230    -1.869092566000     0.286971062377     1.007825032230
         H           -2.545737497770     1.856271434000    -0.251638937623     1.007825032230
         H           -1.738796497770    -2.357407566000     0.080109062377     1.007825032230
         H           -3.361962497770    -0.492223566000    -0.187621937623     1.007825032230
         H            2.475078502230    -0.467954566000    -1.262016937623     1.007825032230

  Basis Set: AUG-CC-PVTZ
    Blend: AUG-CC-PVTZ
  Basis Set: (AUG-CC-PVTZ AUX)
    Blend: AUG-CC-PVTZ-JKFIT
	 Reference Energy          =    -344.7106983891769687 [Eh]
	 Singles Energy            =      -0.0000000000000000 [Eh]
	 Same-Spin Energy          =      -0.3679922996553449 [Eh]
	 Opposite-Spin Energy      =      -1.1630450717087000 [Eh]
	 Correlation Energy        =      -1.5310373713640448 [Eh]
	 Total Energy              =    -346.2417357605410189 [Eh]

	 ================> DF-SCS-MP2 Energies <==================
	-----------------------------------------------------------
	 SCS Same-Spin Scale       =       0.3333333333333333 [-]
	 SCS Opposite-Spin Scale   =       1.2000000000000000 [-]
	 SCS Same-Spin Energy      =      -0.1226640998851150 [Eh]
	 SCS Opposite-Spin Energy  =      -1.3956540860504398 [Eh]
	 SCS Correlation Energy    =      -1.5183181859355548 [Eh]
	 SCS Total Energy          =    -346.2290165751124960 [Eh]
	-----------------------------------------------------------

  Dipole Moment: [D]
     X:    -1.2434      Y:     0.7450      Z:    -0.6148     Total:     1.5745

*** Psi4 exiting successfully. Buy a developer a beer!
