                               Psi4 1.3.2 release

  ==> Input File <==

--------------------------------------------------------------------------
#psi4
#
memory 32 gb

molecule  {
0 1
  O        2.7894057    -0.4192154    -0.3101347
  C        0.4478060     0.2535600     0.1422380
  C        1.9227370     0.5353370     0.3039990
  C       -0.4705550     1.2975200    -0.0129620
  C       -0.0180930    -1.0668420     0.1769480
  C       -1.8363280     1.0297010    -0.1264230
  C       -1.3815920    -1.3361730     0.0562860
  C       -2.2945940    -0.2887340    -0.0921740
  H        2.1508500     1.5463010    -0.0660670
  H        2.2078120     0.5034310     1.3602160
  H       -0.1156540     2.3265980    -0.0519790
  H        0.6988110    -1.8764940     0.2888760
  H       -2.5409450     1.8488700    -0.2497340
  H       -1.7340040    -2.3648090     0.0820140
  H       -3.3571700    -0.4996250    -0.1857170
  H        2.4798710    -0.4753560    -1.2601120
units angstrom
no_reorient  #important for SAPT in psi4, default
symmetry c1  #important for SAPT in psi4, default
}

set PROPERTIES_ORIGIN ["COM"]
properties('MP2/aug-cc-pvtz', properties = ['dipole'])
--------------------------------------------------------------------------

    Molecular point group: c1
  Charge       = 0
  Multiplicity = 1
  Basis Set: AUG-CC-PVTZ
    Blend: AUG-CC-PVTZ
  Basis Set: (AUG-CC-PVTZ AUX)
    Blend: AUG-CC-PVTZ-JKFIT

    Orbital Energies [Eh]
    ---------------------

    Doubly Occupied:

       1A    -20.567022     2A    -11.284892     3A    -11.245699
       4A    -11.242199     5A    -11.241111     6A    -11.240615
       7A    -11.239080     8A    -11.236685     9A     -1.356539
      10A     -1.156059    11A     -1.039819    12A     -1.017542
      13A     -0.919431    14A     -0.831129    15A     -0.804490
      16A     -0.710417    17A     -0.678238    18A     -0.647628
      19A     -0.623565    20A     -0.603924    21A     -0.593136
      22A     -0.586133    23A     -0.535647    24A     -0.506839
      25A     -0.497045    26A     -0.484233    27A     -0.454112
      28A     -0.341090    29A     -0.333905

  @DF-RHF Final Energy:  -344.70900946903737

   => Energetics <=

    Nuclear Repulsion Energy =            340.0077221376199645
    One-Electron Energy =               -1141.3970140634639847
    Two-Electron Energy =                 456.6802824568065944
    Total Energy =                       -344.7090094690373689
  Basis Set: (AUG-CC-PVTZ AUX)
    Blend: AUG-CC-PVTZ-RI
    Molecular point group: c1

    Geometry (in Angstrom), charge = 0, multiplicity = 1:

       Center              X                  Y                   Z               Mass
    ------------   -----------------  -----------------  -----------------  -----------------
         O            2.781661653711    -0.413699117947    -0.313199895092    15.994914619570
         C            0.440061953711     0.259076282053     0.139172804908    12.000000000000
         C            1.914992953711     0.540853282053     0.300933804908    12.000000000000
         C           -0.478299046289     1.303036282053    -0.016027195092    12.000000000000
         C           -0.025837046289    -1.061325717947     0.173882804908    12.000000000000
         C           -1.844072046289     1.035217282053    -0.129488195092    12.000000000000
         C           -1.389336046289    -1.330656717947     0.053220804908    12.000000000000
         C           -2.302338046289    -0.283217717947    -0.095239195092    12.000000000000
         H            2.143105953711     1.551817282053    -0.069132195092     1.007825032230
         H            2.200067953711     0.508947282053     1.357150804908     1.007825032230
         H           -0.123398046289     2.332114282053    -0.055044195092     1.007825032230
         H            0.691066953711    -1.870977717947     0.285810804908     1.007825032230
         H           -2.548689046289     1.854386282053    -0.252799195092     1.007825032230
         H           -1.741748046289    -2.359292717947     0.078948804908     1.007825032230
         H           -3.364914046289    -0.494108717947    -0.188782195092     1.007825032230
         H            2.472126953711    -0.469839717947    -1.263177195092     1.007825032230

  Basis Set: AUG-CC-PVTZ
    Blend: AUG-CC-PVTZ
  Basis Set: (AUG-CC-PVTZ AUX)
    Blend: AUG-CC-PVTZ-JKFIT
	 Reference Energy          =    -344.7090094690373689 [Eh]
	 Singles Energy            =      -0.0000000000000000 [Eh]
	 Same-Spin Energy          =      -0.3681750442964876 [Eh]
	 Opposite-Spin Energy      =      -1.1635661379762252 [Eh]
	 Correlation Energy        =      -1.5317411822727127 [Eh]
	 Total Energy              =    -346.2407506513100657 [Eh]

	 ================> DF-SCS-MP2 Energies <==================
	-----------------------------------------------------------
	 SCS Same-Spin Scale       =       0.3333333333333333 [-]
	 SCS Opposite-Spin Scale   =       1.2000000000000000 [-]
	 SCS Same-Spin Energy      =      -0.1227250147654959 [Eh]
	 SCS Opposite-Spin Energy  =      -1.3962793655714703 [Eh]
	 SCS Correlation Energy    =      -1.5190043803369662 [Eh]
	 SCS Total Energy          =    -346.2280138493743493 [Eh]
	-----------------------------------------------------------

  Dipole Moment: [D]
     X:    -1.3019      Y:     0.7147      Z:    -0.6208     Total:     1.6097

*** Psi4 exiting successfully. Buy a developer a beer!
