                               Psi4 1.3.2 release

  ==> Input File <==

--------------------------------------------------------------------------
#psi4
#
memory 32 gb

molecule  {
0 1
  O        2.7492680    -0.4443920    -0.3256220
  C        0.4478060     0.2535600     0.1422380
  C        1.9227370     0.5353370     0.3039990
  C       -0.4705550     1.2975200    -0.0129620
  C       -0.0180930    -1.0668420     0.1769480
  C       -1.8363280     1.0297010    -0.1264230
  C       -1.3815920    -1.3361730     0.0562860
  C       -2.2945940    -0.2887340    -0.0921740
  H        2.1508500     1.5463010    -0.0660670
  H        2.2078120     0.5034310     1.3602160
  H       -0.1156540     2.3265980    -0.0519790
  H        0.6988110    -1.8764940     0.2888760
  H       -2.5409450     1.8488700    -0.2497340
  H       -1.7340040    -2.3648090     0.0820140
  H       -3.3571700    -0.4996250    -0.1857170
  H        2.4798710    -0.4753560    -1.2601120
units angstrom
no_reorient  #important for SAPT in psi4, default
symmetry c1  #important for SAPT in psi4, default
}

set PROPERTIES_ORIGIN ["COM"]
properties('MP2/aug-cc-pvtz', properties = ['dipole'])
--------------------------------------------------------------------------

    Molecular point group: c1
  Charge       = 0
  Multiplicity = 1
  Basis Set: AUG-CC-PVTZ
    Blend: AUG-CC-PVTZ
  Basis Set: (AUG-CC-PVTZ AUX)
    Blend: AUG-CC-PVTZ-JKFIT

    Orbital Energies [Eh]
    ---------------------

    Doubly Occupied:

       1A    -20.563777     2A    -11.285783     3A    -11.244443
       4A    -11.241388     5A    -11.240299     6A    -11.239719
       7A    -11.238279     8A    -11.235626     9A     -1.361593
      10A     -1.155234    11A     -1.039556    12A     -1.016701
      13A     -0.921371    14A     -0.830434    15A     -0.804627
      16A     -0.710881    17A     -0.681867    18A     -0.647031
      19A     -0.622609    20A     -0.606097    21A     -0.594328
      22A     -0.585929    23A     -0.534376    24A     -0.506649
      25A     -0.496572    26A     -0.483765    27A     -0.454884
      28A     -0.340304    29A     -0.333063

  @DF-RHF Final Energy:  -344.71185889791730

   => Energetics <=

    Nuclear Repulsion Energy =            340.5598727656001188
    One-Electron Energy =               -1142.5090881007979533
    Two-Electron Energy =                 457.2373564372804822
    Total Energy =                       -344.7118588979172955
  Basis Set: (AUG-CC-PVTZ AUX)
    Blend: AUG-CC-PVTZ-RI
    Molecular point group: c1

    Geometry (in Angstrom), charge = 0, multiplicity = 1:

       Center              X                  Y                   Z               Mass
    ------------   -----------------  -----------------  -----------------  -----------------
         O            2.747465225683    -0.435149021402    -0.326394730367    15.994914619570
         C            0.446003225683     0.262802978598     0.141465269633    12.000000000000
         C            1.920934225683     0.544579978598     0.303226269633    12.000000000000
         C           -0.472357774317     1.306762978598    -0.013734730367    12.000000000000
         C           -0.019895774317    -1.057599021402     0.176175269633    12.000000000000
         C           -1.838130774317     1.038943978598    -0.127195730367    12.000000000000
         C           -1.383394774317    -1.326930021402     0.055513269633    12.000000000000
         C           -2.296396774317    -0.279491021402    -0.092946730367    12.000000000000
         H            2.149047225683     1.555543978598    -0.066839730367     1.007825032230
         H            2.206009225683     0.512673978598     1.359443269633     1.007825032230
         H           -0.117456774317     2.335840978598    -0.052751730367     1.007825032230
         H            0.697008225683    -1.867251021402     0.288103269633     1.007825032230
         H           -2.542747774317     1.858112978598    -0.250506730367     1.007825032230
         H           -1.735806774317    -2.355566021402     0.081241269633     1.007825032230
         H           -3.358972774317    -0.490382021402    -0.186489730367     1.007825032230
         H            2.478068225683    -0.466113021402    -1.260884730367     1.007825032230

  Basis Set: AUG-CC-PVTZ
    Blend: AUG-CC-PVTZ
  Basis Set: (AUG-CC-PVTZ AUX)
    Blend: AUG-CC-PVTZ-JKFIT
	 Reference Energy          =    -344.7118588979172955 [Eh]
	 Singles Energy            =      -0.0000000000000000 [Eh]
	 Same-Spin Energy          =      -0.3678246264186606 [Eh]
	 Opposite-Spin Energy      =      -1.1625639435992989 [Eh]
	 Correlation Energy        =      -1.5303885700179596 [Eh]
	 Total Energy              =    -346.2422474679352717 [Eh]

	 ================> DF-SCS-MP2 Energies <==================
	-----------------------------------------------------------
	 SCS Same-Spin Scale       =       0.3333333333333333 [-]
	 SCS Opposite-Spin Scale   =       1.2000000000000000 [-]
	 SCS Same-Spin Energy      =      -0.1226082088062202 [Eh]
	 SCS Opposite-Spin Energy  =      -1.3950767323191586 [Eh]
	 SCS Correlation Energy    =      -1.5176849411253788 [Eh]
	 SCS Total Energy          =    -346.2295438390426625 [Eh]
	-----------------------------------------------------------

  Dipole Moment: [D]
     X:    -1.1832      Y:     0.7752      Z:    -0.6086     Total:     1.5399

*** Psi4 exiting successfully. Buy a developer a beer!
