                               Psi4 1.3.2 release

  ==> Input File <==

--------------------------------------------------------------------------
#psi4
#
memory 32 gb

molecule  {
0 1
  O        2.7081233    -0.4683750    -0.3403422
  C        0.4478060     0.2535600     0.1422380
  C        1.9227370     0.5353370     0.3039990
  C       -0.4705550     1.2975200    -0.0129620
  C       -0.0180930    -1.0668420     0.1769480
  C       -1.8363280     1.0297010    -0.1264230
  C       -1.3815920    -1.3361730     0.0562860
  C       -2.2945940    -0.2887340    -0.0921740
  H        2.1508500     1.5463010    -0.0660670
  H        2.2078120     0.5034310     1.3602160
  H       -0.1156540     2.3265980    -0.0519790
  H        0.6988110    -1.8764940     0.2888760
  H       -2.5409450     1.8488700    -0.2497340
  H       -1.7340040    -2.3648090     0.0820140
  H       -3.3571700    -0.4996250    -0.1857170
  H        2.4798710    -0.4753560    -1.2601120
units angstrom
no_reorient  #important for SAPT in psi4, default
symmetry c1  #important for SAPT in psi4, default
}

set PROPERTIES_ORIGIN ["COM"]
properties('MP2/aug-cc-pvtz', properties = ['dipole'])
--------------------------------------------------------------------------

    Molecular point group: c1
  Charge       = 0
  Multiplicity = 1
  Basis Set: AUG-CC-PVTZ
    Blend: AUG-CC-PVTZ
  Basis Set: (AUG-CC-PVTZ AUX)
    Blend: AUG-CC-PVTZ-JKFIT

    Orbital Energies [Eh]
    ---------------------

    Doubly Occupied:

       1A    -20.560617     2A    -11.286714     3A    -11.243190
       4A    -11.240540     5A    -11.239443     6A    -11.238775
       7A    -11.237434     8A    -11.234514     9A     -1.366724
      10A     -1.154378    11A     -1.039332    12A     -1.015823
      13A     -0.923328    14A     -0.829753    15A     -0.804629
      16A     -0.711412    17A     -0.685482    18A     -0.646424
      19A     -0.621571    20A     -0.608959    21A     -0.594793
      22A     -0.585300    23A     -0.532929    24A     -0.506546
      25A     -0.496086    26A     -0.483162    27A     -0.455362
      28A     -0.339481    29A     -0.332139

  @DF-RHF Final Energy:  -344.71262471920721

   => Energetics <=

    Nuclear Repulsion Energy =            341.1299513855422560
    One-Electron Energy =               -1143.6554722980283714
    Two-Electron Energy =                 457.8128961932789593
    Total Energy =                       -344.7126247192072128
  Basis Set: (AUG-CC-PVTZ AUX)
    Blend: AUG-CC-PVTZ-RI
    Molecular point group: c1

    Geometry (in Angstrom), charge = 0, multiplicity = 1:

       Center              X                  Y                   Z               Mass
    ------------   -----------------  -----------------  -----------------  -----------------
         O            2.712410856043    -0.455582004193    -0.338936013496    15.994914619570
         C            0.452093556043     0.266352995807     0.143644186504    12.000000000000
         C            1.927024556043     0.548129995807     0.305405186504    12.000000000000
         C           -0.466267443957     1.310312995807    -0.011555813496    12.000000000000
         C           -0.013805443957    -1.054049004193     0.178354186504    12.000000000000
         C           -1.832040443957     1.042493995807    -0.125016813496    12.000000000000
         C           -1.377304443957    -1.323380004193     0.057692186504    12.000000000000
         C           -2.290306443957    -0.275941004193    -0.090767813496    12.000000000000
         H            2.155137556043     1.559093995807    -0.064660813496     1.007825032230
         H            2.212099556043     0.516223995807     1.361622186504     1.007825032230
         H           -0.111366443957     2.339390995807    -0.050572813496     1.007825032230
         H            0.703098556043    -1.863701004193     0.290282186504     1.007825032230
         H           -2.536657443957     1.861662995807    -0.248327813496     1.007825032230
         H           -1.729716443957    -2.352016004193     0.083420186504     1.007825032230
         H           -3.352882443957    -0.486832004193    -0.184310813496     1.007825032230
         H            2.484158556043    -0.462563004193    -1.258705813496     1.007825032230

  Basis Set: AUG-CC-PVTZ
    Blend: AUG-CC-PVTZ
  Basis Set: (AUG-CC-PVTZ AUX)
    Blend: AUG-CC-PVTZ-JKFIT
	 Reference Energy          =    -344.7126247192072128 [Eh]
	 Singles Energy            =      -0.0000000000000000 [Eh]
	 Same-Spin Energy          =      -0.3675370739291879 [Eh]
	 Opposite-Spin Energy      =      -1.1617230947489432 [Eh]
	 Correlation Energy        =      -1.5292601686781311 [Eh]
	 Total Energy              =    -346.2418848878853623 [Eh]

	 ================> DF-SCS-MP2 Energies <==================
	-----------------------------------------------------------
	 SCS Same-Spin Scale       =       0.3333333333333333 [-]
	 SCS Opposite-Spin Scale   =       1.2000000000000000 [-]
	 SCS Same-Spin Energy      =      -0.1225123579763960 [Eh]
	 SCS Opposite-Spin Energy  =      -1.3940677136987318 [Eh]
	 SCS Correlation Energy    =      -1.5165800716751279 [Eh]
	 SCS Total Energy          =    -346.2292047908823633 [Eh]
	-----------------------------------------------------------

  Dipole Moment: [D]
     X:    -1.0569      Y:     0.8348      Z:    -0.5963     Total:     1.4729

*** Psi4 exiting successfully. Buy a developer a beer!
