                               Psi4 1.3.2 release

  ==> Input File <==

--------------------------------------------------------------------------
#psi4
#
memory 32 gb

molecule  {
0 1
  O        2.8664656    -0.3654052    -0.2769353
  C        0.4478060     0.2535600     0.1422380
  C        1.9227370     0.5353370     0.3039990
  C       -0.4705550     1.2975200    -0.0129620
  C       -0.0180930    -1.0668420     0.1769480
  C       -1.8363280     1.0297010    -0.1264230
  C       -1.3815920    -1.3361730     0.0562860
  C       -2.2945940    -0.2887340    -0.0921740
  H        2.1508500     1.5463010    -0.0660670
  H        2.2078120     0.5034310     1.3602160
  H       -0.1156540     2.3265980    -0.0519790
  H        0.6988110    -1.8764940     0.2888760
  H       -2.5409450     1.8488700    -0.2497340
  H       -1.7340040    -2.3648090     0.0820140
  H       -3.3571700    -0.4996250    -0.1857170
  H        2.4798710    -0.4753560    -1.2601120
units angstrom
no_reorient  #important for SAPT in psi4, default
symmetry c1  #important for SAPT in psi4, default
}

set PROPERTIES_ORIGIN ["COM"]
properties('MP2/aug-cc-pvtz', properties = ['dipole'])
--------------------------------------------------------------------------

    Molecular point group: c1
  Charge       = 0
  Multiplicity = 1
  Basis Set: AUG-CC-PVTZ
    Blend: AUG-CC-PVTZ
  Basis Set: (AUG-CC-PVTZ AUX)
    Blend: AUG-CC-PVTZ-JKFIT

    Orbital Energies [Eh]
    ---------------------

    Doubly Occupied:

       1A    -20.573535     2A    -11.283324     3A    -11.248202
       4A    -11.243720     5A    -11.242620     6A    -11.242272
       7A    -11.240570     8A    -11.238647     9A     -1.347076
      10A     -1.157627    11A     -1.040471    12A     -1.019121
      13A     -0.915829    14A     -0.832526    15A     -0.803959
      16A     -0.709633    17A     -0.671360    18A     -0.648775
      19A     -0.625217    20A     -0.602304    21A     -0.591200
      22A     -0.582804    23A     -0.537107    24A     -0.507440
      25A     -0.498045    26A     -0.484312    27A     -0.451963
      28A     -0.342558    29A     -0.335370

  @DF-RHF Final Energy:  -344.69704746767525

   => Energetics <=

    Nuclear Repulsion Energy =            338.9622664537000105
    One-Electron Energy =               -1139.2834589506410339
    Two-Electron Energy =                 455.6241450292657191
    Total Energy =                       -344.6970474676752474
  Basis Set: (AUG-CC-PVTZ AUX)
    Blend: AUG-CC-PVTZ-RI
    Molecular point group: c1

    Geometry (in Angstrom), charge = 0, multiplicity = 1:

       Center              X                  Y                   Z               Mass
    ------------   -----------------  -----------------  -----------------  -----------------
         O            2.847314975256    -0.367854023897    -0.284914744407    15.994914619570
         C            0.428655375256     0.251111176103     0.134258555593    12.000000000000
         C            1.903586375256     0.532888176103     0.296019555593    12.000000000000
         C           -0.489705624744     1.295071176103    -0.020941444407    12.000000000000
         C           -0.037243624744    -1.069290823897     0.168968555593    12.000000000000
         C           -1.855478624744     1.027252176103    -0.134402444407    12.000000000000
         C           -1.400742624744    -1.338621823897     0.048306555593    12.000000000000
         C           -2.313744624744    -0.291182823897    -0.100153444407    12.000000000000
         H            2.131699375256     1.543852176103    -0.074046444407     1.007825032230
         H            2.188661375256     0.500982176103     1.352236555593     1.007825032230
         H           -0.134804624744     2.324149176103    -0.059958444407     1.007825032230
         H            0.679660375256    -1.878942823897     0.280896555593     1.007825032230
         H           -2.560095624744     1.846421176103    -0.257713444407     1.007825032230
         H           -1.753154624744    -2.367257823897     0.074034555593     1.007825032230
         H           -3.376320624744    -0.502073823897    -0.193696444407     1.007825032230
         H            2.460720375256    -0.477804823897    -1.268091444407     1.007825032230

  Basis Set: AUG-CC-PVTZ
    Blend: AUG-CC-PVTZ
  Basis Set: (AUG-CC-PVTZ AUX)
    Blend: AUG-CC-PVTZ-JKFIT
	 Reference Energy          =    -344.6970474676752474 [Eh]
	 Singles Energy            =      -0.0000000000000000 [Eh]
	 Same-Spin Energy          =      -0.3690429295683278 [Eh]
	 Opposite-Spin Energy      =      -1.1660399348163146 [Eh]
	 Correlation Energy        =      -1.5350828643846426 [Eh]
	 Total Energy              =    -346.2321303320599100 [Eh]

	 ================> DF-SCS-MP2 Energies <==================
	-----------------------------------------------------------
	 SCS Same-Spin Scale       =       0.3333333333333333 [-]
	 SCS Opposite-Spin Scale   =       1.2000000000000000 [-]
	 SCS Same-Spin Energy      =      -0.1230143098561093 [Eh]
	 SCS Opposite-Spin Energy  =      -1.3992479217795775 [Eh]
	 SCS Correlation Energy    =      -1.5222622316356866 [Eh]
	 SCS Total Energy          =    -346.2193096993109407 [Eh]
	-----------------------------------------------------------

  Dipole Moment: [D]
     X:    -1.5184      Y:     0.5932      Z:    -0.6430     Total:     1.7524

*** Psi4 exiting successfully. Buy a developer a beer!
