                               Psi4 1.3.2 release

  ==> Input File <==

--------------------------------------------------------------------------
#psi4
#
memory 32 gb

molecule  {
0 1
  O        2.6660218    -0.4911351    -0.3542773
  C        0.4478060     0.2535600     0.1422380
  C        1.9227370     0.5353370     0.3039990
  C       -0.4705550     1.2975200    -0.0129620
  C       -0.0180930    -1.0668420     0.1769480
  C       -1.8363280     1.0297010    -0.1264230
  C       -1.3815920    -1.3361730     0.0562860
  C       -2.2945940    -0.2887340    -0.0921740
  H        2.1508500     1.5463010    -0.0660670
  H        2.2078120     0.5034310     1.3602160
  H       -0.1156540     2.3265980    -0.0519790
  H        0.6988110    -1.8764940     0.2888760
  H       -2.5409450     1.8488700    -0.2497340
  H       -1.7340040    -2.3648090     0.0820140
  H       -3.3571700    -0.4996250    -0.1857170
  H        2.4798710    -0.4753560    -1.2601120
units angstrom
no_reorient  #important for SAPT in psi4, default
symmetry c1  #important for SAPT in psi4, default
}

set PROPERTIES_ORIGIN ["COM"]
properties('MP2/aug-cc-pvtz', properties = ['dipole'])
--------------------------------------------------------------------------

    Molecular point group: c1
  Charge       = 0
  Multiplicity = 1
  Basis Set: AUG-CC-PVTZ
    Blend: AUG-CC-PVTZ
  Basis Set: (AUG-CC-PVTZ AUX)
    Blend: AUG-CC-PVTZ-JKFIT

    Orbital Energies [Eh]
    ---------------------

    Doubly Occupied:

       1A    -20.557611     2A    -11.287655     3A    -11.241944
       4A    -11.239650     5A    -11.238539     6A    -11.237782
       7A    -11.236544     8A    -11.233346     9A     -1.371807
      10A     -1.153489    11A     -1.039141    12A     -1.014908
      13A     -0.925231    14A     -0.829097    15A     -0.804458
      16A     -0.712047    17A     -0.688939    18A     -0.645820
      19A     -0.620455    20A     -0.611965    21A     -0.594720
      22A     -0.584475    23A     -0.531428    24A     -0.506528
      25A     -0.495564    26A     -0.482511    27A     -0.455480
      28A     -0.338620    29A     -0.331123

  @DF-RHF Final Energy:  -344.71143230964657

   => Energetics <=

    Nuclear Repulsion Energy =            341.7163599210074381
    One-Electron Energy =               -1144.8338341380153906
    Two-Electron Energy =                 458.4060419073613843
    Total Energy =                       -344.7114323096465682
  Basis Set: (AUG-CC-PVTZ AUX)
    Blend: AUG-CC-PVTZ-RI
    Molecular point group: c1

    Geometry (in Angstrom), charge = 0, multiplicity = 1:

       Center              X                  Y                   Z               Mass
    ------------   -----------------  -----------------  -----------------  -----------------
         O            2.676541314076    -0.474973103373    -0.350808408880    15.994914619570
         C            0.458325514076     0.269721996627     0.145706891120    12.000000000000
         C            1.933256514076     0.551498996627     0.307467891120    12.000000000000
         C           -0.460035485924     1.313681996627    -0.009493108880    12.000000000000
         C           -0.007573485924    -1.050680003373     0.180416891120    12.000000000000
         C           -1.825808485924     1.045862996627    -0.122954108880    12.000000000000
         C           -1.371072485924    -1.320011003373     0.059754891120    12.000000000000
         C           -2.284074485924    -0.272572003373    -0.088705108880    12.000000000000
         H            2.161369514076     1.562462996627    -0.062598108880     1.007825032230
         H            2.218331514076     0.519592996627     1.363684891120     1.007825032230
         H           -0.105134485924     2.342759996627    -0.048510108880     1.007825032230
         H            0.709330514076    -1.860332003373     0.292344891120     1.007825032230
         H           -2.530425485924     1.865031996627    -0.246265108880     1.007825032230
         H           -1.723484485924    -2.348647003373     0.085482891120     1.007825032230
         H           -3.346650485924    -0.483463003373    -0.182248108880     1.007825032230
         H            2.490390514076    -0.459194003373    -1.256643108880     1.007825032230

  Basis Set: AUG-CC-PVTZ
    Blend: AUG-CC-PVTZ
  Basis Set: (AUG-CC-PVTZ AUX)
    Blend: AUG-CC-PVTZ-JKFIT
	 Reference Energy          =    -344.7114323096465682 [Eh]
	 Singles Energy            =      -0.0000000000000000 [Eh]
	 Same-Spin Energy          =      -0.3673171569429719 [Eh]
	 Opposite-Spin Energy      =      -1.1610464166837877 [Eh]
	 Correlation Energy        =      -1.5283635736267596 [Eh]
	 Total Energy              =    -346.2397958832733025 [Eh]

	 ================> DF-SCS-MP2 Energies <==================
	-----------------------------------------------------------
	 SCS Same-Spin Scale       =       0.3333333333333333 [-]
	 SCS Opposite-Spin Scale   =       1.2000000000000000 [-]
	 SCS Same-Spin Energy      =      -0.1224390523143240 [Eh]
	 SCS Opposite-Spin Energy  =      -1.3932557000205452 [Eh]
	 SCS Correlation Energy    =      -1.5156947523348692 [Eh]
	 SCS Total Energy          =    -346.2271270619814345 [Eh]
	-----------------------------------------------------------

  Dipole Moment: [D]
     X:    -0.9223      Y:     0.8925      Z:    -0.5842     Total:     1.4102

*** Psi4 exiting successfully. Buy a developer a beer!
