                               Psi4 1.3.2 release

  ==> Input File <==

--------------------------------------------------------------------------
#psi4
#
memory 32 gb

molecule  {
-2 1
  O       -1.2362950     1.7303800    -0.2239510
  O        2.6794370    -1.1261430    -0.8901160
  O        3.7000480     0.2611620     0.6076450
  O       -3.2904550    -0.3020480    -0.9006360
  O       -2.5973840    -0.9175860     1.2002500
  C        0.1162890    -0.2520540     0.0602520
  C        1.3712430     0.6068110     0.1462360
  C       -1.2083040     0.4765911    -0.1014358
  C        2.7080760    -0.1725680    -0.0543080
  C       -2.4977060    -0.3261360     0.0823270
  H        0.0210760    -0.9244250     0.9209780
  H        0.2133690    -0.9136840    -0.8118550
  H        1.4153100     1.1406480     1.1027450
  H        1.3130670     1.3830990    -0.6295990
units angstrom
no_reorient  #important for SAPT in psi4, default
symmetry c1  #important for SAPT in psi4, default
}

set PROPERTIES_ORIGIN ["COM"]
properties('MP2/aug-cc-pvtz', properties = ['dipole'])
--------------------------------------------------------------------------

    Molecular point group: c1
  Charge       = -2
  Multiplicity = 1
  Basis Set: AUG-CC-PVTZ
    Blend: AUG-CC-PVTZ
  Basis Set: (AUG-CC-PVTZ AUX)
    Blend: AUG-CC-PVTZ-JKFIT

    Orbital Energies [Eh]
    ---------------------

    Doubly Occupied:

       1A    -20.287706     2A    -20.233576     3A    -20.230971
       4A    -20.210223     5A    -20.209301     6A    -11.073723
       7A    -11.072617     8A    -11.053241     9A    -10.971142
      10A    -10.958741    11A     -1.113023    12A     -1.082202
      13A     -1.075621    14A     -1.001366    15A     -0.977321
      16A     -0.789667    17A     -0.664652    18A     -0.561707
      19A     -0.438514    20A     -0.421545    21A     -0.382488
      22A     -0.368210    23A     -0.362377    24A     -0.332642
      25A     -0.325489    26A     -0.305116    27A     -0.284571
      28A     -0.273470    29A     -0.248209    30A     -0.226681
      31A     -0.214305    32A     -0.203382    33A     -0.147974
      34A     -0.129896    35A     -0.126788    36A     -0.117846
      37A     -0.110815    38A     -0.102872

  @DF-RHF Final Energy:  -566.18756278883666

   => Energetics <=

    Nuclear Repulsion Energy =            479.2734441507083716
    One-Electron Energy =               -1753.5420352561693562
    Two-Electron Energy =                 708.0810283166242698
    Total Energy =                       -566.1875627888366580
  Basis Set: (AUG-CC-PVTZ AUX)
    Blend: AUG-CC-PVTZ-RI
    Molecular point group: c1

    Geometry (in Angstrom), charge = -2, multiplicity = 1:

       Center              X                  Y                   Z               Mass
    ------------   -----------------  -----------------  -----------------  -----------------
         O           -1.215119370628     1.737207681530    -0.216144397368    15.994914619570
         O            2.700612629372    -1.119315318470    -0.882309397368    15.994914619570
         O            3.721223629372     0.267989681530     0.615451602632    15.994914619570
         O           -3.269279370628    -0.295220318470    -0.892829397368    15.994914619570
         O           -2.576208370628    -0.910758318470     1.208056602632    15.994914619570
         C            0.137464629372    -0.245226318470     0.068058602632    12.000000000000
         C            1.392418629372     0.613638681530     0.154042602632    12.000000000000
         C           -1.187128370628     0.483418781530    -0.093629197368    12.000000000000
         C            2.729251629372    -0.165740318470    -0.046501397368    12.000000000000
         C           -2.476530370628    -0.319308318470     0.090133602632    12.000000000000
         H            0.042251629372    -0.917597318470     0.928784602632     1.007825032230
         H            0.234544629372    -0.906856318470    -0.804048397368     1.007825032230
         H            1.436485629372     1.147475681530     1.110551602632     1.007825032230
         H            1.334242629372     1.389926681530    -0.621792397368     1.007825032230

  Basis Set: AUG-CC-PVTZ
    Blend: AUG-CC-PVTZ
  Basis Set: (AUG-CC-PVTZ AUX)
    Blend: AUG-CC-PVTZ-JKFIT
	 Reference Energy          =    -566.1875627888366580 [Eh]
	 Singles Energy            =      -0.0000000000000000 [Eh]
	 Same-Spin Energy          =      -0.5589234458231853 [Eh]
	 Opposite-Spin Energy      =      -1.6372202461821397 [Eh]
	 Correlation Energy        =      -2.1961436920053252 [Eh]
	 Total Energy              =    -568.3837064808419655 [Eh]

	 ================> DF-SCS-MP2 Energies <==================
	-----------------------------------------------------------
	 SCS Same-Spin Scale       =       0.3333333333333333 [-]
	 SCS Opposite-Spin Scale   =       1.2000000000000000 [-]
	 SCS Same-Spin Energy      =      -0.1863078152743951 [Eh]
	 SCS Opposite-Spin Energy  =      -1.9646642954185676 [Eh]
	 SCS Correlation Energy    =      -2.1509721106929627 [Eh]
	 SCS Total Energy          =    -568.3385348995295772 [Eh]
	-----------------------------------------------------------

  Dipole Moment: [D]
     X:    -1.3190      Y:     1.8854      Z:     0.2139     Total:     2.3109

*** Psi4 exiting successfully. Buy a developer a beer!
