                               Psi4 1.4a3.dev225

  ==> Input File <==

--------------------------------------------------------------------------
#psi4
#
memory 32 gb

molecule  {
-2 1
  O        1.2418990     1.7387210     0.0152810
  O       -2.6413570    -1.2266940     0.7274850
  O       -3.7043420     0.3864070    -0.4664210
  O        3.4703830     0.1255600     0.5711880
  O        2.3854260    -1.4395470    -0.6909830
  C       -0.1276340    -0.2366180    -0.0826630
  C       -1.3618580     0.6471040    -0.0555340
  C        1.1863480     0.5046370    -0.0325880
  C       -2.6840850    -0.1418490     0.0703610
  C        2.5193235    -0.3334234    -0.0233834
  H       -0.1095280    -0.8768510    -0.9719090
  H       -0.1594520    -0.9384420     0.7596660
  H       -1.4090040     1.2787430    -0.9482840
  H       -1.2952160     1.3354770     0.7981610
units angstrom
no_reorient  #important for SAPT in psi4, default
symmetry c1  #important for SAPT in psi4, default
}

set PROPERTIES_ORIGIN ["COM"]
properties('MP2/aug-cc-pvtz', properties = ['dipole'])
--------------------------------------------------------------------------

    Molecular point group: c1
  Charge       = -2
  Multiplicity = 1
  Basis Set: AUG-CC-PVTZ
    Blend: AUG-CC-PVTZ
  Basis Set: (AUG-CC-PVTZ AUX)
    Blend: AUG-CC-PVTZ-JKFIT

    Orbital Energies [Eh]
    ---------------------

    Doubly Occupied:

       1A    -20.287565     2A    -20.235735     3A    -20.217620
       4A    -20.205237     5A    -20.203874     6A    -11.066164
       7A    -11.063007     8A    -11.047104     9A    -10.962742
      10A    -10.954444    11A     -1.124367    12A     -1.094149
      13A     -1.072316    14A     -0.994340    15A     -0.971623
      16A     -0.787240    17A     -0.655804    18A     -0.548386
      19A     -0.438654    20A     -0.418671    21A     -0.382541
      22A     -0.368019    23A     -0.366044    24A     -0.328985
      25A     -0.319045    26A     -0.300516    27A     -0.296264
      28A     -0.271365    29A     -0.240948    30A     -0.228319
      31A     -0.212458    32A     -0.204399    33A     -0.144221
      34A     -0.124291    35A     -0.121030    36A     -0.113865
      37A     -0.105927    38A     -0.096935

  @DF-RHF Final Energy:  -566.18812202447100

   => Energetics <=

    Nuclear Repulsion Energy =            481.6536019376483182
    One-Electron Energy =               -1758.5350241426331195
    Two-Electron Energy =                 710.6933001805138019
    Total Energy =                       -566.1881220244709993
  Basis Set: (AUG-CC-PVTZ AUX)
    Blend: AUG-CC-PVTZ-RI
    Molecular point group: c1

    Geometry (in Angstrom), charge = -2, multiplicity = 1:

       Center              X                  Y                   Z               Mass
    ------------   -----------------  -----------------  -----------------  -----------------
         O            1.218170881933     1.742632985760     0.010745674159    15.994914619570
         O           -2.665085118067    -1.222782014240     0.722949674159    15.994914619570
         O           -3.728070118067     0.390318985760    -0.470956325841    15.994914619570
         O            3.446654881933     0.129471985760     0.566652674159    15.994914619570
         O            2.361697881933    -1.435635014240    -0.695518325841    15.994914619570
         C           -0.151362118067    -0.232706014240    -0.087198325841    12.000000000000
         C           -1.385586118067     0.651015985760    -0.060069325841    12.000000000000
         C            1.162619881933     0.508548985760    -0.037123325841    12.000000000000
         C           -2.707813118067    -0.137937014240     0.065825674159    12.000000000000
         C            2.495595381933    -0.329511414240    -0.027918725841    12.000000000000
         H           -0.133256118067    -0.872939014240    -0.976444325841     1.007825032230
         H           -0.183180118067    -0.934530014240     0.755130674159     1.007825032230
         H           -1.432732118067     1.282654985760    -0.952819325841     1.007825032230
         H           -1.318944118067     1.339388985760     0.793625674159     1.007825032230

  Basis Set: AUG-CC-PVTZ
    Blend: AUG-CC-PVTZ
  Basis Set: (AUG-CC-PVTZ AUX)
    Blend: AUG-CC-PVTZ-JKFIT
	 Reference Energy          =    -566.1881220244709993 [Eh]
	 Singles Energy            =      -0.0000000000000000 [Eh]
	 Same-Spin Energy          =      -0.5579323865618763 [Eh]
	 Opposite-Spin Energy      =      -1.6347732615292729 [Eh]
	 Correlation Energy        =      -2.1927056480911493 [Eh]
	 Total Energy              =    -568.3808276725621909 [Eh]

	 ================> DF-SCS-MP2 Energies <==================
	-----------------------------------------------------------
	 SCS Same-Spin Scale       =       0.3333333333333333 [-]
	 SCS Opposite-Spin Scale   =       1.2000000000000000 [-]
	 SCS Same-Spin Energy      =      -0.1859774621872921 [Eh]
	 SCS Opposite-Spin Energy  =      -1.9617279138351273 [Eh]
	 SCS Correlation Energy    =      -2.1477053760224196 [Eh]
	 SCS Total Energy          =    -568.3358274004933719 [Eh]
	-----------------------------------------------------------

  Dipole Moment: [D]
     X:     1.6483      Y:     2.4165      Z:    -0.0918     Total:     2.9266

*** Psi4 exiting successfully. Buy a developer a beer!
