                               Psi4 1.4a3.dev225

  ==> Input File <==

--------------------------------------------------------------------------
#psi4
#
memory 32 gb

molecule  {
-2 1
  O        1.2418990     1.7387210     0.0152810
  O       -2.6413570    -1.2266940     0.7274850
  O       -3.7043420     0.3864070    -0.4664210
  O        3.4703830     0.1255600     0.5711880
  O        2.3854260    -1.4395470    -0.6909830
  C       -0.1276340    -0.2366180    -0.0826630
  C       -1.3618580     0.6471040    -0.0555340
  C        1.1863480     0.5046370    -0.0325880
  C       -2.6840850    -0.1418490     0.0703610
  C        2.5217670    -0.3799710    -0.0484078
  H       -0.1095280    -0.8768510    -0.9719090
  H       -0.1594520    -0.9384420     0.7596660
  H       -1.4090040     1.2787430    -0.9482840
  H       -1.2952160     1.3354770     0.7981610
units angstrom
no_reorient  #important for SAPT in psi4, default
symmetry c1  #important for SAPT in psi4, default
}

set PROPERTIES_ORIGIN ["COM"]
properties('MP2/aug-cc-pvtz', properties = ['dipole'])
--------------------------------------------------------------------------

    Molecular point group: c1
  Charge       = -2
  Multiplicity = 1
  Basis Set: AUG-CC-PVTZ
    Blend: AUG-CC-PVTZ
  Basis Set: (AUG-CC-PVTZ AUX)
    Blend: AUG-CC-PVTZ-JKFIT

    Orbital Energies [Eh]
    ---------------------

    Doubly Occupied:

       1A    -20.284638     2A    -20.228750     3A    -20.226876
       4A    -20.204914     5A    -20.203633     6A    -11.066706
       7A    -11.059501     8A    -11.046639     9A    -10.961563
      10A    -10.953678    11A     -1.119595    12A     -1.092017
      13A     -1.072018    14A     -1.011493    15A     -0.971342
      16A     -0.786407    17A     -0.653162    18A     -0.539767
      19A     -0.437135    20A     -0.417881    21A     -0.382101
      22A     -0.367096    23A     -0.363733    24A     -0.332564
      25A     -0.318935    26A     -0.300673    27A     -0.296799
      28A     -0.272291    29A     -0.240257    30A     -0.227496
      31A     -0.213624    32A     -0.204387    33A     -0.148725
      34A     -0.129333    35A     -0.121149    36A     -0.113315
      37A     -0.105634    38A     -0.091341

  @DF-RHF Final Energy:  -566.19123489014157

   => Energetics <=

    Nuclear Repulsion Energy =            481.5701124122604142
    One-Electron Energy =               -1758.3883527229170340
    Two-Electron Energy =                 710.6270054205150473
    Total Energy =                       -566.1912348901415726
  Basis Set: (AUG-CC-PVTZ AUX)
    Blend: AUG-CC-PVTZ-RI
    Molecular point group: c1

    Geometry (in Angstrom), charge = -2, multiplicity = 1:

       Center              X                  Y                   Z               Mass
    ------------   -----------------  -----------------  -----------------  -----------------
         O            1.217967265237     1.746511794224     0.012830955775    15.994914619570
         O           -2.665288734763    -1.218903205776     0.725034955775    15.994914619570
         O           -3.728273734763     0.394197794224    -0.468871044225    15.994914619570
         O            3.446451265237     0.133350794224     0.568737955775    15.994914619570
         O            2.361494265237    -1.431756205776    -0.693433044225    15.994914619570
         C           -0.151565734763    -0.228827205776    -0.085113044225    12.000000000000
         C           -1.385789734763     0.654894794224    -0.057984044225    12.000000000000
         C            1.162416265237     0.512427794224    -0.035038044225    12.000000000000
         C           -2.708016734763    -0.134058205776     0.067910955775    12.000000000000
         C            2.497835265237    -0.372180205776    -0.050857844225    12.000000000000
         H           -0.133459734763    -0.869060205776    -0.974359044225     1.007825032230
         H           -0.183383734763    -0.930651205776     0.757215955775     1.007825032230
         H           -1.432935734763     1.286533794224    -0.950734044225     1.007825032230
         H           -1.319147734763     1.343267794224     0.795710955775     1.007825032230

  Basis Set: AUG-CC-PVTZ
    Blend: AUG-CC-PVTZ
  Basis Set: (AUG-CC-PVTZ AUX)
    Blend: AUG-CC-PVTZ-JKFIT
	 Reference Energy          =    -566.1912348901415726 [Eh]
	 Singles Energy            =      -0.0000000000000000 [Eh]
	 Same-Spin Energy          =      -0.5575957430680366 [Eh]
	 Opposite-Spin Energy      =      -1.6338186664567957 [Eh]
	 Correlation Energy        =      -2.1914144095248322 [Eh]
	 Total Energy              =    -568.3826492996663546 [Eh]

	 ================> DF-SCS-MP2 Energies <==================
	-----------------------------------------------------------
	 SCS Same-Spin Scale       =       0.3333333333333333 [-]
	 SCS Opposite-Spin Scale   =       1.2000000000000000 [-]
	 SCS Same-Spin Energy      =      -0.1858652476893455 [Eh]
	 SCS Opposite-Spin Energy  =      -1.9605823997481548 [Eh]
	 SCS Correlation Energy    =      -2.1464476474375003 [Eh]
	 SCS Total Energy          =    -568.3376825375790986 [Eh]
	-----------------------------------------------------------

  Dipole Moment: [D]
     X:     1.5650      Y:     2.0375      Z:    -0.3743     Total:     2.5963

*** Psi4 exiting successfully. Buy a developer a beer!
