                               Psi4 1.4a3.dev225

  ==> Input File <==

--------------------------------------------------------------------------
#psi4
#
memory 32 gb

molecule  {
-2 1
  O        1.2418990     1.7387210     0.0152810
  O       -2.6413570    -1.2266940     0.7274850
  O       -3.7043420     0.3864070    -0.4664210
  O        3.4703830     0.1255600     0.5711880
  O        2.3854260    -1.4395470    -0.6909830
  C       -0.1276340    -0.2366180    -0.0826630
  C       -1.3618580     0.6471040    -0.0555340
  C        1.1428235     0.4800836    -0.0342467
  C       -2.6840850    -0.1418490     0.0703610
  C        2.4800850    -0.3523600    -0.0479140
  H       -0.1095280    -0.8768510    -0.9719090
  H       -0.1594520    -0.9384420     0.7596660
  H       -1.4090040     1.2787430    -0.9482840
  H       -1.2952160     1.3354770     0.7981610
units angstrom
no_reorient  #important for SAPT in psi4, default
symmetry c1  #important for SAPT in psi4, default
}

set PROPERTIES_ORIGIN ["COM"]
properties('MP2/aug-cc-pvtz', properties = ['dipole'])
--------------------------------------------------------------------------

    Molecular point group: c1
  Charge       = -2
  Multiplicity = 1
  Basis Set: AUG-CC-PVTZ
    Blend: AUG-CC-PVTZ
  Basis Set: (AUG-CC-PVTZ AUX)
    Blend: AUG-CC-PVTZ-JKFIT

    Orbital Energies [Eh]
    ---------------------

    Doubly Occupied:

       1A    -20.286735     2A    -20.226330     3A    -20.224557
       4A    -20.207427     5A    -20.206446     6A    -11.068414
       7A    -11.067285     8A    -11.049491     9A    -10.965911
      10A    -10.957782    11A     -1.107877    12A     -1.077831
      13A     -1.074617    14A     -0.994258    15A     -0.974027
      16A     -0.800364    17A     -0.667046    18A     -0.548511
      19A     -0.442487    20A     -0.418002    21A     -0.379904
      22A     -0.373441    23A     -0.362619    24A     -0.326855
      25A     -0.319164    26A     -0.301449    27A     -0.293170
      28A     -0.270284    29A     -0.241881    30A     -0.225012
      31A     -0.212302    32A     -0.204921    33A     -0.140599
      34A     -0.125709    35A     -0.121067    36A     -0.116486
      37A     -0.108244    38A     -0.102144

  @DF-RHF Final Energy:  -566.18371876259130

   => Energetics <=

    Nuclear Repulsion Energy =            481.8073072510200063
    One-Electron Energy =               -1758.8007574884884434
    Two-Electron Energy =                 710.8097314748772533
    Total Energy =                       -566.1837187625912975
  Basis Set: (AUG-CC-PVTZ AUX)
    Blend: AUG-CC-PVTZ-RI
    Molecular point group: c1

    Geometry (in Angstrom), charge = -2, multiplicity = 1:

       Center              X                  Y                   Z               Mass
    ------------   -----------------  -----------------  -----------------  -----------------
         O            1.225067517311     1.746257004616     0.012928026816    15.994914619570
         O           -2.658188482689    -1.219157995384     0.725132026816    15.994914619570
         O           -3.721173482689     0.393943004616    -0.468773973184    15.994914619570
         O            3.453551517311     0.133096004616     0.568835026816    15.994914619570
         O            2.368594517311    -1.432010995384    -0.693335973184    15.994914619570
         C           -0.144465482689    -0.229081995384    -0.085015973184    12.000000000000
         C           -1.378689482689     0.654640004616    -0.057886973184    12.000000000000
         C            1.125992017311     0.487619604616    -0.036599673184    12.000000000000
         C           -2.700916482689    -0.134312995384     0.068008026816    12.000000000000
         C            2.463253517311    -0.344823995384    -0.050266973184    12.000000000000
         H           -0.126359482689    -0.869314995384    -0.974261973184     1.007825032230
         H           -0.176283482689    -0.930905995384     0.757313026816     1.007825032230
         H           -1.425835482689     1.286279004616    -0.950636973184     1.007825032230
         H           -1.312047482689     1.343013004616     0.795808026816     1.007825032230

  Basis Set: AUG-CC-PVTZ
    Blend: AUG-CC-PVTZ
  Basis Set: (AUG-CC-PVTZ AUX)
    Blend: AUG-CC-PVTZ-JKFIT
	 Reference Energy          =    -566.1837187625912975 [Eh]
	 Singles Energy            =      -0.0000000000000000 [Eh]
	 Same-Spin Energy          =      -0.5594433759220319 [Eh]
	 Opposite-Spin Energy      =      -1.6376772057810007 [Eh]
	 Correlation Energy        =      -2.1971205817030324 [Eh]
	 Total Energy              =    -568.3808393442943725 [Eh]

	 ================> DF-SCS-MP2 Energies <==================
	-----------------------------------------------------------
	 SCS Same-Spin Scale       =       0.3333333333333333 [-]
	 SCS Opposite-Spin Scale   =       1.2000000000000000 [-]
	 SCS Same-Spin Energy      =      -0.1864811253073440 [Eh]
	 SCS Opposite-Spin Energy  =      -1.9652126469372009 [Eh]
	 SCS Correlation Energy    =      -2.1516937722445446 [Eh]
	 SCS Total Energy          =    -568.3354125348358821 [Eh]
	-----------------------------------------------------------

  Dipole Moment: [D]
     X:     1.0720      Y:     2.0137      Z:    -0.3681     Total:     2.3108

*** Psi4 exiting successfully. Buy a developer a beer!
