                               Psi4 1.3.2 release

  ==> Input File <==

--------------------------------------------------------------------------
#psi4
#
memory 32 gb

molecule  {
-2 1
  O       -1.2362950     1.7303800    -0.2239510
  O        2.6794370    -1.1261430    -0.8901160
  O        3.7000480     0.2611620     0.6076450
  O       -3.2904550    -0.3020480    -0.9006360
  O       -2.5973840    -0.9175860     1.2002500
  C        0.1162890    -0.2520540     0.0602520
  C        1.3712430     0.6068110     0.1462360
  C       -1.2223790     0.4231700    -0.1920450
  C        2.7080760    -0.1725680    -0.0543080
  C       -2.4977060    -0.3261360     0.0823270
  H        0.0210760    -0.9244250     0.9209780
  H        0.2133690    -0.9136840    -0.8118550
  H        1.4153100     1.1406480     1.1027450
  H        1.3130670     1.3830990    -0.6295990
units angstrom
no_reorient  #important for SAPT in psi4, default
symmetry c1  #important for SAPT in psi4, default
}

set PROPERTIES_ORIGIN ["COM"]
properties('MP2/aug-cc-pvtz', properties = ['dipole'])
--------------------------------------------------------------------------

    Molecular point group: c1
  Charge       = -2
  Multiplicity = 1
  Basis Set: AUG-CC-PVTZ
    Blend: AUG-CC-PVTZ
  Basis Set: (AUG-CC-PVTZ AUX)
    Blend: AUG-CC-PVTZ-JKFIT

    Orbital Energies [Eh]
    ---------------------

    Doubly Occupied:

       1A    -20.286579     2A    -20.237139     3A    -20.231913
       4A    -20.210520     5A    -20.209364     6A    -11.079465
       7A    -11.076517     8A    -11.053591     9A    -10.973517
      10A    -10.959504    11A     -1.108208    12A     -1.075922
      13A     -1.063067    14A     -1.004050    15A     -0.977496
      16A     -0.790164    17A     -0.670709    18A     -0.568963
      19A     -0.435006    20A     -0.421353    21A     -0.383581
      22A     -0.366486    23A     -0.355187    24A     -0.334488
      25A     -0.326099    26A     -0.303497    27A     -0.284073
      28A     -0.270545    29A     -0.247693    30A     -0.221805
      31A     -0.209345    32A     -0.194169    33A     -0.149430
      34A     -0.132304    35A     -0.127810    36A     -0.119271
      37A     -0.110976    38A     -0.107287

  @DF-RHF Final Energy:  -566.16735621774626

   => Energetics <=

    Nuclear Repulsion Energy =            478.8872246802773134
    One-Electron Energy =               -1752.7549759820822146
    Two-Electron Energy =                 707.7003950840586413
    Total Energy =                       -566.1673562177462600
  Basis Set: (AUG-CC-PVTZ AUX)
    Blend: AUG-CC-PVTZ-RI
    Molecular point group: c1

    Geometry (in Angstrom), charge = -2, multiplicity = 1:

       Center              X                  Y                   Z               Mass
    ------------   -----------------  -----------------  -----------------  -----------------
         O           -1.213946501798     1.741659258300    -0.208593938657    15.994914619570
         O            2.701785498202    -1.114863741700    -0.874758938657    15.994914619570
         O            3.722396498202     0.272441258300     0.623002061343    15.994914619570
         O           -3.268106501798    -0.290768741700    -0.885278938657    15.994914619570
         O           -2.575035501798    -0.906306741700     1.215607061343    15.994914619570
         C            0.138637498202    -0.240774741700     0.075609061343    12.000000000000
         C            1.393591498202     0.618090258300     0.161593061343    12.000000000000
         C           -1.200030501798     0.434449258300    -0.176687938657    12.000000000000
         C            2.730424498202    -0.161288741700    -0.038950938657    12.000000000000
         C           -2.475357501798    -0.314856741700     0.097684061343    12.000000000000
         H            0.043424498202    -0.913145741700     0.936335061343     1.007825032230
         H            0.235717498202    -0.902404741700    -0.796497938657     1.007825032230
         H            1.437658498202     1.151927258300     1.118102061343     1.007825032230
         H            1.335415498202     1.394378258300    -0.614241938657     1.007825032230

  Basis Set: AUG-CC-PVTZ
    Blend: AUG-CC-PVTZ
  Basis Set: (AUG-CC-PVTZ AUX)
    Blend: AUG-CC-PVTZ-JKFIT
	 Reference Energy          =    -566.1673562177462600 [Eh]
	 Singles Energy            =      -0.0000000000000000 [Eh]
	 Same-Spin Energy          =      -0.5609087146853631 [Eh]
	 Opposite-Spin Energy      =      -1.6416137048951533 [Eh]
	 Correlation Energy        =      -2.2025224195805162 [Eh]
	 Total Energy              =    -568.3698786373267922 [Eh]

	 ================> DF-SCS-MP2 Energies <==================
	-----------------------------------------------------------
	 SCS Same-Spin Scale       =       0.3333333333333333 [-]
	 SCS Opposite-Spin Scale   =       1.2000000000000000 [-]
	 SCS Same-Spin Energy      =      -0.1869695715617877 [Eh]
	 SCS Opposite-Spin Energy  =      -1.9699364458741839 [Eh]
	 SCS Correlation Energy    =      -2.1569060174359715 [Eh]
	 SCS Total Energy          =    -568.3242622351822320 [Eh]
	-----------------------------------------------------------

  Dipole Moment: [D]
     X:    -1.3598      Y:     1.6790      Z:     0.1356     Total:     2.1648

*** Psi4 exiting successfully. Buy a developer a beer!
