                               Psi4 1.3.2 release

  ==> Input File <==

--------------------------------------------------------------------------
#psi4
#
memory 32 gb

molecule  {
-2 1
  O       -1.2362950     1.7303800    -0.2239510
  O        2.6794370    -1.1261430    -0.8901160
  O        3.7000480     0.2611620     0.6076450
  O       -3.2904550    -0.3020480    -0.9006360
  O       -2.5973840    -0.9175860     1.2002500
  C        0.1162890    -0.2520540     0.0602520
  C        1.3712430     0.6068110     0.1462360
  C       -1.2037736     0.4894015    -0.0786430
  C        2.7080760    -0.1725680    -0.0543080
  C       -2.4977060    -0.3261360     0.0823270
  H        0.0210760    -0.9244250     0.9209780
  H        0.2133690    -0.9136840    -0.8118550
  H        1.4153100     1.1406480     1.1027450
  H        1.3130670     1.3830990    -0.6295990
units angstrom
no_reorient  #important for SAPT in psi4, default
symmetry c1  #important for SAPT in psi4, default
}

set PROPERTIES_ORIGIN ["COM"]
properties('MP2/aug-cc-pvtz', properties = ['dipole'])
--------------------------------------------------------------------------

    Molecular point group: c1
  Charge       = -2
  Multiplicity = 1
  Basis Set: AUG-CC-PVTZ
    Blend: AUG-CC-PVTZ
  Basis Set: (AUG-CC-PVTZ AUX)
    Blend: AUG-CC-PVTZ-JKFIT

    Orbital Energies [Eh]
    ---------------------

    Doubly Occupied:

       1A    -20.288128     2A    -20.232592     3A    -20.230756
       4A    -20.210154     5A    -20.209296     6A    -11.072993
       7A    -11.071265     8A    -11.053151     9A    -10.970679
      10A    -10.958566    11A     -1.115865    12A     -1.084713
      13A     -1.075602    14A     -1.000660    15A     -0.977284
      16A     -0.789606    17A     -0.663059    18A     -0.559481
      19A     -0.439498    20A     -0.421602    21A     -0.382238
      22A     -0.369112    23A     -0.363468    24A     -0.332063
      25A     -0.325316    26A     -0.305523    27A     -0.284770
      28A     -0.273901    29A     -0.248469    30A     -0.228258
      31A     -0.214850    32A     -0.205351    33A     -0.147526
      34A     -0.129272    35A     -0.126561    36A     -0.117478
      37A     -0.110789    38A     -0.101298

  @DF-RHF Final Energy:  -566.19016060685749

   => Energetics <=

    Nuclear Repulsion Energy =            479.3361865773403565
    One-Electron Energy =               -1753.6703084227788167
    Two-Electron Energy =                 708.1439612385809141
    Total Energy =                       -566.1901606068574893
  Basis Set: (AUG-CC-PVTZ AUX)
    Blend: AUG-CC-PVTZ-RI
    Molecular point group: c1

    Geometry (in Angstrom), charge = -2, multiplicity = 1:

       Center              X                  Y                   Z               Mass
    ------------   -----------------  -----------------  -----------------  -----------------
         O           -1.215496888563     1.736140191735    -0.218043719902    15.994914619570
         O            2.700235111437    -1.120382808265    -0.884208719902    15.994914619570
         O            3.720846111437     0.266922191735     0.613552280098    15.994914619570
         O           -3.269656888563    -0.296287808265    -0.894728719902    15.994914619570
         O           -2.576585888563    -0.911825808265     1.206157280098    15.994914619570
         C            0.137087111437    -0.246293808265     0.066159280098    12.000000000000
         C            1.392041111437     0.612571191735     0.152143280098    12.000000000000
         C           -1.182975488563     0.495161691735    -0.072735719902    12.000000000000
         C            2.728874111437    -0.166807808265    -0.048400719902    12.000000000000
         C           -2.476907888563    -0.320375808265     0.088234280098    12.000000000000
         H            0.041874111437    -0.918664808265     0.926885280098     1.007825032230
         H            0.234167111437    -0.907923808265    -0.805947719902     1.007825032230
         H            1.436108111437     1.146408191735     1.108652280098     1.007825032230
         H            1.333865111437     1.388859191735    -0.623691719902     1.007825032230

  Basis Set: AUG-CC-PVTZ
    Blend: AUG-CC-PVTZ
  Basis Set: (AUG-CC-PVTZ AUX)
    Blend: AUG-CC-PVTZ-JKFIT
	 Reference Energy          =    -566.1901606068574893 [Eh]
	 Singles Energy            =      -0.0000000000000000 [Eh]
	 Same-Spin Energy          =      -0.5585627298824678 [Eh]
	 Opposite-Spin Energy      =      -1.6364406292886629 [Eh]
	 Correlation Energy        =      -2.1950033591711309 [Eh]
	 Total Energy              =    -568.3851639660285855 [Eh]

	 ================> DF-SCS-MP2 Energies <==================
	-----------------------------------------------------------
	 SCS Same-Spin Scale       =       0.3333333333333333 [-]
	 SCS Opposite-Spin Scale   =       1.2000000000000000 [-]
	 SCS Same-Spin Energy      =      -0.1861875766274892 [Eh]
	 SCS Opposite-Spin Energy  =      -1.9637287551463953 [Eh]
	 SCS Correlation Energy    =      -2.1499163317738845 [Eh]
	 SCS Total Energy          =    -568.3400769386313414 [Eh]
	-----------------------------------------------------------

  Dipole Moment: [D]
     X:    -1.3061      Y:     1.9410      Z:     0.2346     Total:     2.3513

*** Psi4 exiting successfully. Buy a developer a beer!
