                               Psi4 1.3.2 release

  ==> Input File <==

--------------------------------------------------------------------------
#psi4
#
memory 32 gb

molecule  {
-2 1
  O       -1.2362950     1.7303800    -0.2239510
  O        2.6794370    -1.1261430    -0.8901160
  O        3.7000480     0.2611620     0.6076450
  O       -3.2904550    -0.3020480    -0.9006360
  O       -2.5973840    -0.9175860     1.2002500
  C        0.1162890    -0.2520540     0.0602520
  C        1.3712430     0.6068110     0.1462360
  C       -1.1877757     0.5264623    -0.0100388
  C        2.7080760    -0.1725680    -0.0543080
  C       -2.4977060    -0.3261360     0.0823270
  H        0.0210760    -0.9244250     0.9209780
  H        0.2133690    -0.9136840    -0.8118550
  H        1.4153100     1.1406480     1.1027450
  H        1.3130670     1.3830990    -0.6295990
units angstrom
no_reorient  #important for SAPT in psi4, default
symmetry c1  #important for SAPT in psi4, default
}

set PROPERTIES_ORIGIN ["COM"]
properties('MP2/aug-cc-pvtz', properties = ['dipole'])
--------------------------------------------------------------------------

    Molecular point group: c1
  Charge       = -2
  Multiplicity = 1
  Basis Set: AUG-CC-PVTZ
    Blend: AUG-CC-PVTZ
  Basis Set: (AUG-CC-PVTZ AUX)
    Blend: AUG-CC-PVTZ-JKFIT

    Orbital Energies [Eh]
    ---------------------

    Doubly Occupied:

       1A    -20.289741     2A    -20.230200     3A    -20.229447
       4A    -20.209977     5A    -20.209317     6A    -11.070986
       7A    -11.067973     8A    -11.052893     9A    -10.969710
      10A    -10.958101    11A     -1.127110    12A     -1.087602
      13A     -1.075527    14A     -0.998499    15A     -0.977206
      16A     -0.789610    17A     -0.658307    18A     -0.551913
      19A     -0.442555    20A     -0.421753    21A     -0.381552
      22A     -0.373087    23A     -0.364679    24A     -0.330140
      25A     -0.324772    26A     -0.306683    27A     -0.285555
      28A     -0.274611    29A     -0.249902    30A     -0.232175
      31A     -0.215882    32A     -0.210379    33A     -0.146060
      34A     -0.127480    35A     -0.125923    36A     -0.116445
      37A     -0.110749    38A     -0.095328

  @DF-RHF Final Energy:  -566.19203310125113

   => Energetics <=

    Nuclear Repulsion Energy =            479.4359610968619450
    One-Electron Energy =               -1753.8763308464529018
    Two-Electron Energy =                 708.2483366483397731
    Total Energy =                       -566.1920331012511269
  Basis Set: (AUG-CC-PVTZ AUX)
    Blend: AUG-CC-PVTZ-RI
    Molecular point group: c1

    Geometry (in Angstrom), charge = -2, multiplicity = 1:

       Center              X                  Y                   Z               Mass
    ------------   -----------------  -----------------  -----------------  -----------------
         O           -1.216829992524     1.733051917695    -0.223760503402    15.994914619570
         O            2.698902007476    -1.123471082305    -0.889925503402    15.994914619570
         O            3.719513007476     0.263833917695     0.607835496598    15.994914619570
         O           -3.270989992524    -0.299376082305    -0.900445503402    15.994914619570
         O           -2.577918992524    -0.914914082305     1.200440496598    15.994914619570
         C            0.135754007476    -0.249382082305     0.060442496598    12.000000000000
         C            1.390708007476     0.609482917695     0.146426496598    12.000000000000
         C           -1.168310692524     0.529134217695    -0.009848303402    12.000000000000
         C            2.727541007476    -0.169896082305    -0.054117503402    12.000000000000
         C           -2.478240992524    -0.323464082305     0.082517496598    12.000000000000
         H            0.040541007476    -0.921753082305     0.921168496598     1.007825032230
         H            0.232834007476    -0.911012082305    -0.811664503402     1.007825032230
         H            1.434775007476     1.143319917695     1.102935496598     1.007825032230
         H            1.332532007476     1.385770917695    -0.629408503402     1.007825032230

  Basis Set: AUG-CC-PVTZ
    Blend: AUG-CC-PVTZ
  Basis Set: (AUG-CC-PVTZ AUX)
    Blend: AUG-CC-PVTZ-JKFIT
	 Reference Energy          =    -566.1920331012511269 [Eh]
	 Singles Energy            =      -0.0000000000000000 [Eh]
	 Same-Spin Energy          =      -0.5578196160108210 [Eh]
	 Opposite-Spin Energy      =      -1.6349131508375012 [Eh]
	 Correlation Energy        =      -2.1927327668483221 [Eh]
	 Total Energy              =    -568.3847658680994073 [Eh]

	 ================> DF-SCS-MP2 Energies <==================
	-----------------------------------------------------------
	 SCS Same-Spin Scale       =       0.3333333333333333 [-]
	 SCS Opposite-Spin Scale   =       1.2000000000000000 [-]
	 SCS Same-Spin Energy      =      -0.1859398720036070 [Eh]
	 SCS Opposite-Spin Energy  =      -1.9618957810050013 [Eh]
	 SCS Correlation Energy    =      -2.1478356530086082 [Eh]
	 SCS Total Energy          =    -568.3398687542597827 [Eh]
	-----------------------------------------------------------

  Dipole Moment: [D]
     X:    -1.2593      Y:     2.1120      Z:     0.2974     Total:     2.4769

*** Psi4 exiting successfully. Buy a developer a beer!
