                               Psi4 1.4a3.dev225

  ==> Input File <==

--------------------------------------------------------------------------
#psi4
#
memory 32 gb

molecule  {
-2 1
  O        1.2418990     1.7387210     0.0152810
  O       -2.6413570    -1.2266940     0.7274850
  O       -3.7043420     0.3864070    -0.4664210
  O        3.4703830     0.1255600     0.5711880
  O        2.3854260    -1.4395470    -0.6909830
  C       -0.1276340    -0.2366180    -0.0826630
  C       -1.3618580     0.6471040    -0.0555340
  C        1.1854493     0.4846722    -0.0333624
  C       -2.6840850    -0.1418490     0.0703610
  C        2.4800850    -0.3523600    -0.0479140
  H       -0.1095280    -0.8768510    -0.9719090
  H       -0.1594520    -0.9384420     0.7596660
  H       -1.4090040     1.2787430    -0.9482840
  H       -1.2952160     1.3354770     0.7981610
units angstrom
no_reorient  #important for SAPT in psi4, default
symmetry c1  #important for SAPT in psi4, default
}

set PROPERTIES_ORIGIN ["COM"]
properties('MP2/aug-cc-pvtz', properties = ['dipole'])
--------------------------------------------------------------------------

    Molecular point group: c1
  Charge       = -2
  Multiplicity = 1
  Basis Set: AUG-CC-PVTZ
    Blend: AUG-CC-PVTZ
  Basis Set: (AUG-CC-PVTZ AUX)
    Blend: AUG-CC-PVTZ-JKFIT

    Orbital Energies [Eh]
    ---------------------

    Doubly Occupied:

       1A    -20.288531     2A    -20.228066     3A    -20.225639
       4A    -20.206594     5A    -20.205349     6A    -11.068279
       7A    -11.067603     8A    -11.048628     9A    -10.965747
      10A    -10.956480    11A     -1.112490    12A     -1.081065
      13A     -1.073727    14A     -0.996034    15A     -0.973053
      16A     -0.792038    17A     -0.664727    18A     -0.557247
      19A     -0.439348    20A     -0.418340    21A     -0.380051
      22A     -0.370439    23A     -0.364020    24A     -0.328027
      25A     -0.319078    26A     -0.300366    27A     -0.293566
      28A     -0.269552    29A     -0.240331    30A     -0.225298
      31A     -0.212434    32A     -0.203285    33A     -0.142114
      34A     -0.126969    35A     -0.121437    36A     -0.116286
      37A     -0.107524    38A     -0.103799

  @DF-RHF Final Energy:  -566.18673965940991

   => Energetics <=

    Nuclear Repulsion Energy =            481.7458568013804552
    One-Electron Energy =               -1758.6780695028564878
    Two-Electron Energy =                 710.7454730420662372
    Total Energy =                       -566.1867396594099091
  Basis Set: (AUG-CC-PVTZ AUX)
    Blend: AUG-CC-PVTZ-RI
    Molecular point group: c1

    Geometry (in Angstrom), charge = -2, multiplicity = 1:

       Center              X                  Y                   Z               Mass
    ------------   -----------------  -----------------  -----------------  -----------------
         O            1.221515512184     1.745874636878     0.012854338155    15.994914619570
         O           -2.661740487816    -1.219540363122     0.725058338155    15.994914619570
         O           -3.724725487816     0.393560636878    -0.468847661845    15.994914619570
         O            3.449999512184     0.132713636878     0.568761338155    15.994914619570
         O            2.365042512184    -1.432393363122    -0.693409661845    15.994914619570
         C           -0.148017487816    -0.229464363122    -0.085089661845    12.000000000000
         C           -1.382241487816     0.654257636878    -0.057960661845    12.000000000000
         C            1.165065812184     0.491825836878    -0.035789061845    12.000000000000
         C           -2.704468487816    -0.134695363122     0.067934338155    12.000000000000
         C            2.459701512184    -0.345206363122    -0.050340661845    12.000000000000
         H           -0.129911487816    -0.869697363122    -0.974335661845     1.007825032230
         H           -0.179835487816    -0.931288363122     0.757239338155     1.007825032230
         H           -1.429387487816     1.285896636878    -0.950710661845     1.007825032230
         H           -1.315599487816     1.342630636878     0.795734338155     1.007825032230

  Basis Set: AUG-CC-PVTZ
    Blend: AUG-CC-PVTZ
  Basis Set: (AUG-CC-PVTZ AUX)
    Blend: AUG-CC-PVTZ-JKFIT
	 Reference Energy          =    -566.1867396594099091 [Eh]
	 Singles Energy            =      -0.0000000000000000 [Eh]
	 Same-Spin Energy          =      -0.5590384825189207 [Eh]
	 Opposite-Spin Energy      =      -1.6372291325863788 [Eh]
	 Correlation Energy        =      -2.1962676151052998 [Eh]
	 Total Energy              =    -568.3830072745151938 [Eh]

	 ================> DF-SCS-MP2 Energies <==================
	-----------------------------------------------------------
	 SCS Same-Spin Scale       =       0.3333333333333333 [-]
	 SCS Opposite-Spin Scale   =       1.2000000000000000 [-]
	 SCS Same-Spin Energy      =      -0.1863461608396402 [Eh]
	 SCS Opposite-Spin Energy  =      -1.9646749591036545 [Eh]
	 SCS Correlation Energy    =      -2.1510211199432949 [Eh]
	 SCS Total Energy          =    -568.3377607793531752 [Eh]
	-----------------------------------------------------------

  Dipole Moment: [D]
     X:     1.2843      Y:     2.0654      Z:    -0.3742     Total:     2.4607

*** Psi4 exiting successfully. Buy a developer a beer!
