                               Psi4 1.3.2 release

  ==> Input File <==

--------------------------------------------------------------------------
#psi4
#
memory 32 gb

molecule  {
-2 1
  O       -1.2362950     1.7303800    -0.2239510
  O        2.6794370    -1.1261430    -0.8901160
  O        3.7000480     0.2611620     0.6076450
  O       -3.2904550    -0.3020480    -0.9006360
  O       -2.5973840    -0.9175860     1.2002500
  C        0.1162890    -0.2520540     0.0602520
  C        1.3561348     0.6286296     0.1446963
  C       -1.1988410     0.5019860    -0.0558080
  C        2.7080760    -0.1725680    -0.0543080
  C       -2.4977060    -0.3261360     0.0823270
  H        0.0210760    -0.9244250     0.9209780
  H        0.2133690    -0.9136840    -0.8118550
  H        1.4153100     1.1406480     1.1027450
  H        1.3130670     1.3830990    -0.6295990
units angstrom
no_reorient  #important for SAPT in psi4, default
symmetry c1  #important for SAPT in psi4, default
}

set PROPERTIES_ORIGIN ["COM"]
properties('MP2/aug-cc-pvtz', properties = ['dipole'])
--------------------------------------------------------------------------

    Molecular point group: c1
  Charge       = -2
  Multiplicity = 1
  Basis Set: AUG-CC-PVTZ
    Blend: AUG-CC-PVTZ
  Basis Set: (AUG-CC-PVTZ AUX)
    Blend: AUG-CC-PVTZ-JKFIT

    Orbital Energies [Eh]
    ---------------------

    Doubly Occupied:

       1A    -20.288136     2A    -20.231270     3A    -20.230206
       4A    -20.210470     5A    -20.209845     6A    -11.071772
       7A    -11.069211     8A    -11.054029     9A    -10.969999
      10A    -10.956736    11A     -1.118925    12A     -1.085986
      13A     -1.075098    14A     -0.999621    15A     -0.977248
      16A     -0.789157    17A     -0.660222    18A     -0.556030
      19A     -0.440184    20A     -0.420357    21A     -0.382052
      22A     -0.370221    23A     -0.364787    24A     -0.330770
      25A     -0.323481    26A     -0.305169    27A     -0.284859
      28A     -0.274221    29A     -0.250024    30A     -0.231511
      31A     -0.217777    32A     -0.207954    33A     -0.146792
      34A     -0.128402    35A     -0.126458    36A     -0.115406
      37A     -0.110904    38A     -0.097637

  @DF-RHF Final Energy:  -566.19126019821476

   => Energetics <=

    Nuclear Repulsion Energy =            479.2213269247200742
    One-Electron Energy =               -1753.4593201551997481
    Two-Electron Energy =                 708.0467330322650241
    Total Energy =                       -566.1912601982147635
  Basis Set: (AUG-CC-PVTZ AUX)
    Blend: AUG-CC-PVTZ-RI
    Molecular point group: c1

    Geometry (in Angstrom), charge = -2, multiplicity = 1:

       Center              X                  Y                   Z               Mass
    ------------   -----------------  -----------------  -----------------  -----------------
         O           -1.214648956481     1.733273383662    -0.219818255858    15.994914619570
         O            2.701083043519    -1.123249616338    -0.885983255858    15.994914619570
         O            3.721694043519     0.264055383662     0.611777744142    15.994914619570
         O           -3.268808956481    -0.299154616338    -0.896503255858    15.994914619570
         O           -2.575737956481    -0.914692616338     1.204382744142    15.994914619570
         C            0.137935043519    -0.249160616338     0.064384744142    12.000000000000
         C            1.377780843519     0.631522983662     0.148829044142    12.000000000000
         C           -1.177194956481     0.504879383662    -0.051675255858    12.000000000000
         C            2.729722043519    -0.169674616338    -0.050175255858    12.000000000000
         C           -2.476059956481    -0.323242616338     0.086459744142    12.000000000000
         H            0.042722043519    -0.921531616338     0.925110744142     1.007825032230
         H            0.235015043519    -0.910790616338    -0.807722255858     1.007825032230
         H            1.436956043519     1.143541383662     1.106877744142     1.007825032230
         H            1.334713043519     1.385992383662    -0.625466255858     1.007825032230

  Basis Set: AUG-CC-PVTZ
    Blend: AUG-CC-PVTZ
  Basis Set: (AUG-CC-PVTZ AUX)
    Blend: AUG-CC-PVTZ-JKFIT
	 Reference Energy          =    -566.1912601982147635 [Eh]
	 Singles Energy            =      -0.0000000000000000 [Eh]
	 Same-Spin Energy          =      -0.5582197550880584 [Eh]
	 Opposite-Spin Energy      =      -1.6357253496958679 [Eh]
	 Correlation Energy        =      -2.1939451047839262 [Eh]
	 Total Energy              =    -568.3852053029986564 [Eh]

	 ================> DF-SCS-MP2 Energies <==================
	-----------------------------------------------------------
	 SCS Same-Spin Scale       =       0.3333333333333333 [-]
	 SCS Opposite-Spin Scale   =       1.2000000000000000 [-]
	 SCS Same-Spin Energy      =      -0.1860732516960195 [Eh]
	 SCS Opposite-Spin Energy  =      -1.9628704196350415 [Eh]
	 SCS Correlation Energy    =      -2.1489436713310610 [Eh]
	 SCS Total Energy          =    -568.3402038695458032 [Eh]
	-----------------------------------------------------------

  Dipole Moment: [D]
     X:    -1.2560      Y:     2.0074      Z:     0.2452     Total:     2.3806

*** Psi4 exiting successfully. Buy a developer a beer!
