                               Psi4 1.3.2 release

  ==> Input File <==

--------------------------------------------------------------------------
#psi4
#
memory 32 gb

molecule  {
-2 1
  O       -1.2362950     1.7303800    -0.2239510
  O        2.6794370    -1.1261430    -0.8901160
  O        3.7000480     0.2611620     0.6076450
  O       -3.2904550    -0.3020480    -0.9006360
  O       -2.5973840    -0.9175860     1.2002500
  C        0.1027743    -0.2745926     0.0639266
  C        1.3712430     0.6068110     0.1462360
  C       -1.1988410     0.5019860    -0.0558080
  C        2.7080760    -0.1725680    -0.0543080
  C       -2.4977060    -0.3261360     0.0823270
  H        0.0210760    -0.9244250     0.9209780
  H        0.2133690    -0.9136840    -0.8118550
  H        1.4153100     1.1406480     1.1027450
  H        1.3130670     1.3830990    -0.6295990
units angstrom
no_reorient  #important for SAPT in psi4, default
symmetry c1  #important for SAPT in psi4, default
}

set PROPERTIES_ORIGIN ["COM"]
properties('MP2/aug-cc-pvtz', properties = ['dipole'])
--------------------------------------------------------------------------

    Molecular point group: c1
  Charge       = -2
  Multiplicity = 1
  Basis Set: AUG-CC-PVTZ
    Blend: AUG-CC-PVTZ
  Basis Set: (AUG-CC-PVTZ AUX)
    Blend: AUG-CC-PVTZ-JKFIT

    Orbital Energies [Eh]
    ---------------------

    Doubly Occupied:

       1A    -20.289431     2A    -20.231301     3A    -20.230190
       4A    -20.209815     5A    -20.209042     6A    -11.071496
       7A    -11.070219     8A    -11.052603     9A    -10.969307
      10A    -10.959376    11A     -1.119367    12A     -1.086165
      13A     -1.075276    14A     -0.999646    15A     -0.976986
      16A     -0.787115    17A     -0.661488    18A     -0.557895
      19A     -0.440759    20A     -0.420795    21A     -0.382073
      22A     -0.370942    23A     -0.364684    24A     -0.331042
      25A     -0.323070    26A     -0.306323    27A     -0.285668
      28A     -0.275319    29A     -0.246512    30A     -0.228828
      31A     -0.217948    32A     -0.208781    33A     -0.146826
      34A     -0.128409    35A     -0.126048    36A     -0.116486
      37A     -0.110557    38A     -0.098803

  @DF-RHF Final Energy:  -566.19149984219371

   => Energetics <=

    Nuclear Repulsion Energy =            479.2088879972484392
    One-Electron Energy =               -1753.4275953073392884
    Two-Electron Energy =                 708.0272074678971421
    Total Energy =                       -566.1914998421937071
  Basis Set: (AUG-CC-PVTZ AUX)
    Blend: AUG-CC-PVTZ-RI
    Molecular point group: c1

    Geometry (in Angstrom), charge = -2, multiplicity = 1:

       Center              X                  Y                   Z               Mass
    ------------   -----------------  -----------------  -----------------  -----------------
         O           -1.214781742731     1.736969666238    -0.220252763136    15.994914619570
         O            2.700950257269    -1.119553333762    -0.886417763136    15.994914619570
         O            3.721561257269     0.267751666238     0.611343236864    15.994914619570
         O           -3.268941742731    -0.295458333762    -0.896937763136    15.994914619570
         O           -2.575870742731    -0.910996333762     1.203948236864    15.994914619570
         C            0.124287557269    -0.268002933762     0.067624836864    12.000000000000
         C            1.392756257269     0.613400666238     0.149934236864    12.000000000000
         C           -1.177327742731     0.508575666238    -0.052109763136    12.000000000000
         C            2.729589257269    -0.165978333762    -0.050609763136    12.000000000000
         C           -2.476192742731    -0.319546333762     0.086025236864    12.000000000000
         H            0.042589257269    -0.917835333762     0.924676236864     1.007825032230
         H            0.234882257269    -0.907094333762    -0.808156763136     1.007825032230
         H            1.436823257269     1.147237666238     1.106443236864     1.007825032230
         H            1.334580257269     1.389688666238    -0.625900763136     1.007825032230

  Basis Set: AUG-CC-PVTZ
    Blend: AUG-CC-PVTZ
  Basis Set: (AUG-CC-PVTZ AUX)
    Blend: AUG-CC-PVTZ-JKFIT
	 Reference Energy          =    -566.1914998421937071 [Eh]
	 Singles Energy            =      -0.0000000000000000 [Eh]
	 Same-Spin Energy          =      -0.5580596882627751 [Eh]
	 Opposite-Spin Energy      =      -1.6355970955607435 [Eh]
	 Correlation Energy        =      -2.1936567838235188 [Eh]
	 Total Energy              =    -568.3851566260171921 [Eh]

	 ================> DF-SCS-MP2 Energies <==================
	-----------------------------------------------------------
	 SCS Same-Spin Scale       =       0.3333333333333333 [-]
	 SCS Opposite-Spin Scale   =       1.2000000000000000 [-]
	 SCS Same-Spin Energy      =      -0.1860198960875917 [Eh]
	 SCS Opposite-Spin Energy  =      -1.9627165146728922 [Eh]
	 SCS Correlation Energy    =      -2.1487364107604838 [Eh]
	 SCS Total Energy          =    -568.3402362529542415 [Eh]
	-----------------------------------------------------------

  Dipole Moment: [D]
     X:    -1.3112      Y:     1.9920      Z:     0.2616     Total:     2.3991

*** Psi4 exiting successfully. Buy a developer a beer!
