                               Psi4 1.3.2 release

  ==> Input File <==

--------------------------------------------------------------------------
#psi4
#
memory 32 gb

molecule  {
-2 1
  O       -1.2579266     1.7295164    -0.2240481
  O        2.6794370    -1.1261430    -0.8901160
  O        3.7000480     0.2611620     0.6076450
  O       -3.2904550    -0.3020480    -0.9006360
  O       -2.5973840    -0.9175860     1.2002500
  C        0.1162890    -0.2520540     0.0602520
  C        1.3712430     0.6068110     0.1462360
  C       -1.1988410     0.5019860    -0.0558080
  C        2.7080760    -0.1725680    -0.0543080
  C       -2.4977060    -0.3261360     0.0823270
  H        0.0210760    -0.9244250     0.9209780
  H        0.2133690    -0.9136840    -0.8118550
  H        1.4153100     1.1406480     1.1027450
  H        1.3130670     1.3830990    -0.6295990
units angstrom
no_reorient  #important for SAPT in psi4, default
symmetry c1  #important for SAPT in psi4, default
}

set PROPERTIES_ORIGIN ["COM"]
properties('MP2/aug-cc-pvtz', properties = ['dipole'])
--------------------------------------------------------------------------

    Molecular point group: c1
  Charge       = -2
  Multiplicity = 1
  Basis Set: AUG-CC-PVTZ
    Blend: AUG-CC-PVTZ
  Basis Set: (AUG-CC-PVTZ AUX)
    Blend: AUG-CC-PVTZ-JKFIT

    Orbital Energies [Eh]
    ---------------------

    Doubly Occupied:

       1A    -20.288678     2A    -20.230869     3A    -20.229747
       4A    -20.210474     5A    -20.209720     6A    -11.071280
       7A    -11.069952     8A    -11.053511     9A    -10.971196
      10A    -10.959034    11A     -1.119286    12A     -1.085513
      13A     -1.075982    14A     -0.999213    15A     -0.977655
      16A     -0.790405    17A     -0.661604    18A     -0.556882
      19A     -0.440838    20A     -0.421639    21A     -0.381709
      22A     -0.370638    23A     -0.364105    24A     -0.331056
      25A     -0.325533    26A     -0.306267    27A     -0.285179
      28A     -0.274060    29A     -0.249013    30A     -0.230116
      31A     -0.215620    32A     -0.207629    33A     -0.146329
      34A     -0.128409    35A     -0.126326    36A     -0.117451
      37A     -0.111140    38A     -0.098991

  @DF-RHF Final Energy:  -566.19181467828503

   => Energetics <=

    Nuclear Repulsion Energy =            479.3127870864255442
    One-Electron Energy =               -1753.6231015836983715
    Two-Electron Energy =                 708.1184998189878570
    Total Energy =                       -566.1918146782850272
  Basis Set: (AUG-CC-PVTZ AUX)
    Blend: AUG-CC-PVTZ-RI
    Molecular point group: c1

    Geometry (in Angstrom), charge = -2, multiplicity = 1:

       Center              X                  Y                   Z               Mass
    ------------   -----------------  -----------------  -----------------  -----------------
         O           -1.235136872606     1.734323847318    -0.220032873939    15.994914619570
         O            2.702226727394    -1.121335552682    -0.886100773939    15.994914619570
         O            3.722837727394     0.265969447318     0.611660226061    15.994914619570
         O           -3.267665272606    -0.297240552682    -0.896620773939    15.994914619570
         O           -2.574594272606    -0.912778552682     1.204265226061    15.994914619570
         C            0.139078727394    -0.247246552682     0.064267226061    12.000000000000
         C            1.394032727394     0.611618447318     0.150251226061    12.000000000000
         C           -1.176051272606     0.506793447318    -0.051792773939    12.000000000000
         C            2.730865727394    -0.167760552682    -0.050292773939    12.000000000000
         C           -2.474916272606    -0.321328552682     0.086342226061    12.000000000000
         H            0.043865727394    -0.919617552682     0.924993226061     1.007825032230
         H            0.236158727394    -0.908876552682    -0.807839773939     1.007825032230
         H            1.438099727394     1.145455447318     1.106760226061     1.007825032230
         H            1.335856727394     1.387906447318    -0.625583773939     1.007825032230

  Basis Set: AUG-CC-PVTZ
    Blend: AUG-CC-PVTZ
  Basis Set: (AUG-CC-PVTZ AUX)
    Blend: AUG-CC-PVTZ-JKFIT
	 Reference Energy          =    -566.1918146782850272 [Eh]
	 Singles Energy            =      -0.0000000000000000 [Eh]
	 Same-Spin Energy          =      -0.5582221098626998 [Eh]
	 Opposite-Spin Energy      =      -1.6357363175289330 [Eh]
	 Correlation Energy        =      -2.1939584273916326 [Eh]
	 Total Energy              =    -568.3857731056766625 [Eh]

	 ================> DF-SCS-MP2 Energies <==================
	-----------------------------------------------------------
	 SCS Same-Spin Scale       =       0.3333333333333333 [-]
	 SCS Opposite-Spin Scale   =       1.2000000000000000 [-]
	 SCS Same-Spin Energy      =      -0.1860740366208999 [Eh]
	 SCS Opposite-Spin Energy  =      -1.9628835810347196 [Eh]
	 SCS Correlation Energy    =      -2.1489576176556193 [Eh]
	 SCS Total Energy          =    -568.3407722959406101 [Eh]
	-----------------------------------------------------------

  Dipole Moment: [D]
     X:    -1.2422      Y:     1.9968      Z:     0.2526     Total:     2.3652

*** Psi4 exiting successfully. Buy a developer a beer!
