                               Psi4 1.3.2 release

  ==> Input File <==

--------------------------------------------------------------------------
#psi4
#
memory 32 gb

molecule  {
-2 1
  O       -1.2362950     1.7303800    -0.2239510
  O        2.6794370    -1.1261430    -0.8901160
  O        3.7000480     0.2611620     0.6076450
  O       -3.2334529    -0.2485164    -0.9413424
  O       -2.5973840    -0.9175860     1.2002500
  C        0.1162890    -0.2520540     0.0602520
  C        1.3712430     0.6068110     0.1462360
  C       -1.1988410     0.5019860    -0.0558080
  C        2.7080760    -0.1725680    -0.0543080
  C       -2.4977060    -0.3261360     0.0823270
  H        0.0210760    -0.9244250     0.9209780
  H        0.2133690    -0.9136840    -0.8118550
  H        1.4153100     1.1406480     1.1027450
  H        1.3130670     1.3830990    -0.6295990
units angstrom
no_reorient  #important for SAPT in psi4, default
symmetry c1  #important for SAPT in psi4, default
}

set PROPERTIES_ORIGIN ["COM"]
properties('MP2/aug-cc-pvtz', properties = ['dipole'])
--------------------------------------------------------------------------

    Molecular point group: c1
  Charge       = -2
  Multiplicity = 1
  Basis Set: AUG-CC-PVTZ
    Blend: AUG-CC-PVTZ
  Basis Set: (AUG-CC-PVTZ AUX)
    Blend: AUG-CC-PVTZ-JKFIT

    Orbital Energies [Eh]
    ---------------------

    Doubly Occupied:

       1A    -20.284420     2A    -20.235903     3A    -20.233282
       4A    -20.209083     5A    -20.208251     6A    -11.073989
       7A    -11.064864     8A    -11.051873     9A    -10.968031
      10A    -10.956804    11A     -1.117538    12A     -1.084783
      13A     -1.074526    14A     -1.006545    15A     -0.976222
      16A     -0.787480    17A     -0.658964    18A     -0.554621
      19A     -0.438456    20A     -0.420772    21A     -0.381957
      22A     -0.368558    23A     -0.362281    24A     -0.334215
      25A     -0.324163    26A     -0.305087    27A     -0.284569
      28A     -0.273951    29A     -0.247363    30A     -0.228416
      31A     -0.213636    32A     -0.204693    33A     -0.152836
      34A     -0.132130    35A     -0.125554    36A     -0.115503
      37A     -0.109795    38A     -0.095470

  @DF-RHF Final Energy:  -566.18998286369936

   => Energetics <=

    Nuclear Repulsion Energy =            479.9618611160055934
    One-Electron Energy =               -1754.9705180885682694
    Two-Electron Energy =                 708.8186741088633198
    Total Energy =                       -566.1899828636993561
  Basis Set: (AUG-CC-PVTZ AUX)
    Blend: AUG-CC-PVTZ-RI
    Molecular point group: c1

    Geometry (in Angstrom), charge = -2, multiplicity = 1:

       Center              X                  Y                   Z               Mass
    ------------   -----------------  -----------------  -----------------  -----------------
         O           -1.222239217198     1.729145703602    -0.215425247585    15.994914619570
         O            2.693492782802    -1.127377296398    -0.881590247585    15.994914619570
         O            3.714103782802     0.259927703602     0.616170752415    15.994914619570
         O           -3.219397117198    -0.249750696398    -0.932816647585    15.994914619570
         O           -2.583328217198    -0.918820296398     1.208775752415    15.994914619570
         C            0.130344782802    -0.253288296398     0.068777752415    12.000000000000
         C            1.385298782802     0.605576703602     0.154761752415    12.000000000000
         C           -1.184785217198     0.500751703602    -0.047282247585    12.000000000000
         C            2.722131782802    -0.173802296398    -0.045782247585    12.000000000000
         C           -2.483650217198    -0.327370296398     0.090852752415    12.000000000000
         H            0.035131782802    -0.925659296398     0.929503752415     1.007825032230
         H            0.227424782802    -0.914918296398    -0.803329247585     1.007825032230
         H            1.429365782802     1.139413703602     1.111270752415     1.007825032230
         H            1.327122782802     1.381864703602    -0.621073247585     1.007825032230

  Basis Set: AUG-CC-PVTZ
    Blend: AUG-CC-PVTZ
  Basis Set: (AUG-CC-PVTZ AUX)
    Blend: AUG-CC-PVTZ-JKFIT
	 Reference Energy          =    -566.1899828636993561 [Eh]
	 Singles Energy            =      -0.0000000000000000 [Eh]
	 Same-Spin Energy          =      -0.5584067496891378 [Eh]
	 Opposite-Spin Energy      =      -1.6360028219540861 [Eh]
	 Correlation Energy        =      -2.1944095716432237 [Eh]
	 Total Energy              =    -568.3843924353425336 [Eh]

	 ================> DF-SCS-MP2 Energies <==================
	-----------------------------------------------------------
	 SCS Same-Spin Scale       =       0.3333333333333333 [-]
	 SCS Opposite-Spin Scale   =       1.2000000000000000 [-]
	 SCS Same-Spin Energy      =      -0.1861355832297126 [Eh]
	 SCS Opposite-Spin Energy  =      -1.9632033863449032 [Eh]
	 SCS Correlation Energy    =      -2.1493389695746159 [Eh]
	 SCS Total Energy          =    -568.3393218332739707 [Eh]
	-----------------------------------------------------------

  Dipole Moment: [D]
     X:    -1.4785      Y:     1.8934      Z:     0.3049     Total:     2.4216

*** Psi4 exiting successfully. Buy a developer a beer!
