                               Psi4 1.3.2 release

  ==> Input File <==

--------------------------------------------------------------------------
#psi4
#
memory 32 gb

molecule  {
-2 1
  O       -1.2362950     1.7303800    -0.2239510
  O        2.6794370    -1.1261430    -0.8901160
  O        3.7000480     0.2611620     0.6076450
  O       -3.2904550    -0.3020480    -0.9006360
  O       -2.5973840    -0.9175860     1.2002500
  C        0.1294031    -0.2292857     0.0565420
  C        1.3712430     0.6068110     0.1462360
  C       -1.1988410     0.5019860    -0.0558080
  C        2.7080760    -0.1725680    -0.0543080
  C       -2.4977060    -0.3261360     0.0823270
  H        0.0210760    -0.9244250     0.9209780
  H        0.2133690    -0.9136840    -0.8118550
  H        1.4153100     1.1406480     1.1027450
  H        1.3130670     1.3830990    -0.6295990
units angstrom
no_reorient  #important for SAPT in psi4, default
symmetry c1  #important for SAPT in psi4, default
}

set PROPERTIES_ORIGIN ["COM"]
properties('MP2/aug-cc-pvtz', properties = ['dipole'])
--------------------------------------------------------------------------

    Molecular point group: c1
  Charge       = -2
  Multiplicity = 1
  Basis Set: AUG-CC-PVTZ
    Blend: AUG-CC-PVTZ
  Basis Set: (AUG-CC-PVTZ AUX)
    Blend: AUG-CC-PVTZ-JKFIT

    Orbital Energies [Eh]
    ---------------------

    Doubly Occupied:

       1A    -20.287779     2A    -20.231850     3A    -20.230924
       4A    -20.210394     5A    -20.209568     6A    -11.073138
       7A    -11.069887     8A    -11.053567     9A    -10.971434
      10A    -10.957416    11A     -1.119272    12A     -1.086502
      13A     -1.075895    14A     -1.000251    15A     -0.977540
      16A     -0.792371    17A     -0.661398    18A     -0.556363
      19A     -0.440247    20A     -0.422639    21A     -0.382093
      22A     -0.369833    23A     -0.363788    24A     -0.331952
      25A     -0.327416    26A     -0.305577    27A     -0.284564
      28A     -0.272995    29A     -0.251120    30A     -0.230537
      31A     -0.212196    32A     -0.204992    33A     -0.147274
      34A     -0.128920    35A     -0.126638    36A     -0.117775
      37A     -0.110998    38A     -0.100144

  @DF-RHF Final Energy:  -566.19054602296035

   => Energetics <=

    Nuclear Repulsion Energy =            479.5631126494718046
    One-Electron Energy =               -1754.1128229382743484
    Two-Electron Energy =                 708.3591642658421961
    Total Energy =                       -566.1905460229603477
  Basis Set: (AUG-CC-PVTZ AUX)
    Blend: AUG-CC-PVTZ-RI
    Molecular point group: c1

    Geometry (in Angstrom), charge = -2, multiplicity = 1:

       Center              X                  Y                   Z               Mass
    ------------   -----------------  -----------------  -----------------  -----------------
         O           -1.217000718894     1.733194245223    -0.219637404901    15.994914619570
         O            2.698731281106    -1.123328754777    -0.885802404901    15.994914619570
         O            3.719342281106     0.263976245223     0.611958595099    15.994914619570
         O           -3.271160718894    -0.299233754777    -0.896322404901    15.994914619570
         O           -2.578089718894    -0.914771754777     1.204563595099    15.994914619570
         C            0.148697381106    -0.226471454777     0.060855595099    12.000000000000
         C            1.390537281106     0.609625245223     0.150549595099    12.000000000000
         C           -1.179546718894     0.504800245223    -0.051494404901    12.000000000000
         C            2.727370281106    -0.169753754777    -0.049994404901    12.000000000000
         C           -2.478411718894    -0.323321754777     0.086640595099    12.000000000000
         H            0.040370281106    -0.921610754777     0.925291595099     1.007825032230
         H            0.232663281106    -0.910869754777    -0.807541404901     1.007825032230
         H            1.434604281106     1.143462245223     1.107058595099     1.007825032230
         H            1.332361281106     1.385913245223    -0.625285404901     1.007825032230

  Basis Set: AUG-CC-PVTZ
    Blend: AUG-CC-PVTZ
  Basis Set: (AUG-CC-PVTZ AUX)
    Blend: AUG-CC-PVTZ-JKFIT
	 Reference Energy          =    -566.1905460229603477 [Eh]
	 Singles Energy            =      -0.0000000000000000 [Eh]
	 Same-Spin Energy          =      -0.5585133166646876 [Eh]
	 Opposite-Spin Energy      =      -1.6361026600385835 [Eh]
	 Correlation Energy        =      -2.1946159767032709 [Eh]
	 Total Energy              =    -568.3851619996636373 [Eh]

	 ================> DF-SCS-MP2 Energies <==================
	-----------------------------------------------------------
	 SCS Same-Spin Scale       =       0.3333333333333333 [-]
	 SCS Opposite-Spin Scale   =       1.2000000000000000 [-]
	 SCS Same-Spin Energy      =      -0.1861711055548959 [Eh]
	 SCS Opposite-Spin Energy  =      -1.9633231920463001 [Eh]
	 SCS Correlation Energy    =      -2.1494942976011959 [Eh]
	 SCS Total Energy          =    -568.3400403205615703 [Eh]
	-----------------------------------------------------------

  Dipole Moment: [D]
     X:    -1.2708      Y:     2.0043      Z:     0.2491     Total:     2.3863

*** Psi4 exiting successfully. Buy a developer a beer!
