                               Psi4 1.3.2 release

  ==> Input File <==

--------------------------------------------------------------------------
#psi4
#
memory 32 gb

molecule  {
-2 1
  O       -1.2362950     1.7303800    -0.2239510
  O        2.6794370    -1.1261430    -0.8901160
  O        3.7000480     0.2611620     0.6076450
  O       -3.2904550    -0.3020480    -0.9006360
  O       -2.5973840    -0.9175860     1.2002500
  C        0.0293401    -0.3836028     0.0817306
  C        1.3712430     0.6068110     0.1462360
  C       -1.1988410     0.5019860    -0.0558080
  C        2.7080760    -0.1725680    -0.0543080
  C       -2.4977060    -0.3261360     0.0823270
  H        0.0210760    -0.9244250     0.9209780
  H        0.2133690    -0.9136840    -0.8118550
  H        1.4153100     1.1406480     1.1027450
  H        1.3130670     1.3830990    -0.6295990
units angstrom
no_reorient  #important for SAPT in psi4, default
symmetry c1  #important for SAPT in psi4, default
}

set PROPERTIES_ORIGIN ["COM"]
properties('MP2/aug-cc-pvtz', properties = ['dipole'])
--------------------------------------------------------------------------

    Molecular point group: c1
  Charge       = -2
  Multiplicity = 1
  Basis Set: AUG-CC-PVTZ
    Blend: AUG-CC-PVTZ
  Basis Set: (AUG-CC-PVTZ AUX)
    Blend: AUG-CC-PVTZ-JKFIT

    Orbital Energies [Eh]
    ---------------------

    Doubly Occupied:

       1A    -20.293455     2A    -20.229976     3A    -20.228483
       4A    -20.208841     5A    -20.208011     6A    -11.072411
       7A    -11.067483     8A    -11.050942     9A    -10.967296
      10A    -10.963978    11A     -1.119990    12A     -1.085488
      13A     -1.074097    14A     -0.998264    15A     -0.975937
      16A     -0.779228    17A     -0.661257    18A     -0.562578
      19A     -0.441939    20A     -0.417857    21A     -0.388084
      22A     -0.374326    23A     -0.368473    24A     -0.329478
      25A     -0.317137    26A     -0.308764    27A     -0.290686
      28A     -0.278094    29A     -0.240712    30A     -0.232098
      31A     -0.214250    32A     -0.206505    33A     -0.145626
      34A     -0.127427    35A     -0.124538    36A     -0.113732
      37A     -0.109738    38A     -0.093771

  @DF-RHF Final Energy:  -566.17006856556941

   => Energetics <=

    Nuclear Repulsion Energy =            478.3769658433700442
    One-Electron Energy =               -1751.7521672690959349
    Two-Electron Energy =                 707.2051328601564819
    Total Energy =                       -566.1700685655694087
  Basis Set: (AUG-CC-PVTZ AUX)
    Blend: AUG-CC-PVTZ-RI
    Molecular point group: c1

    Geometry (in Angstrom), charge = -2, multiplicity = 1:

       Center              X                  Y                   Z               Mass
    ------------   -----------------  -----------------  -----------------  -----------------
         O           -1.208662475647     1.746053479076    -0.221736369292    15.994914619570
         O            2.707069524353    -1.110469520924    -0.887901369292    15.994914619570
         O            3.727680524353     0.276835479076     0.609859630708    15.994914619570
         O           -3.262822475647    -0.286374520924    -0.898421369292    15.994914619570
         O           -2.569751475647    -0.901912520924     1.202464630708    15.994914619570
         C            0.056972624353    -0.367929320924     0.083945230708    12.000000000000
         C            1.398875524353     0.622484479076     0.148450630708    12.000000000000
         C           -1.171208475647     0.517659479076    -0.053593369292    12.000000000000
         C            2.735708524353    -0.156894520924    -0.052093369292    12.000000000000
         C           -2.470073475647    -0.310462520924     0.084541630708    12.000000000000
         H            0.048708524353    -0.908751520924     0.923192630708     1.007825032230
         H            0.241001524353    -0.898010520924    -0.809640369292     1.007825032230
         H            1.442942524353     1.156321479076     1.104959630708     1.007825032230
         H            1.340699524353     1.398772479076    -0.627384369292     1.007825032230

  Basis Set: AUG-CC-PVTZ
    Blend: AUG-CC-PVTZ
  Basis Set: (AUG-CC-PVTZ AUX)
    Blend: AUG-CC-PVTZ-JKFIT
	 Reference Energy          =    -566.1700685655694087 [Eh]
	 Singles Energy            =      -0.0000000000000000 [Eh]
	 Same-Spin Energy          =      -0.5579109251262919 [Eh]
	 Opposite-Spin Energy      =      -1.6362585230050026 [Eh]
	 Correlation Energy        =      -2.1941694481312943 [Eh]
	 Total Energy              =    -568.3642380137007422 [Eh]

	 ================> DF-SCS-MP2 Energies <==================
	-----------------------------------------------------------
	 SCS Same-Spin Scale       =       0.3333333333333333 [-]
	 SCS Opposite-Spin Scale   =       1.2000000000000000 [-]
	 SCS Same-Spin Energy      =      -0.1859703083754306 [Eh]
	 SCS Opposite-Spin Energy  =      -1.9635102276060030 [Eh]
	 SCS Correlation Energy    =      -2.1494805359814335 [Eh]
	 SCS Total Energy          =    -568.3195491015508196 [Eh]
	-----------------------------------------------------------

  Dipole Moment: [D]
     X:    -1.3841      Y:     1.9779      Z:     0.2876     Total:     2.4312

*** Psi4 exiting successfully. Buy a developer a beer!
