                               Psi4 1.3.2 release

  ==> Input File <==

--------------------------------------------------------------------------
#psi4
#
memory 32 gb

molecule  {
-2 1
  O       -1.2362950     1.7303800    -0.2239510
  O        2.6794370    -1.1261430    -0.8901160
  O        3.7000480     0.2611620     0.6076450
  O       -3.2904550    -0.3020480    -0.9006360
  O       -2.5973840    -0.9175860     1.2002500
  C        0.1162890    -0.2520540     0.0602520
  C        1.3085630     0.6924495     0.1399247
  C       -1.1988410     0.5019860    -0.0558080
  C        2.7080760    -0.1725680    -0.0543080
  C       -2.4977060    -0.3261360     0.0823270
  H        0.0210760    -0.9244250     0.9209780
  H        0.2133690    -0.9136840    -0.8118550
  H        1.4153100     1.1406480     1.1027450
  H        1.3130670     1.3830990    -0.6295990
units angstrom
no_reorient  #important for SAPT in psi4, default
symmetry c1  #important for SAPT in psi4, default
}

set PROPERTIES_ORIGIN ["COM"]
properties('MP2/aug-cc-pvtz', properties = ['dipole'])
--------------------------------------------------------------------------

    Molecular point group: c1
  Charge       = -2
  Multiplicity = 1
  Basis Set: AUG-CC-PVTZ
    Blend: AUG-CC-PVTZ
  Basis Set: (AUG-CC-PVTZ AUX)
    Blend: AUG-CC-PVTZ-JKFIT

    Orbital Energies [Eh]
    ---------------------

    Doubly Occupied:

       1A    -20.286854     2A    -20.230426     3A    -20.229231
       4A    -20.211733     5A    -20.211574     6A    -11.070279
       7A    -11.066934     8A    -11.056620     9A    -10.969654
      10A    -10.952733    11A     -1.117925    12A     -1.085057
      13A     -1.074022    14A     -0.998715    15A     -0.977386
      16A     -0.788303    17A     -0.657479    18A     -0.553763
      19A     -0.439025    20A     -0.416946    21A     -0.383033
      22A     -0.371920    23A     -0.365340    24A     -0.329427
      25A     -0.318658    26A     -0.302870    27A     -0.284847
      28A     -0.274461    29A     -0.253120    30A     -0.238925
      31A     -0.222027    32A     -0.208751    33A     -0.146036
      34A     -0.128108    35A     -0.126557    36A     -0.112218
      37A     -0.109848    38A     -0.089947

  @DF-RHF Final Energy:  -566.18238527783853

   => Energetics <=

    Nuclear Repulsion Energy =            478.7703283303247304
    One-Electron Energy =               -1752.5839249205967008
    Two-Electron Energy =                 707.6312113124334928
    Total Energy =                       -566.1823852778385344
  Basis Set: (AUG-CC-PVTZ AUX)
    Blend: AUG-CC-PVTZ-RI
    Molecular point group: c1

    Geometry (in Angstrom), charge = -2, multiplicity = 1:

       Center              X                  Y                   Z               Mass
    ------------   -----------------  -----------------  -----------------  -----------------
         O           -1.210684801497     1.727955275568    -0.219420638742    15.994914619570
         O            2.705047198503    -1.128567724432    -0.885585638742    15.994914619570
         O            3.725658198503     0.258737275568     0.612175361258    15.994914619570
         O           -3.264844801497    -0.304472724432    -0.896105638742    15.994914619570
         O           -2.571773801497    -0.920010724432     1.204780361258    15.994914619570
         C            0.141899198503    -0.254478724432     0.064782361258    12.000000000000
         C            1.334173198503     0.690024775568     0.144455061258    12.000000000000
         C           -1.173230801497     0.499561275568    -0.051277638742    12.000000000000
         C            2.733686198503    -0.174992724432    -0.049777638742    12.000000000000
         C           -2.472095801497    -0.328560724432     0.086857361258    12.000000000000
         H            0.046686198503    -0.926849724432     0.925508361258     1.007825032230
         H            0.238979198503    -0.916108724432    -0.807324638742     1.007825032230
         H            1.440920198503     1.138223275568     1.107275361258     1.007825032230
         H            1.338677198503     1.380674275568    -0.625068638742     1.007825032230

  Basis Set: AUG-CC-PVTZ
    Blend: AUG-CC-PVTZ
  Basis Set: (AUG-CC-PVTZ AUX)
    Blend: AUG-CC-PVTZ-JKFIT
	 Reference Energy          =    -566.1823852778385344 [Eh]
	 Singles Energy            =      -0.0000000000000000 [Eh]
	 Same-Spin Energy          =      -0.5584613557265383 [Eh]
	 Opposite-Spin Energy      =      -1.6361947445672511 [Eh]
	 Correlation Energy        =      -2.1946561002937894 [Eh]
	 Total Energy              =    -568.3770413781322759 [Eh]

	 ================> DF-SCS-MP2 Energies <==================
	-----------------------------------------------------------
	 SCS Same-Spin Scale       =       0.3333333333333333 [-]
	 SCS Opposite-Spin Scale   =       1.2000000000000000 [-]
	 SCS Same-Spin Energy      =      -0.1861537852421794 [Eh]
	 SCS Opposite-Spin Energy  =      -1.9634336934807013 [Eh]
	 SCS Correlation Energy    =      -2.1495874787228808 [Eh]
	 SCS Total Energy          =    -568.3319727565614130 [Eh]
	-----------------------------------------------------------

  Dipole Moment: [D]
     X:    -1.1460      Y:     2.0228      Z:     0.2127     Total:     2.3346

*** Psi4 exiting successfully. Buy a developer a beer!
