                               Psi4 1.3.2 release

  ==> Input File <==

--------------------------------------------------------------------------
#psi4
#
memory 32 gb

molecule  {
-2 1
  O       -1.1497312     1.7297581    -0.2254856
  O        2.6794370    -1.1261430    -0.8901160
  O        3.7000480     0.2611620     0.6076450
  O       -3.2904550    -0.3020480    -0.9006360
  O       -2.5973840    -0.9175860     1.2002500
  C        0.1162890    -0.2520540     0.0602520
  C        1.3712430     0.6068110     0.1462360
  C       -1.1988410     0.5019860    -0.0558080
  C        2.7080760    -0.1725680    -0.0543080
  C       -2.4977060    -0.3261360     0.0823270
  H        0.0210760    -0.9244250     0.9209780
  H        0.2133690    -0.9136840    -0.8118550
  H        1.4153100     1.1406480     1.1027450
  H        1.3130670     1.3830990    -0.6295990
units angstrom
no_reorient  #important for SAPT in psi4, default
symmetry c1  #important for SAPT in psi4, default
}

set PROPERTIES_ORIGIN ["COM"]
properties('MP2/aug-cc-pvtz', properties = ['dipole'])
--------------------------------------------------------------------------

    Molecular point group: c1
  Charge       = -2
  Multiplicity = 1
  Basis Set: AUG-CC-PVTZ
    Blend: AUG-CC-PVTZ
  Basis Set: (AUG-CC-PVTZ AUX)
    Blend: AUG-CC-PVTZ-JKFIT

    Orbital Energies [Eh]
    ---------------------

    Doubly Occupied:

       1A    -20.288182     2A    -20.234310     3A    -20.233649
       4A    -20.208503     5A    -20.207545     6A    -11.076448
       7A    -11.070183     8A    -11.051192     9A    -10.966618
      10A    -10.955767    11A     -1.119600    12A     -1.089487
      13A     -1.073887    14A     -1.002785    15A     -0.975589
      16A     -0.786110    17A     -0.660925    18A     -0.557847
      19A     -0.439164    20A     -0.421736    21A     -0.383246
      22A     -0.369056    23A     -0.364147    24A     -0.333124
      25A     -0.323409    26A     -0.304429    27A     -0.284464
      28A     -0.274731    29A     -0.248039    30A     -0.228280
      31A     -0.213384    32A     -0.205027    33A     -0.149842
      34A     -0.130412    35A     -0.125628    36A     -0.115630
      37A     -0.109231    38A     -0.101164

  @DF-RHF Final Energy:  -566.18994468042536

   => Energetics <=

    Nuclear Repulsion Energy =            479.7471445038951856
    One-Electron Energy =               -1754.5086338158382659
    Two-Electron Energy =                 708.5715446315176678
    Total Energy =                       -566.1899446804253557
  Basis Set: (AUG-CC-PVTZ AUX)
    Blend: AUG-CC-PVTZ-RI
    Molecular point group: c1

    Geometry (in Angstrom), charge = -2, multiplicity = 1:

       Center              X                  Y                   Z               Mass
    ------------   -----------------  -----------------  -----------------  -----------------
         O           -1.138958872636     1.734538701393    -0.221310708994    15.994914619570
         O            2.690209327364    -1.121362398607    -0.885941108994    15.994914619570
         O            3.710820327364     0.265942601393     0.611819891006    15.994914619570
         O           -3.279682672636    -0.297267398607    -0.896461108994    15.994914619570
         O           -2.586611672636    -0.912805398607     1.204424891006    15.994914619570
         C            0.127061327364    -0.247273398607     0.064426891006    12.000000000000
         C            1.382015327364     0.611591601393     0.150410891006    12.000000000000
         C           -1.188068672636     0.506766601393    -0.051633108994    12.000000000000
         C            2.718848327364    -0.167787398607    -0.050133108994    12.000000000000
         C           -2.486933672636    -0.321355398607     0.086501891006    12.000000000000
         H            0.031848327364    -0.919644398607     0.925152891006     1.007825032230
         H            0.224141327364    -0.908903398607    -0.807680108994     1.007825032230
         H            1.426082327364     1.145428601393     1.106919891006     1.007825032230
         H            1.323839327364     1.387879601393    -0.625424108994     1.007825032230

  Basis Set: AUG-CC-PVTZ
    Blend: AUG-CC-PVTZ
  Basis Set: (AUG-CC-PVTZ AUX)
    Blend: AUG-CC-PVTZ-JKFIT
	 Reference Energy          =    -566.1899446804253557 [Eh]
	 Singles Energy            =      -0.0000000000000000 [Eh]
	 Same-Spin Energy          =      -0.5584715866364535 [Eh]
	 Opposite-Spin Energy      =      -1.6361630951395276 [Eh]
	 Correlation Energy        =      -2.1946346817759812 [Eh]
	 Total Energy              =    -568.3845793622012934 [Eh]

	 ================> DF-SCS-MP2 Energies <==================
	-----------------------------------------------------------
	 SCS Same-Spin Scale       =       0.3333333333333333 [-]
	 SCS Opposite-Spin Scale   =       1.2000000000000000 [-]
	 SCS Same-Spin Energy      =      -0.1861571955454845 [Eh]
	 SCS Opposite-Spin Energy  =      -1.9633957141674330 [Eh]
	 SCS Correlation Energy    =      -2.1495529097129173 [Eh]
	 SCS Total Energy          =    -568.3394975901383077 [Eh]
	-----------------------------------------------------------

  Dipole Moment: [D]
     X:    -1.4920      Y:     2.0085      Z:     0.2670     Total:     2.5162

*** Psi4 exiting successfully. Buy a developer a beer!
