                               Psi4 1.3.2 release

  ==> Input File <==

--------------------------------------------------------------------------
#psi4
#
memory 32 gb

molecule  {
-2 1
  O       -1.2362950     1.7303800    -0.2239510
  O        2.6794370    -1.1261430    -0.8901160
  O        3.7000480     0.2611620     0.6076450
  O       -3.3041125    -0.3154595    -0.8897029
  O       -2.5973840    -0.9175860     1.2002500
  C        0.1162890    -0.2520540     0.0602520
  C        1.3712430     0.6068110     0.1462360
  C       -1.1988410     0.5019860    -0.0558080
  C        2.7080760    -0.1725680    -0.0543080
  C       -2.4977060    -0.3261360     0.0823270
  H        0.0210760    -0.9244250     0.9209780
  H        0.2133690    -0.9136840    -0.8118550
  H        1.4153100     1.1406480     1.1027450
  H        1.3130670     1.3830990    -0.6295990
units angstrom
no_reorient  #important for SAPT in psi4, default
symmetry c1  #important for SAPT in psi4, default
}

set PROPERTIES_ORIGIN ["COM"]
properties('MP2/aug-cc-pvtz', properties = ['dipole'])
--------------------------------------------------------------------------

    Molecular point group: c1
  Charge       = -2
  Multiplicity = 1
  Basis Set: AUG-CC-PVTZ
    Blend: AUG-CC-PVTZ
  Basis Set: (AUG-CC-PVTZ AUX)
    Blend: AUG-CC-PVTZ-JKFIT

    Orbital Energies [Eh]
    ---------------------

    Doubly Occupied:

       1A    -20.289593     2A    -20.230464     3A    -20.229852
       4A    -20.210332     5A    -20.209547     6A    -11.071968
       7A    -11.071215     8A    -11.053349     9A    -10.970826
      10A    -10.958784    11A     -1.119806    12A     -1.086680
      13A     -1.075827    14A     -0.998236    15A     -0.977500
      16A     -0.790079    17A     -0.662064    18A     -0.557706
      19A     -0.441003    20A     -0.421880    21A     -0.382007
      22A     -0.370734    23A     -0.364576    24A     -0.330756
      25A     -0.325354    26A     -0.306105    27A     -0.285129
      28A     -0.274260    29A     -0.249174    30A     -0.230087
      31A     -0.215634    32A     -0.207772    33A     -0.145465
      34A     -0.128277    35A     -0.126049    36A     -0.117486
      37A     -0.111002    38A     -0.100429

  @DF-RHF Final Energy:  -566.19179097980168

   => Energetics <=

    Nuclear Repulsion Energy =            479.2552169794847714
    One-Electron Energy =               -1753.4999973766625772
    Two-Electron Energy =                 708.0529894173760113
    Total Energy =                       -566.1917909798016808
  Basis Set: (AUG-CC-PVTZ AUX)
    Blend: AUG-CC-PVTZ-RI
    Molecular point group: c1

    Geometry (in Angstrom), charge = -2, multiplicity = 1:

       Center              X                  Y                   Z               Mass
    ------------   -----------------  -----------------  -----------------  -----------------
         O           -1.214390965986     1.736581158454    -0.221160912215    15.994914619570
         O            2.701341034014    -1.119941841546    -0.887325912215    15.994914619570
         O            3.721952034014     0.267363158454     0.610435087785    15.994914619570
         O           -3.282208465986    -0.309258341546    -0.886912812215    15.994914619570
         O           -2.575479965986    -0.911384841546     1.203040087785    15.994914619570
         C            0.138193034014    -0.245852841546     0.063042087785    12.000000000000
         C            1.393147034014     0.613012158454     0.149026087785    12.000000000000
         C           -1.176936965986     0.508187158454    -0.053017912215    12.000000000000
         C            2.729980034014    -0.166366841546    -0.051517912215    12.000000000000
         C           -2.475801965986    -0.319934841546     0.085117087785    12.000000000000
         H            0.042980034014    -0.918223841546     0.923768087785     1.007825032230
         H            0.235273034014    -0.907482841546    -0.809064912215     1.007825032230
         H            1.437214034014     1.146849158454     1.105535087785     1.007825032230
         H            1.334971034014     1.389300158454    -0.626808912215     1.007825032230

  Basis Set: AUG-CC-PVTZ
    Blend: AUG-CC-PVTZ
  Basis Set: (AUG-CC-PVTZ AUX)
    Blend: AUG-CC-PVTZ-JKFIT
	 Reference Energy          =    -566.1917909798016808 [Eh]
	 Singles Energy            =      -0.0000000000000000 [Eh]
	 Same-Spin Energy          =      -0.5582411008185366 [Eh]
	 Opposite-Spin Energy      =      -1.6357780999884319 [Eh]
	 Correlation Energy        =      -2.1940192008069683 [Eh]
	 Total Energy              =    -568.3858101806087006 [Eh]

	 ================> DF-SCS-MP2 Energies <==================
	-----------------------------------------------------------
	 SCS Same-Spin Scale       =       0.3333333333333333 [-]
	 SCS Opposite-Spin Scale   =       1.2000000000000000 [-]
	 SCS Same-Spin Energy      =      -0.1860803669395122 [Eh]
	 SCS Opposite-Spin Energy  =      -1.9629337199861183 [Eh]
	 SCS Correlation Energy    =      -2.1490140869256305 [Eh]
	 SCS Total Energy          =    -568.3408050667272846 [Eh]
	-----------------------------------------------------------

  Dipole Moment: [D]
     X:    -1.2472      Y:     2.0231      Z:     0.2418     Total:     2.3889

*** Psi4 exiting successfully. Buy a developer a beer!
