                               Psi4 1.3.2 release

  ==> Input File <==

--------------------------------------------------------------------------
#psi4
#
memory 32 gb

molecule  {
-2 1
  O       -1.2362950     1.7303800    -0.2239510
  O        2.6794370    -1.1261430    -0.8901160
  O        3.7000480     0.2611620     0.6076450
  O       -3.2904550    -0.3020480    -0.9006360
  O       -2.5973840    -0.9175860     1.2002500
  C        0.0888631    -0.2968947     0.0675647
  C        1.3712430     0.6068110     0.1462360
  C       -1.1988410     0.5019860    -0.0558080
  C        2.7080760    -0.1725680    -0.0543080
  C       -2.4977060    -0.3261360     0.0823270
  H        0.0210760    -0.9244250     0.9209780
  H        0.2133690    -0.9136840    -0.8118550
  H        1.4153100     1.1406480     1.1027450
  H        1.3130670     1.3830990    -0.6295990
units angstrom
no_reorient  #important for SAPT in psi4, default
symmetry c1  #important for SAPT in psi4, default
}

set PROPERTIES_ORIGIN ["COM"]
properties('MP2/aug-cc-pvtz', properties = ['dipole'])
--------------------------------------------------------------------------

    Molecular point group: c1
  Charge       = -2
  Multiplicity = 1
  Basis Set: AUG-CC-PVTZ
    Blend: AUG-CC-PVTZ
  Basis Set: (AUG-CC-PVTZ AUX)
    Blend: AUG-CC-PVTZ-JKFIT

    Orbital Energies [Eh]
    ---------------------

    Doubly Occupied:

       1A    -20.290250     2A    -20.231029     3A    -20.229833
       4A    -20.209568     5A    -20.208805     6A    -11.070875
       7A    -11.070311     8A    -11.052187     9A    -10.968516
      10A    -10.960338    11A     -1.119450    12A     -1.086011
      13A     -1.074999    14A     -0.999353    15A     -0.976738
      16A     -0.784974    17A     -0.661483    18A     -0.558742
      19A     -0.441001    20A     -0.420037    21A     -0.382393
      22A     -0.371728    23A     -0.365342    24A     -0.330680
      25A     -0.321288    26A     -0.306767    27A     -0.286549
      28A     -0.276218    29A     -0.244396    30A     -0.228143
      31A     -0.219468    32A     -0.210041    33A     -0.146592
      34A     -0.128182    35A     -0.125748    36A     -0.115879
      37A     -0.110362    38A     -0.097998

  @DF-RHF Final Energy:  -566.18980393035997

   => Energetics <=

    Nuclear Repulsion Energy =            479.0363944006535348
    One-Electron Energy =               -1753.0878486304807211
    Two-Electron Energy =                 707.8616502994672146
    Total Energy =                       -566.1898039303599717
  Basis Set: (AUG-CC-PVTZ AUX)
    Blend: AUG-CC-PVTZ-RI
    Molecular point group: c1

    Geometry (in Angstrom), charge = -2, multiplicity = 1:

       Center              X                  Y                   Z               Mass
    ------------   -----------------  -----------------  -----------------  -----------------
         O           -1.213622523345     1.738828098772    -0.220555925771    15.994914619570
         O            2.702109476655    -1.117694901228    -0.886720925771    15.994914619570
         O            3.722720476655     0.269610098772     0.611040074229    15.994914619570
         O           -3.267782523345    -0.293599901228    -0.897240925771    15.994914619570
         O           -2.574711523345    -0.909137901228     1.203645074229    15.994914619570
         C            0.111535576655    -0.288446601228     0.070959774229    12.000000000000
         C            1.393915476655     0.615259098772     0.149631074229    12.000000000000
         C           -1.176168523345     0.510434098772    -0.052412925771    12.000000000000
         C            2.730748476655    -0.164119901228    -0.050912925771    12.000000000000
         C           -2.475033523345    -0.317687901228     0.085722074229    12.000000000000
         H            0.043748476655    -0.915976901228     0.924373074229     1.007825032230
         H            0.236041476655    -0.905235901228    -0.808459925771     1.007825032230
         H            1.437982476655     1.149096098772     1.106140074229     1.007825032230
         H            1.335739476655     1.391547098772    -0.626203925771     1.007825032230

  Basis Set: AUG-CC-PVTZ
    Blend: AUG-CC-PVTZ
  Basis Set: (AUG-CC-PVTZ AUX)
    Blend: AUG-CC-PVTZ-JKFIT
	 Reference Energy          =    -566.1898039303599717 [Eh]
	 Singles Energy            =      -0.0000000000000000 [Eh]
	 Same-Spin Energy          =      -0.5579179783023428 [Eh]
	 Opposite-Spin Energy      =      -1.6355099240654409 [Eh]
	 Correlation Energy        =      -2.1934279023677838 [Eh]
	 Total Energy              =    -568.3832318327278017 [Eh]

	 ================> DF-SCS-MP2 Energies <==================
	-----------------------------------------------------------
	 SCS Same-Spin Scale       =       0.3333333333333333 [-]
	 SCS Opposite-Spin Scale   =       1.2000000000000000 [-]
	 SCS Same-Spin Energy      =      -0.1859726594341143 [Eh]
	 SCS Opposite-Spin Energy  =      -1.9626119088785290 [Eh]
	 SCS Correlation Energy    =      -2.1485845683126432 [Eh]
	 SCS Total Energy          =    -568.3383884986726571 [Eh]
	-----------------------------------------------------------

  Dipole Moment: [D]
     X:    -1.3289      Y:     1.9875      Z:     0.2673     Total:     2.4057

*** Psi4 exiting successfully. Buy a developer a beer!
