                               Psi4 1.3.2 release

  ==> Input File <==

--------------------------------------------------------------------------
#psi4
#
memory 32 gb

molecule  {
-2 1
  O       -1.2362950     1.7303800    -0.2239510
  O        2.6794370    -1.1261430    -0.8901160
  O        3.7000480     0.2611620     0.6076450
  O       -3.2763781    -0.2889538    -0.9114208
  O       -2.5973840    -0.9175860     1.2002500
  C        0.1162890    -0.2520540     0.0602520
  C        1.3712430     0.6068110     0.1462360
  C       -1.1988410     0.5019860    -0.0558080
  C        2.7080760    -0.1725680    -0.0543080
  C       -2.4977060    -0.3261360     0.0823270
  H        0.0210760    -0.9244250     0.9209780
  H        0.2133690    -0.9136840    -0.8118550
  H        1.4153100     1.1406480     1.1027450
  H        1.3130670     1.3830990    -0.6295990
units angstrom
no_reorient  #important for SAPT in psi4, default
symmetry c1  #important for SAPT in psi4, default
}

set PROPERTIES_ORIGIN ["COM"]
properties('MP2/aug-cc-pvtz', properties = ['dipole'])
--------------------------------------------------------------------------

    Molecular point group: c1
  Charge       = -2
  Multiplicity = 1
  Basis Set: AUG-CC-PVTZ
    Blend: AUG-CC-PVTZ
  Basis Set: (AUG-CC-PVTZ AUX)
    Blend: AUG-CC-PVTZ-JKFIT

    Orbital Energies [Eh]
    ---------------------

    Doubly Occupied:

       1A    -20.287596     2A    -20.232673     3A    -20.231250
       4A    -20.209844     5A    -20.209040     6A    -11.072711
       7A    -11.068756     8A    -11.052772     9A    -10.969731
      10A    -10.958010    11A     -1.118828    12A     -1.085968
      13A     -1.075318    14A     -1.001632    15A     -0.977000
      16A     -0.789063    17A     -0.660850    18A     -0.556490
      19A     -0.440004    20A     -0.421436    21A     -0.381988
      22A     -0.369859    23A     -0.363711    24A     -0.332149
      25A     -0.324908    26A     -0.305729    27A     -0.284877
      28A     -0.274183    29A     -0.248483    30A     -0.229416
      31A     -0.214859    32A     -0.206580    33A     -0.148590
      34A     -0.129368    35A     -0.126309    36A     -0.116732
      37A     -0.110530    38A     -0.098567

  @DF-RHF Final Energy:  -566.19157402302221

   => Energetics <=

    Nuclear Repulsion Energy =            479.5200858578558041
    One-Electron Energy =               -1754.0516994260735828
    Two-Electron Energy =                 708.3400395451956228
    Total Energy =                       -566.1915740230222127
  Basis Set: (AUG-CC-PVTZ AUX)
    Blend: AUG-CC-PVTZ-RI
    Molecular point group: c1

    Geometry (in Angstrom), charge = -2, multiplicity = 1:

       Center              X                  Y                   Z               Mass
    ------------   -----------------  -----------------  -----------------  -----------------
         O           -1.217471460900     1.733637136805    -0.218748677571    15.994914619570
         O            2.698260539100    -1.122885863195    -0.884913677571    15.994914619570
         O            3.718871539100     0.264419136805     0.612847322429    15.994914619570
         O           -3.257554560900    -0.285696663195    -0.906218477571    15.994914619570
         O           -2.578560460900    -0.914328863195     1.205452322429    15.994914619570
         C            0.135112539100    -0.248796863195     0.065454322429    12.000000000000
         C            1.390066539100     0.610068136805     0.151438322429    12.000000000000
         C           -1.180017460900     0.505243136805    -0.050605677571    12.000000000000
         C            2.726899539100    -0.169310863195    -0.049105677571    12.000000000000
         C           -2.478882460900    -0.322878863195     0.087529322429    12.000000000000
         H            0.039899539100    -0.921167863195     0.926180322429     1.007825032230
         H            0.232192539100    -0.910426863195    -0.806652677571     1.007825032230
         H            1.434133539100     1.143905136805     1.107947322429     1.007825032230
         H            1.331890539100     1.386356136805    -0.624396677571     1.007825032230

  Basis Set: AUG-CC-PVTZ
    Blend: AUG-CC-PVTZ
  Basis Set: (AUG-CC-PVTZ AUX)
    Blend: AUG-CC-PVTZ-JKFIT
	 Reference Energy          =    -566.1915740230222127 [Eh]
	 Singles Energy            =      -0.0000000000000000 [Eh]
	 Same-Spin Energy          =      -0.5582827266178136 [Eh]
	 Opposite-Spin Energy      =      -1.6358249982484587 [Eh]
	 Correlation Energy        =      -2.1941077248662726 [Eh]
	 Total Energy              =    -568.3856817478884977 [Eh]

	 ================> DF-SCS-MP2 Energies <==================
	-----------------------------------------------------------
	 SCS Same-Spin Scale       =       0.3333333333333333 [-]
	 SCS Opposite-Spin Scale   =       1.2000000000000000 [-]
	 SCS Same-Spin Energy      =      -0.1860942422059379 [Eh]
	 SCS Opposite-Spin Energy  =      -1.9629899978981504 [Eh]
	 SCS Correlation Energy    =      -2.1490842401040884 [Eh]
	 SCS Total Energy          =    -568.3406582631263291 [Eh]
	-----------------------------------------------------------

  Dipole Moment: [D]
     X:    -1.3376      Y:     1.9721      Z:     0.2689     Total:     2.3980

*** Psi4 exiting successfully. Buy a developer a beer!
