                               Psi4 1.3.2 release

  ==> Input File <==

--------------------------------------------------------------------------
#psi4
#
memory 32 gb

molecule  {
-2 1
  O       -1.2362950     1.7303800    -0.2239510
  O        2.6794370    -1.1261430    -0.8901160
  O        3.7000480     0.2611620     0.6076450
  O       -3.3435949    -0.3556970    -0.8551407
  O       -2.5973840    -0.9175860     1.2002500
  C        0.1162890    -0.2520540     0.0602520
  C        1.3712430     0.6068110     0.1462360
  C       -1.1988410     0.5019860    -0.0558080
  C        2.7080760    -0.1725680    -0.0543080
  C       -2.4977060    -0.3261360     0.0823270
  H        0.0210760    -0.9244250     0.9209780
  H        0.2133690    -0.9136840    -0.8118550
  H        1.4153100     1.1406480     1.1027450
  H        1.3130670     1.3830990    -0.6295990
units angstrom
no_reorient  #important for SAPT in psi4, default
symmetry c1  #important for SAPT in psi4, default
}

set PROPERTIES_ORIGIN ["COM"]
properties('MP2/aug-cc-pvtz', properties = ['dipole'])
--------------------------------------------------------------------------

    Molecular point group: c1
  Charge       = -2
  Multiplicity = 1
  Basis Set: AUG-CC-PVTZ
    Blend: AUG-CC-PVTZ
  Basis Set: (AUG-CC-PVTZ AUX)
    Blend: AUG-CC-PVTZ-JKFIT

    Orbital Energies [Eh]
    ---------------------

    Doubly Occupied:

       1A    -20.292416     2A    -20.227691     3A    -20.227062
       4A    -20.211034     5A    -20.210277     6A    -11.075134
       7A    -11.070576     8A    -11.054179     9A    -10.972409
      10A    -10.959897    11A     -1.121398    12A     -1.087692
      13A     -1.076557    14A     -0.992954    15A     -0.978219
      16A     -0.791544    17A     -0.663820    18A     -0.559483
      19A     -0.442453    20A     -0.422545    21A     -0.382033
      22A     -0.372051    23A     -0.365730    24A     -0.328847
      25A     -0.325786    26A     -0.306562    27A     -0.285541
      28A     -0.274286    29A     -0.250118    30A     -0.231095
      31A     -0.216742    32A     -0.209452    33A     -0.140368
      34A     -0.128684    35A     -0.123793    36A     -0.118313
      37A     -0.111680    38A     -0.102933

  @DF-RHF Final Energy:  -566.19085291514637

   => Energetics <=

    Nuclear Repulsion Energy =            478.9031322140460816
    One-Electron Energy =               -1752.7652677194307671
    Two-Electron Energy =                 707.6712825902383202
    Total Energy =                       -566.1908529151463654
  Basis Set: (AUG-CC-PVTZ AUX)
    Blend: AUG-CC-PVTZ-RI
    Molecular point group: c1

    Geometry (in Angstrom), charge = -2, multiplicity = 1:

       Center              X                  Y                   Z               Mass
    ------------   -----------------  -----------------  -----------------  -----------------
         O           -1.210005605842     1.741050388511    -0.224999779517    15.994914619570
         O            2.705726394158    -1.115472611489    -0.891164779517    15.994914619570
         O            3.726337394158     0.271832388511     0.606596220483    15.994914619570
         O           -3.317305505842    -0.345026611489    -0.856189479517    15.994914619570
         O           -2.571094605842    -0.906915611489     1.199201220483    15.994914619570
         C            0.142578394158    -0.241383611489     0.059203220483    12.000000000000
         C            1.397532394158     0.617481388511     0.145187220483    12.000000000000
         C           -1.172551605842     0.512656388511    -0.056856779517    12.000000000000
         C            2.734365394158    -0.161897611489    -0.055356779517    12.000000000000
         C           -2.471416605842    -0.315465611489     0.081278220483    12.000000000000
         H            0.047365394158    -0.913754611489     0.919929220483     1.007825032230
         H            0.239658394158    -0.903013611489    -0.812903779517     1.007825032230
         H            1.441599394158     1.151318388511     1.101696220483     1.007825032230
         H            1.339356394158     1.393769388511    -0.630647779517     1.007825032230

  Basis Set: AUG-CC-PVTZ
    Blend: AUG-CC-PVTZ
  Basis Set: (AUG-CC-PVTZ AUX)
    Blend: AUG-CC-PVTZ-JKFIT
	 Reference Energy          =    -566.1908529151463654 [Eh]
	 Singles Energy            =      -0.0000000000000000 [Eh]
	 Same-Spin Energy          =      -0.5582379656546490 [Eh]
	 Opposite-Spin Energy      =      -1.6358128610543035 [Eh]
	 Correlation Energy        =      -2.1940508267089527 [Eh]
	 Total Energy              =    -568.3849037418552825 [Eh]

	 ================> DF-SCS-MP2 Energies <==================
	-----------------------------------------------------------
	 SCS Same-Spin Scale       =       0.3333333333333333 [-]
	 SCS Opposite-Spin Scale   =       1.2000000000000000 [-]
	 SCS Same-Spin Energy      =      -0.1860793218848830 [Eh]
	 SCS Opposite-Spin Energy  =      -1.9629754332651641 [Eh]
	 SCS Correlation Energy    =      -2.1490547551500470 [Eh]
	 SCS Total Energy          =    -568.3399076702963839 [Eh]
	-----------------------------------------------------------

  Dipole Moment: [D]
     X:    -1.1180      Y:     2.0986      Z:     0.1976     Total:     2.3861

*** Psi4 exiting successfully. Buy a developer a beer!
