                               Psi4 1.3.2 release

  ==> Input File <==

--------------------------------------------------------------------------
#psi4
#
memory 32 gb

molecule  {
-2 1
  O       -1.2362950     1.7303800    -0.2239510
  O        2.6794370    -1.1261430    -0.8901160
  O        3.7000480     0.2611620     0.6076450
  O       -3.2624198    -0.2752512    -0.9216008
  O       -2.5973840    -0.9175860     1.2002500
  C        0.1162890    -0.2520540     0.0602520
  C        1.3712430     0.6068110     0.1462360
  C       -1.1988410     0.5019860    -0.0558080
  C        2.7080760    -0.1725680    -0.0543080
  C       -2.4977060    -0.3261360     0.0823270
  H        0.0210760    -0.9244250     0.9209780
  H        0.2133690    -0.9136840    -0.8118550
  H        1.4153100     1.1406480     1.1027450
  H        1.3130670     1.3830990    -0.6295990
units angstrom
no_reorient  #important for SAPT in psi4, default
symmetry c1  #important for SAPT in psi4, default
}

set PROPERTIES_ORIGIN ["COM"]
properties('MP2/aug-cc-pvtz', properties = ['dipole'])
--------------------------------------------------------------------------

    Molecular point group: c1
  Charge       = -2
  Multiplicity = 1
  Basis Set: AUG-CC-PVTZ
    Blend: AUG-CC-PVTZ
  Basis Set: (AUG-CC-PVTZ AUX)
    Blend: AUG-CC-PVTZ-JKFIT

    Orbital Energies [Eh]
    ---------------------

    Doubly Occupied:

       1A    -20.286563     2A    -20.233761     3A    -20.231932
       4A    -20.209594     5A    -20.208782     6A    -11.073132
       7A    -11.067468     8A    -11.052477     9A    -10.969172
      10A    -10.957614    11A     -1.118372    12A     -1.085590
      13A     -1.075059    14A     -1.003292    15A     -0.976745
      16A     -0.788543    17A     -0.660230    18A     -0.555873
      19A     -0.439494    20A     -0.421214    21A     -0.381978
      22A     -0.369423    23A     -0.363252    24A     -0.332845
      25A     -0.324666    26A     -0.305523    27A     -0.284766
      28A     -0.274122    29A     -0.248120    30A     -0.229081
      31A     -0.214459    32A     -0.205962    33A     -0.150064
      34A     -0.130240    35A     -0.126112    36A     -0.116332
      37A     -0.110289    38A     -0.097576

  @DF-RHF Final Energy:  -566.19121078783667

   => Energetics <=

    Nuclear Repulsion Energy =            479.6610207629036040
    One-Electron Energy =               -1754.3450272517238773
    Two-Electron Energy =                 708.4927957009834927
    Total Energy =                       -566.1912107878366669
  Basis Set: (AUG-CC-PVTZ AUX)
    Blend: AUG-CC-PVTZ-RI
    Molecular point group: c1

    Geometry (in Angstrom), charge = -2, multiplicity = 1:

       Center              X                  Y                   Z               Mass
    ------------   -----------------  -----------------  -----------------  -----------------
         O           -1.219021826949     1.732115171678    -0.217617972086    15.994914619570
         O            2.696710173051    -1.124407828322    -0.883782972086    15.994914619570
         O            3.717321173051     0.262897171678     0.613978027914    15.994914619570
         O           -3.245146626949    -0.273516028322    -0.915267772086    15.994914619570
         O           -2.580110826949    -0.915850828322     1.206583027914    15.994914619570
         C            0.133562173051    -0.250318828322     0.066585027914    12.000000000000
         C            1.388516173051     0.608546171678     0.152569027914    12.000000000000
         C           -1.181567826949     0.503721171678    -0.049474972086    12.000000000000
         C            2.725349173051    -0.170832828322    -0.047974972086    12.000000000000
         C           -2.480432826949    -0.324400828322     0.088660027914    12.000000000000
         H            0.038349173051    -0.922689828322     0.927311027914     1.007825032230
         H            0.230642173051    -0.911948828322    -0.805521972086     1.007825032230
         H            1.432583173051     1.142383171678     1.109078027914     1.007825032230
         H            1.330340173051     1.384834171678    -0.623265972086     1.007825032230

  Basis Set: AUG-CC-PVTZ
    Blend: AUG-CC-PVTZ
  Basis Set: (AUG-CC-PVTZ AUX)
    Blend: AUG-CC-PVTZ-JKFIT
	 Reference Energy          =    -566.1912107878366669 [Eh]
	 Singles Energy            =      -0.0000000000000000 [Eh]
	 Same-Spin Energy          =      -0.5583160644395706 [Eh]
	 Opposite-Spin Energy      =      -1.6358706163500845 [Eh]
	 Correlation Energy        =      -2.1941866807896551 [Eh]
	 Total Energy              =    -568.3853974686263655 [Eh]

	 ================> DF-SCS-MP2 Energies <==================
	-----------------------------------------------------------
	 SCS Same-Spin Scale       =       0.3333333333333333 [-]
	 SCS Opposite-Spin Scale   =       1.2000000000000000 [-]
	 SCS Same-Spin Energy      =      -0.1861053548131902 [Eh]
	 SCS Opposite-Spin Energy  =      -1.9630447396201012 [Eh]
	 SCS Correlation Energy    =      -2.1491500944332915 [Eh]
	 SCS Total Energy          =    -568.3403608822699198 [Eh]
	-----------------------------------------------------------

  Dipole Moment: [D]
     X:    -1.3836      Y:     1.9458      Z:     0.2813     Total:     2.4041

*** Psi4 exiting successfully. Buy a developer a beer!
