                               Psi4 1.4a3.dev225

  ==> Input File <==

--------------------------------------------------------------------------
#psi4
#
memory 32 gb

molecule  {
-2 1
  O        1.2418990     1.7387210     0.0152810
  O       -2.6413570    -1.2266940     0.7274850
  O       -3.7043420     0.3864070    -0.4664210
  O        3.4703830     0.1255600     0.5711880
  O        2.3854260    -1.4395470    -0.6909830
  C       -0.1276340    -0.2366180    -0.0826630
  C       -1.3618580     0.6471040    -0.0555340
  C        1.1885947     0.5545490    -0.0306520
  C       -2.6840850    -0.1418490     0.0703610
  C        2.4800850    -0.3523600    -0.0479140
  H       -0.1095280    -0.8768510    -0.9719090
  H       -0.1594520    -0.9384420     0.7596660
  H       -1.4090040     1.2787430    -0.9482840
  H       -1.2952160     1.3354770     0.7981610
units angstrom
no_reorient  #important for SAPT in psi4, default
symmetry c1  #important for SAPT in psi4, default
}

set PROPERTIES_ORIGIN ["COM"]
properties('MP2/aug-cc-pvtz', properties = ['dipole'])
--------------------------------------------------------------------------

    Molecular point group: c1
  Charge       = -2
  Multiplicity = 1
  Basis Set: AUG-CC-PVTZ
    Blend: AUG-CC-PVTZ
  Basis Set: (AUG-CC-PVTZ AUX)
    Blend: AUG-CC-PVTZ-JKFIT

    Orbital Energies [Eh]
    ---------------------

    Doubly Occupied:

       1A    -20.293612     2A    -20.225558     3A    -20.223007
       4A    -20.205232     5A    -20.203906     6A    -11.064458
       7A    -11.060622     8A    -11.046969     9A    -10.961687
      10A    -10.954146    11A     -1.150486    12A     -1.086606
      13A     -1.072331    14A     -0.992857    15A     -0.971630
      16A     -0.784676    17A     -0.652408    18A     -0.546899
      19A     -0.443888    20A     -0.420830    21A     -0.382436
      22A     -0.372188    23A     -0.368746    24A     -0.326692
      25A     -0.317770    26A     -0.302509    27A     -0.296118
      28A     -0.269355    29A     -0.245524    30A     -0.234436
      31A     -0.217820    32A     -0.206922    33A     -0.139760
      34A     -0.123131    35A     -0.119718    36A     -0.114208
      37A     -0.105920    38A     -0.091709

  @DF-RHF Final Energy:  -566.19127666179918

   => Energetics <=

    Nuclear Repulsion Energy =            481.9358659382301653
    One-Electron Energy =               -1759.0607458207298350
    Two-Electron Energy =                 710.9336032207005474
    Total Energy =                       -566.1912766617991792
  Basis Set: (AUG-CC-PVTZ AUX)
    Blend: AUG-CC-PVTZ-RI
    Molecular point group: c1

    Geometry (in Angstrom), charge = -2, multiplicity = 1:

       Center              X                  Y                   Z               Mass
    ------------   -----------------  -----------------  -----------------  -----------------
         O            1.221253406208     1.740051807703     0.012628480700    15.994914619570
         O           -2.662002593792    -1.225363192297     0.724832480700    15.994914619570
         O           -3.724987593792     0.387737807703    -0.469073519300    15.994914619570
         O            3.449737406208     0.126890807703     0.568535480700    15.994914619570
         O            2.364780406208    -1.438216192297    -0.693635519300    15.994914619570
         C           -0.148279593792    -0.235287192297    -0.085315519300    12.000000000000
         C           -1.382503593792     0.648434807703    -0.058186519300    12.000000000000
         C            1.167949106208     0.555879807703    -0.033304519300    12.000000000000
         C           -2.704730593792    -0.140518192297     0.067708480700    12.000000000000
         C            2.459439406208    -0.351029192297    -0.050566519300    12.000000000000
         H           -0.130173593792    -0.875520192297    -0.974561519300     1.007825032230
         H           -0.180097593792    -0.937111192297     0.757013480700     1.007825032230
         H           -1.429649593792     1.280073807703    -0.950936519300     1.007825032230
         H           -1.315861593792     1.336807807703     0.795508480700     1.007825032230

  Basis Set: AUG-CC-PVTZ
    Blend: AUG-CC-PVTZ
  Basis Set: (AUG-CC-PVTZ AUX)
    Blend: AUG-CC-PVTZ-JKFIT
	 Reference Energy          =    -566.1912766617991792 [Eh]
	 Singles Energy            =      -0.0000000000000000 [Eh]
	 Same-Spin Energy          =      -0.5570622285159821 [Eh]
	 Opposite-Spin Energy      =      -1.6329965581641284 [Eh]
	 Correlation Energy        =      -2.1900587866801104 [Eh]
	 Total Energy              =    -568.3813354484792626 [Eh]

	 ================> DF-SCS-MP2 Energies <==================
	-----------------------------------------------------------
	 SCS Same-Spin Scale       =       0.3333333333333333 [-]
	 SCS Opposite-Spin Scale   =       1.2000000000000000 [-]
	 SCS Same-Spin Energy      =      -0.1856874095053274 [Eh]
	 SCS Opposite-Spin Energy  =      -1.9595958697969540 [Eh]
	 SCS Correlation Energy    =      -2.1452832793022814 [Eh]
	 SCS Total Energy          =    -568.3365599411014273 [Eh]
	-----------------------------------------------------------

  Dipole Moment: [D]
     X:     1.3698      Y:     2.4331      Z:    -0.3877     Total:     2.8190

*** Psi4 exiting successfully. Buy a developer a beer!
