                               Psi4 1.4a3.dev225

  ==> Input File <==

--------------------------------------------------------------------------
#psi4
#
memory 32 gb

molecule  {
-2 1
  O        1.2418990     1.7387210     0.0152810
  O       -2.6413570    -1.2266940     0.7274850
  O       -3.7043420     0.3864070    -0.4664210
  O        3.4703830     0.1255600     0.5711880
  O        2.3854260    -1.4395470    -0.6909830
  C       -0.1276340    -0.2366180    -0.0826630
  C       -1.3618580     0.6471040    -0.0555340
  C        1.1872467     0.5246018    -0.0318136
  C       -2.6840850    -0.1418490     0.0703610
  C        2.4800850    -0.3523600    -0.0479140
  H       -0.1095280    -0.8768510    -0.9719090
  H       -0.1594520    -0.9384420     0.7596660
  H       -1.4090040     1.2787430    -0.9482840
  H       -1.2952160     1.3354770     0.7981610
units angstrom
no_reorient  #important for SAPT in psi4, default
symmetry c1  #important for SAPT in psi4, default
}

set PROPERTIES_ORIGIN ["COM"]
properties('MP2/aug-cc-pvtz', properties = ['dipole'])
--------------------------------------------------------------------------

    Molecular point group: c1
  Charge       = -2
  Multiplicity = 1
  Basis Set: AUG-CC-PVTZ
    Blend: AUG-CC-PVTZ
  Basis Set: (AUG-CC-PVTZ AUX)
    Blend: AUG-CC-PVTZ-JKFIT

    Orbital Energies [Eh]
    ---------------------

    Doubly Occupied:

       1A    -20.291443     2A    -20.226638     3A    -20.224162
       4A    -20.205821     5A    -20.204533     6A    -11.066151
       7A    -11.063659     8A    -11.047690     9A    -10.963500
      10A    -10.955141    11A     -1.131418    12A     -1.086223
      13A     -1.072951    14A     -0.994237    15A     -0.972248
      16A     -0.787782    17A     -0.657781    18A     -0.551211
      19A     -0.441458    20A     -0.419533    21A     -0.380776
      22A     -0.369778    23A     -0.368691    24A     -0.327330
      25A     -0.318054    26A     -0.301516    27A     -0.294379
      28A     -0.269647    29A     -0.240817    30A     -0.232576
      31A     -0.216267    32A     -0.205926    33A     -0.140803
      34A     -0.124609    35A     -0.120478    36A     -0.115055
      37A     -0.106550    38A     -0.097608

  @DF-RHF Final Energy:  -566.19140380526426

   => Energetics <=

    Nuclear Repulsion Energy =            481.8396169512504343
    One-Electron Energy =               -1758.8731579187983698
    Two-Electron Energy =                 710.8421371622836205
    Total Energy =                       -566.1914038052642582
  Basis Set: (AUG-CC-PVTZ AUX)
    Blend: AUG-CC-PVTZ-RI
    Molecular point group: c1

    Geometry (in Angstrom), charge = -2, multiplicity = 1:

       Center              X                  Y                   Z               Mass
    ------------   -----------------  -----------------  -----------------  -----------------
         O            1.221365734960     1.742547305921     0.012725276752    15.994914619570
         O           -2.661890265040    -1.222867694079     0.724929276752    15.994914619570
         O           -3.724875265040     0.390233305921    -0.468976723248    15.994914619570
         O            3.449849734960     0.129386305921     0.568632276752    15.994914619570
         O            2.364892734960    -1.435720694079    -0.693538723248    15.994914619570
         C           -0.148167265040    -0.232791694079    -0.085218723248    12.000000000000
         C           -1.382391265040     0.650930305921    -0.058089723248    12.000000000000
         C            1.166713434960     0.528428105921    -0.034369323248    12.000000000000
         C           -2.704618265040    -0.138022694079     0.067805276752    12.000000000000
         C            2.459551734960    -0.348533694079    -0.050469723248    12.000000000000
         H           -0.130061265040    -0.873024694079    -0.974464723248     1.007825032230
         H           -0.179985265040    -0.934615694079     0.757110276752     1.007825032230
         H           -1.429537265040     1.282569305921    -0.950839723248     1.007825032230
         H           -1.315749265040     1.339303305921     0.795605276752     1.007825032230

  Basis Set: AUG-CC-PVTZ
    Blend: AUG-CC-PVTZ
  Basis Set: (AUG-CC-PVTZ AUX)
    Blend: AUG-CC-PVTZ-JKFIT
	 Reference Energy          =    -566.1914038052642582 [Eh]
	 Singles Energy            =      -0.0000000000000000 [Eh]
	 Same-Spin Energy          =      -0.5578445982186069 [Eh]
	 Opposite-Spin Energy      =      -1.6346984975803722 [Eh]
	 Correlation Energy        =      -2.1925430957989791 [Eh]
	 Total Energy              =    -568.3839469010632683 [Eh]

	 ================> DF-SCS-MP2 Energies <==================
	-----------------------------------------------------------
	 SCS Same-Spin Scale       =       0.3333333333333333 [-]
	 SCS Opposite-Spin Scale   =       1.2000000000000000 [-]
	 SCS Same-Spin Energy      =      -0.1859481994062023 [Eh]
	 SCS Opposite-Spin Energy  =      -1.9616381970964465 [Eh]
	 SCS Correlation Energy    =      -2.1475863965026489 [Eh]
	 SCS Total Energy          =    -568.3389902017669328 [Eh]
	-----------------------------------------------------------

  Dipole Moment: [D]
     X:     1.3330      Y:     2.2687      Z:    -0.3821     Total:     2.6589

*** Psi4 exiting successfully. Buy a developer a beer!
