                               Psi4 1.3.2 release

  ==> Input File <==

--------------------------------------------------------------------------
#psi4
#
memory 32 gb

molecule  {
-2 1
  O       -1.2362950     1.7303800    -0.2239510
  O        2.6794370    -1.1261430    -0.8901160
  O        3.7000480     0.2611620     0.6076450
  O       -3.2904550    -0.3020480    -0.9006360
  O       -2.5973840    -0.9175860     1.2002500
  C        0.1162890    -0.2520540     0.0602520
  C        1.3712430     0.6068110     0.1462360
  C       -1.2048800     0.7000480    -0.0829188
  C        2.7080760    -0.1725680    -0.0543080
  C       -2.4977060    -0.3261360     0.0823270
  H        0.0210760    -0.9244250     0.9209780
  H        0.2133690    -0.9136840    -0.8118550
  H        1.4153100     1.1406480     1.1027450
  H        1.3130670     1.3830990    -0.6295990
units angstrom
no_reorient  #important for SAPT in psi4, default
symmetry c1  #important for SAPT in psi4, default
}

set PROPERTIES_ORIGIN ["COM"]
properties('MP2/aug-cc-pvtz', properties = ['dipole'])
--------------------------------------------------------------------------

    Molecular point group: c1
  Charge       = -2
  Multiplicity = 1
  Basis Set: AUG-CC-PVTZ
    Blend: AUG-CC-PVTZ
  Basis Set: (AUG-CC-PVTZ AUX)
    Blend: AUG-CC-PVTZ-JKFIT

    Orbital Energies [Eh]
    ---------------------

    Doubly Occupied:

       1A    -20.306304     2A    -20.222402     3A    -20.221748
       4A    -20.205792     5A    -20.204633     6A    -11.057789
       7A    -11.049861     8A    -11.047696     9A    -10.955430
      10A    -10.951776    11A     -1.268130    12A     -1.081906
      13A     -1.071002    14A     -0.989015    15A     -0.972714
      16A     -0.769344    17A     -0.624529    18A     -0.532625
      19A     -0.472600    20A     -0.430095    21A     -0.406127
      22A     -0.385870    23A     -0.375946    24A     -0.338004
      25A     -0.324628    26A     -0.312667    27A     -0.303316
      28A     -0.274221    29A     -0.260901    30A     -0.228436
      31A     -0.221827    32A     -0.207377    33A     -0.139251
      34A     -0.121528    35A     -0.119703    36A     -0.111036
      37A     -0.106555    38A     -0.050034

  @DF-RHF Final Energy:  -566.12699171109011

   => Energetics <=

    Nuclear Repulsion Energy =            480.4089369510343772
    One-Electron Energy =               -1755.6262195770561902
    Two-Electron Energy =                 709.0902909149317566
    Total Energy =                       -566.1269917110901133
  Basis Set: (AUG-CC-PVTZ AUX)
    Blend: AUG-CC-PVTZ-RI
    Molecular point group: c1

    Geometry (in Angstrom), charge = -2, multiplicity = 1:

       Center              X                  Y                   Z               Mass
    ------------   -----------------  -----------------  -----------------  -----------------
         O           -1.215404692324     1.718587032664    -0.217687417767    15.994914619570
         O            2.700327307676    -1.137935967336    -0.883852417767    15.994914619570
         O            3.720938307676     0.249369032664     0.613908582233    15.994914619570
         O           -3.269564692324    -0.313840967336    -0.894372417767    15.994914619570
         O           -2.576493692324    -0.929378967336     1.206513582233    15.994914619570
         C            0.137179307676    -0.263846967336     0.066515582233    12.000000000000
         C            1.392133307676     0.595018032664     0.152499582233    12.000000000000
         C           -1.183989692324     0.688255032664    -0.076655217767    12.000000000000
         C            2.728966307676    -0.184360967336    -0.048044417767    12.000000000000
         C           -2.476815692324    -0.337928967336     0.088590582233    12.000000000000
         H            0.041966307676    -0.936217967336     0.927241582233     1.007825032230
         H            0.234259307676    -0.925476967336    -0.805591417767     1.007825032230
         H            1.436200307676     1.128855032664     1.109008582233     1.007825032230
         H            1.333957307676     1.371306032664    -0.623335417767     1.007825032230

  Basis Set: AUG-CC-PVTZ
    Blend: AUG-CC-PVTZ
  Basis Set: (AUG-CC-PVTZ AUX)
    Blend: AUG-CC-PVTZ-JKFIT
	 Reference Energy          =    -566.1269917110901133 [Eh]
	 Singles Energy            =      -0.0000000000000000 [Eh]
	 Same-Spin Energy          =      -0.5542381464534009 [Eh]
	 Opposite-Spin Energy      =      -1.6268549951579345 [Eh]
	 Correlation Energy        =      -2.1810931416113353 [Eh]
	 Total Energy              =    -568.3080848527014268 [Eh]

	 ================> DF-SCS-MP2 Energies <==================
	-----------------------------------------------------------
	 SCS Same-Spin Scale       =       0.3333333333333333 [-]
	 SCS Opposite-Spin Scale   =       1.2000000000000000 [-]
	 SCS Same-Spin Energy      =      -0.1847460488178003 [Eh]
	 SCS Opposite-Spin Energy  =      -1.9522259941895213 [Eh]
	 SCS Correlation Energy    =      -2.1369720430073214 [Eh]
	 SCS Total Energy          =    -568.2639637540974036 [Eh]
	-----------------------------------------------------------

  Dipole Moment: [D]
     X:    -1.5618      Y:     3.3737      Z:     0.1243     Total:     3.7198

*** Psi4 exiting successfully. Buy a developer a beer!
