                               Psi4 1.3.2 release

  ==> Input File <==

--------------------------------------------------------------------------
#psi4
#
memory 32 gb

molecule  {
-2 1
  O       -1.2362950     1.7303800    -0.2239510
  O        2.6794370    -1.1261430    -0.8901160
  O        3.7000480     0.2611620     0.6076450
  O       -3.3178801    -0.3282544    -0.8781715
  O       -2.5973840    -0.9175860     1.2002500
  C        0.1162890    -0.2520540     0.0602520
  C        1.3712430     0.6068110     0.1462360
  C       -1.1988410     0.5019860    -0.0558080
  C        2.7080760    -0.1725680    -0.0543080
  C       -2.4977060    -0.3261360     0.0823270
  H        0.0210760    -0.9244250     0.9209780
  H        0.2133690    -0.9136840    -0.8118550
  H        1.4153100     1.1406480     1.1027450
  H        1.3130670     1.3830990    -0.6295990
units angstrom
no_reorient  #important for SAPT in psi4, default
symmetry c1  #important for SAPT in psi4, default
}

set PROPERTIES_ORIGIN ["COM"]
properties('MP2/aug-cc-pvtz', properties = ['dipole'])
--------------------------------------------------------------------------

    Molecular point group: c1
  Charge       = -2
  Multiplicity = 1
  Basis Set: AUG-CC-PVTZ
    Blend: AUG-CC-PVTZ
  Basis Set: (AUG-CC-PVTZ AUX)
    Blend: AUG-CC-PVTZ-JKFIT

    Orbital Energies [Eh]
    ---------------------

    Doubly Occupied:

       1A    -20.290558     2A    -20.229345     3A    -20.229135
       4A    -20.210571     5A    -20.209796     6A    -11.072670
       7A    -11.071360     8A    -11.053631     9A    -10.971361
      10A    -10.959161    11A     -1.120323    12A     -1.087020
      13A     -1.076075    14A     -0.996499    15A     -0.977745
      16A     -0.790576    17A     -0.662659    18A     -0.558304
      19A     -0.441493    20A     -0.422102    21A     -0.382015
      22A     -0.371174    23A     -0.364981    24A     -0.330076
      25A     -0.325545    26A     -0.306273    27A     -0.285267
      28A     -0.274280    29A     -0.249500    30A     -0.230422
      31A     -0.216009    32A     -0.208345    33A     -0.143817
      34A     -0.128265    35A     -0.125403    36A     -0.117823
      37A     -0.111233    38A     -0.101302

  @DF-RHF Final Energy:  -566.19164478842981

   => Energetics <=

    Nuclear Repulsion Energy =            479.1312101461482484
    One-Electron Energy =               -1753.2414812189272197
    Two-Electron Energy =                 707.9186262843491022
    Total Energy =                       -566.1916447884298123
  Basis Set: (AUG-CC-PVTZ AUX)
    Blend: AUG-CC-PVTZ-RI
    Molecular point group: c1

    Geometry (in Angstrom), charge = -2, multiplicity = 1:

       Center              X                  Y                   Z               Mass
    ------------   -----------------  -----------------  -----------------  -----------------
         O           -1.212861781228     1.738002304193    -0.222441719409    15.994914619570
         O            2.702870218772    -1.118520695807    -0.888606719409    15.994914619570
         O            3.723481218772     0.268784304193     0.609154280591    15.994914619570
         O           -3.294446881228    -0.320632095807    -0.876662219409    15.994914619570
         O           -2.573950781228    -0.909963695807     1.201759280591    15.994914619570
         C            0.139722218772    -0.244431695807     0.061761280591    12.000000000000
         C            1.394676218772     0.614433304193     0.147745280591    12.000000000000
         C           -1.175407781228     0.509608304193    -0.054298719409    12.000000000000
         C            2.731509218772    -0.164945695807    -0.052798719409    12.000000000000
         C           -2.474272781228    -0.318513695807     0.083836280591    12.000000000000
         H            0.044509218772    -0.916802695807     0.922487280591     1.007825032230
         H            0.236802218772    -0.906061695807    -0.810345719409     1.007825032230
         H            1.438743218772     1.148270304193     1.104254280591     1.007825032230
         H            1.336500218772     1.390721304193    -0.628089719409     1.007825032230

  Basis Set: AUG-CC-PVTZ
    Blend: AUG-CC-PVTZ
  Basis Set: (AUG-CC-PVTZ AUX)
    Blend: AUG-CC-PVTZ-JKFIT
	 Reference Energy          =    -566.1916447884298123 [Eh]
	 Singles Energy            =      -0.0000000000000000 [Eh]
	 Same-Spin Energy          =      -0.5582326706191197 [Eh]
	 Opposite-Spin Energy      =      -1.6357768089573739 [Eh]
	 Correlation Energy        =      -2.1940094795764935 [Eh]
	 Total Energy              =    -568.3856542680063058 [Eh]

	 ================> DF-SCS-MP2 Energies <==================
	-----------------------------------------------------------
	 SCS Same-Spin Scale       =       0.3333333333333333 [-]
	 SCS Opposite-Spin Scale   =       1.2000000000000000 [-]
	 SCS Same-Spin Energy      =      -0.1860775568730399 [Eh]
	 SCS Opposite-Spin Energy  =      -1.9629321707488485 [Eh]
	 SCS Correlation Energy    =      -2.1490097276218885 [Eh]
	 SCS Total Energy          =    -568.3406545160516998 [Eh]
	-----------------------------------------------------------

  Dipole Moment: [D]
     X:    -1.2029      Y:     2.0478      Z:     0.2272     Total:     2.3858

*** Psi4 exiting successfully. Buy a developer a beer!
