                               Psi4 1.3.2 release

  ==> Input File <==

--------------------------------------------------------------------------
#psi4
#
memory 32 gb

molecule  {
-2 1
  O       -1.2362950     1.7303800    -0.2239510
  O        2.6794370    -1.1261430    -0.8901160
  O        3.7000480     0.2611620     0.6076450
  O       -3.2620640    -0.2758710    -0.9219029
  O       -2.5973840    -0.9175860     1.2002500
  C        0.1162890    -0.2520540     0.0602520
  C        1.3712430     0.6068110     0.1462360
  C       -1.1988410     0.5019860    -0.0558080
  C        2.7080760    -0.1725680    -0.0543080
  C       -2.4977060    -0.3261360     0.0823270
  H        0.0210760    -0.9244250     0.9209780
  H        0.2133690    -0.9136840    -0.8118550
  H        1.4153100     1.1406480     1.1027450
  H        1.3130670     1.3830990    -0.6295990
units angstrom
no_reorient  #important for SAPT in psi4, default
symmetry c1  #important for SAPT in psi4, default
}

set PROPERTIES_ORIGIN ["COM"]
properties('MP2/aug-cc-pvtz', properties = ['dipole'])
--------------------------------------------------------------------------

    Molecular point group: c1
  Charge       = -2
  Multiplicity = 1
  Basis Set: AUG-CC-PVTZ
    Blend: AUG-CC-PVTZ
  Basis Set: (AUG-CC-PVTZ AUX)
    Blend: AUG-CC-PVTZ-JKFIT

    Orbital Energies [Eh]
    ---------------------

    Doubly Occupied:

       1A    -20.286561     2A    -20.233759     3A    -20.231938
       4A    -20.209594     5A    -20.208780     6A    -11.073133
       7A    -11.067468     8A    -11.052476     9A    -10.969173
      10A    -10.957614    11A     -1.118372    12A     -1.085593
      13A     -1.075058    14A     -1.003294    15A     -0.976744
      16A     -0.788542    17A     -0.660229    18A     -0.555874
      19A     -0.439494    20A     -0.421214    21A     -0.381978
      22A     -0.369423    23A     -0.363252    24A     -0.332847
      25A     -0.324667    26A     -0.305524    27A     -0.284761
      28A     -0.274123    29A     -0.248121    30A     -0.229083
      31A     -0.214460    32A     -0.205965    33A     -0.150067
      34A     -0.130242    35A     -0.126111    36A     -0.116330
      37A     -0.110288    38A     -0.097575

  @DF-RHF Final Energy:  -566.19121436135561

   => Energetics <=

    Nuclear Repulsion Energy =            479.6617276586473508
    One-Electron Energy =               -1754.3464282105928760
    Two-Electron Energy =                 708.4934861905899197
    Total Energy =                       -566.1912143613556054
  Basis Set: (AUG-CC-PVTZ AUX)
    Blend: AUG-CC-PVTZ-RI
    Molecular point group: c1

    Geometry (in Angstrom), charge = -2, multiplicity = 1:

       Center              X                  Y                   Z               Mass
    ------------   -----------------  -----------------  -----------------  -----------------
         O           -1.219061346106     1.732184013649    -0.217584417456    15.994914619570
         O            2.696670653894    -1.124338986351    -0.883749417456    15.994914619570
         O            3.717281653894     0.262966013649     0.614011582544    15.994914619570
         O           -3.244830346106    -0.274066986351    -0.915536317456    15.994914619570
         O           -2.580150346106    -0.915781986351     1.206616582544    15.994914619570
         C            0.133522653894    -0.250249986351     0.066618582544    12.000000000000
         C            1.388476653894     0.608615013649     0.152602582544    12.000000000000
         C           -1.181607346106     0.503790013649    -0.049441417456    12.000000000000
         C            2.725309653894    -0.170763986351    -0.047941417456    12.000000000000
         C           -2.480472346106    -0.324331986351     0.088693582544    12.000000000000
         H            0.038309653894    -0.922620986351     0.927344582544     1.007825032230
         H            0.230602653894    -0.911879986351    -0.805488417456     1.007825032230
         H            1.432543653894     1.142452013649     1.109111582544     1.007825032230
         H            1.330300653894     1.384903013649    -0.623232417456     1.007825032230

  Basis Set: AUG-CC-PVTZ
    Blend: AUG-CC-PVTZ
  Basis Set: (AUG-CC-PVTZ AUX)
    Blend: AUG-CC-PVTZ-JKFIT
	 Reference Energy          =    -566.1912143613556054 [Eh]
	 Singles Energy            =      -0.0000000000000000 [Eh]
	 Same-Spin Energy          =      -0.5583154873054442 [Eh]
	 Opposite-Spin Energy      =      -1.6358692656655800 [Eh]
	 Correlation Energy        =      -2.1941847529710241 [Eh]
	 Total Energy              =    -568.3853991143266740 [Eh]

	 ================> DF-SCS-MP2 Energies <==================
	-----------------------------------------------------------
	 SCS Same-Spin Scale       =       0.3333333333333333 [-]
	 SCS Opposite-Spin Scale   =       1.2000000000000000 [-]
	 SCS Same-Spin Energy      =      -0.1861051624351481 [Eh]
	 SCS Opposite-Spin Energy  =      -1.9630431187986959 [Eh]
	 SCS Correlation Energy    =      -2.1491482812338440 [Eh]
	 SCS Total Energy          =    -568.3403626425894117 [Eh]
	-----------------------------------------------------------

  Dipole Moment: [D]
     X:    -1.3840      Y:     1.9465      Z:     0.2817     Total:     2.4049

*** Psi4 exiting successfully. Buy a developer a beer!
