                               Psi4 1.3.2 release

  ==> Input File <==

--------------------------------------------------------------------------
#psi4
#
memory 32 gb

molecule  {
-2 1
  O       -1.2362950     1.7303800    -0.2239510
  O        2.6794370    -1.1261430    -0.8901160
  O        3.7000480     0.2611620     0.6076450
  O       -3.2904550    -0.3020480    -0.9006360
  O       -2.5973840    -0.9175860     1.2002500
  C        0.1162890    -0.2520540     0.0602520
  C        1.3712430     0.6068110     0.1462360
  C       -1.1988410     0.5019860    -0.0558080
  C        2.7080760    -0.1725680    -0.0543080
  C       -2.3297402    -0.2190454     0.0644637
  H        0.0210760    -0.9244250     0.9209780
  H        0.2133690    -0.9136840    -0.8118550
  H        1.4153100     1.1406480     1.1027450
  H        1.3130670     1.3830990    -0.6295990
units angstrom
no_reorient  #important for SAPT in psi4, default
symmetry c1  #important for SAPT in psi4, default
}

set PROPERTIES_ORIGIN ["COM"]
properties('MP2/aug-cc-pvtz', properties = ['dipole'])
--------------------------------------------------------------------------

    Molecular point group: c1
  Charge       = -2
  Multiplicity = 1
  Basis Set: AUG-CC-PVTZ
    Blend: AUG-CC-PVTZ
  Basis Set: (AUG-CC-PVTZ AUX)
    Blend: AUG-CC-PVTZ-JKFIT

    Orbital Energies [Eh]
    ---------------------

    Doubly Occupied:

       1A    -20.306173     2A    -20.233936     3A    -20.230887
       4A    -20.214366     5A    -20.213605     6A    -11.081421
       7A    -11.079877     8A    -11.058097     9A    -10.980406
      10A    -10.965476    11A     -1.136532    12A     -1.079965
      13A     -1.043713    14A     -0.981563    15A     -0.942425
      16A     -0.805703    17A     -0.715861    18A     -0.604718
      19A     -0.450984    20A     -0.426798    21A     -0.388205
      22A     -0.380929    23A     -0.361401    24A     -0.331634
      25A     -0.323547    26A     -0.304748    27A     -0.281259
      28A     -0.258062    29A     -0.236181    30A     -0.227431
      31A     -0.216915    32A     -0.205318    33A     -0.147354
      34A     -0.128216    35A     -0.122207    36A     -0.115700
      37A     -0.114470    38A     -0.105245

  @DF-RHF Final Energy:  -566.12439201866050

   => Energetics <=

    Nuclear Repulsion Energy =            480.4972812730254077
    One-Electron Energy =               -1755.6406865482986177
    Two-Electron Energy =                 709.0190132566126522
    Total Energy =                       -566.1243920186605010
  Basis Set: (AUG-CC-PVTZ AUX)
    Blend: AUG-CC-PVTZ-RI
    Molecular point group: c1

    Geometry (in Angstrom), charge = -2, multiplicity = 1:

       Center              X                  Y                   Z               Mass
    ------------   -----------------  -----------------  -----------------  -----------------
         O           -1.229904500930     1.726167673478    -0.218458011338    15.994914619570
         O            2.685827499070    -1.130355326522    -0.884623011338    15.994914619570
         O            3.706438499070     0.256949673478     0.613137988662    15.994914619570
         O           -3.284064500930    -0.306260326522    -0.895143011338    15.994914619570
         O           -2.590993500930    -0.921798326522     1.205742988662    15.994914619570
         C            0.122679499070    -0.256266326522     0.065744988662    12.000000000000
         C            1.377633499070     0.602598673478     0.151728988662    12.000000000000
         C           -1.192450500930     0.497773673478    -0.050315011338    12.000000000000
         C            2.714466499070    -0.176780326522    -0.048815011338    12.000000000000
         C           -2.323349700930    -0.223257726522     0.069956688662    12.000000000000
         H            0.027466499070    -0.928637326522     0.926470988662     1.007825032230
         H            0.219759499070    -0.917896326522    -0.806362011338     1.007825032230
         H            1.421700499070     1.136435673478     1.108237988662     1.007825032230
         H            1.319457499070     1.378886673478    -0.624106011338     1.007825032230

  Basis Set: AUG-CC-PVTZ
    Blend: AUG-CC-PVTZ
  Basis Set: (AUG-CC-PVTZ AUX)
    Blend: AUG-CC-PVTZ-JKFIT
	 Reference Energy          =    -566.1243920186605010 [Eh]
	 Singles Energy            =      -0.0000000000000000 [Eh]
	 Same-Spin Energy          =      -0.5651235089248168 [Eh]
	 Opposite-Spin Energy      =      -1.6503344001099096 [Eh]
	 Correlation Energy        =      -2.2154579090347264 [Eh]
	 Total Energy              =    -568.3398499276952407 [Eh]

	 ================> DF-SCS-MP2 Energies <==================
	-----------------------------------------------------------
	 SCS Same-Spin Scale       =       0.3333333333333333 [-]
	 SCS Opposite-Spin Scale   =       1.2000000000000000 [-]
	 SCS Same-Spin Energy      =      -0.1883745029749389 [Eh]
	 SCS Opposite-Spin Energy  =      -1.9804012801318915 [Eh]
	 SCS Correlation Energy    =      -2.1687757831068306 [Eh]
	 SCS Total Energy          =    -568.2931678017673676 [Eh]
	-----------------------------------------------------------

  Dipole Moment: [D]
     X:    -0.6021      Y:     2.3148      Z:     0.2492     Total:     2.4048

*** Psi4 exiting successfully. Buy a developer a beer!
