                               Psi4 1.4a3.dev225

  ==> Input File <==

--------------------------------------------------------------------------
#psi4
#
memory 32 gb

molecule  {
-2 1
  O        1.2418990     1.7387210     0.0152810
  O       -2.6413570    -1.2266940     0.7274850
  O       -3.7043420     0.3864070    -0.4664210
  O        3.4703830     0.1255600     0.5711880
  O        2.3854260    -1.4395470    -0.6909830
  C       -0.1276340    -0.2366180    -0.0826630
  C       -1.3618580     0.6471040    -0.0555340
  C        1.1863480     0.5046370    -0.0325880
  C       -2.6840850    -0.1418490     0.0703610
  C        2.4967578    -0.3634044    -0.0481115
  H       -0.1095280    -0.8768510    -0.9719090
  H       -0.1594520    -0.9384420     0.7596660
  H       -1.4090040     1.2787430    -0.9482840
  H       -1.2952160     1.3354770     0.7981610
units angstrom
no_reorient  #important for SAPT in psi4, default
symmetry c1  #important for SAPT in psi4, default
}

set PROPERTIES_ORIGIN ["COM"]
properties('MP2/aug-cc-pvtz', properties = ['dipole'])
--------------------------------------------------------------------------

    Molecular point group: c1
  Charge       = -2
  Multiplicity = 1
  Basis Set: AUG-CC-PVTZ
    Blend: AUG-CC-PVTZ
  Basis Set: (AUG-CC-PVTZ AUX)
    Blend: AUG-CC-PVTZ-JKFIT

    Orbital Energies [Eh]
    ---------------------

    Doubly Occupied:

       1A    -20.287908     2A    -20.227775     3A    -20.225555
       4A    -20.205712     5A    -20.204441     6A    -11.066848
       7A    -11.063424     8A    -11.047578     9A    -10.963466
      10A    -10.954993    11A     -1.119764    12A     -1.088109
      13A     -1.072840    14A     -1.001596    15A     -0.972150
      16A     -0.788523    17A     -0.657878    18A     -0.548396
      19A     -0.439034    20A     -0.418404    21A     -0.380917
      22A     -0.368776    23A     -0.365578    24A     -0.329231
      25A     -0.318861    26A     -0.300986    27A     -0.294780
      28A     -0.270873    29A     -0.240290    30A     -0.228474
      31A     -0.214338    32A     -0.204736    33A     -0.144299
      34A     -0.125922    35A     -0.121976    36A     -0.114750
      37A     -0.106452    38A     -0.097561

  @DF-RHF Final Energy:  -566.19096589712740

   => Energetics <=

    Nuclear Repulsion Energy =            481.7002610843779848
    One-Electron Energy =               -1758.6160683568518834
    Two-Electron Energy =                 710.7248413753466139
    Total Energy =                       -566.1909658971273984
  Basis Set: (AUG-CC-PVTZ AUX)
    Blend: AUG-CC-PVTZ-RI
    Molecular point group: c1

    Geometry (in Angstrom), charge = -2, multiplicity = 1:

       Center              X                  Y                   Z               Mass
    ------------   -----------------  -----------------  -----------------  -----------------
         O            1.220051280238     1.745131300529     0.012806265115    15.994914619570
         O           -2.663204719762    -1.220283699471     0.725010265115    15.994914619570
         O           -3.726189719762     0.392817300529    -0.468895734885    15.994914619570
         O            3.448535280238     0.131970300529     0.568713265115    15.994914619570
         O            2.363578280238    -1.433136699471    -0.693457734885    15.994914619570
         C           -0.149481719762    -0.230207699471    -0.085137734885    12.000000000000
         C           -1.383705719762     0.653514300529    -0.058008734885    12.000000000000
         C            1.164500280238     0.511047300529    -0.035062734885    12.000000000000
         C           -2.705932719762    -0.135438699471     0.067886265115    12.000000000000
         C            2.474910080238    -0.356994099471    -0.050586234885    12.000000000000
         H           -0.131375719762    -0.870440699471    -0.974383734885     1.007825032230
         H           -0.181299719762    -0.932031699471     0.757191265115     1.007825032230
         H           -1.430851719762     1.285153300529    -0.950758734885     1.007825032230
         H           -1.317063719762     1.341887300529     0.795686265115     1.007825032230

  Basis Set: AUG-CC-PVTZ
    Blend: AUG-CC-PVTZ
  Basis Set: (AUG-CC-PVTZ AUX)
    Blend: AUG-CC-PVTZ-JKFIT
	 Reference Energy          =    -566.1909658971273984 [Eh]
	 Singles Energy            =      -0.0000000000000000 [Eh]
	 Same-Spin Energy          =      -0.5580498273760020 [Eh]
	 Opposite-Spin Energy      =      -1.6350034313745212 [Eh]
	 Correlation Energy        =      -2.1930532587505231 [Eh]
	 Total Energy              =    -568.3840191558779225 [Eh]

	 ================> DF-SCS-MP2 Energies <==================
	-----------------------------------------------------------
	 SCS Same-Spin Scale       =       0.3333333333333333 [-]
	 SCS Opposite-Spin Scale   =       1.2000000000000000 [-]
	 SCS Same-Spin Energy      =      -0.1860166091253340 [Eh]
	 SCS Opposite-Spin Energy  =      -1.9620041176494254 [Eh]
	 SCS Correlation Energy    =      -2.1480207267747593 [Eh]
	 SCS Total Energy          =    -568.3389866239022012 [Eh]
	-----------------------------------------------------------

  Dipole Moment: [D]
     X:     1.4058      Y:     2.1167      Z:    -0.3766     Total:     2.5688

*** Psi4 exiting successfully. Buy a developer a beer!
