                               Psi4 1.3.2 release

  ==> Input File <==

--------------------------------------------------------------------------
#psi4
#
memory 32 gb

molecule  {
-2 1
  O       -1.2362950     1.7303800    -0.2239510
  O        2.6794370    -1.1261430    -0.8901160
  O        3.7000480     0.2611620     0.6076450
  O       -3.2904550    -0.3020480    -0.9006360
  O       -2.5973840    -0.9175860     1.2002500
  C        0.1162890    -0.2520540     0.0602520
  C        1.3712430     0.6068110     0.1462360
  C       -1.2161532     0.4503084    -0.1468665
  C        2.7080760    -0.1725680    -0.0543080
  C       -2.4977060    -0.3261360     0.0823270
  H        0.0210760    -0.9244250     0.9209780
  H        0.2133690    -0.9136840    -0.8118550
  H        1.4153100     1.1406480     1.1027450
  H        1.3130670     1.3830990    -0.6295990
units angstrom
no_reorient  #important for SAPT in psi4, default
symmetry c1  #important for SAPT in psi4, default
}

set PROPERTIES_ORIGIN ["COM"]
properties('MP2/aug-cc-pvtz', properties = ['dipole'])
--------------------------------------------------------------------------

    Molecular point group: c1
  Charge       = -2
  Multiplicity = 1
  Basis Set: AUG-CC-PVTZ
    Blend: AUG-CC-PVTZ
  Basis Set: (AUG-CC-PVTZ AUX)
    Blend: AUG-CC-PVTZ-JKFIT

    Orbital Energies [Eh]
    ---------------------

    Doubly Occupied:

       1A    -20.287033     2A    -20.235433     3A    -20.231430
       4A    -20.210368     5A    -20.209327     6A    -11.075967
       7A    -11.074953     8A    -11.053420     9A    -10.972240
      10A    -10.959113    11A     -1.109487    12A     -1.076038
      13A     -1.073887    14A     -1.002740    15A     -0.977405
      16A     -0.789870    17A     -0.667771    18A     -0.565672
      19A     -0.436660    20A     -0.421435    21A     -0.383015
      22A     -0.367145    23A     -0.359141    24A     -0.333675
      25A     -0.325815    26A     -0.304298    27A     -0.284265
      28A     -0.272258    29A     -0.247912    30A     -0.223762
      31A     -0.212465    32A     -0.199043    33A     -0.148781
      34A     -0.131133    35A     -0.127281    36A     -0.118583
      37A     -0.110886    38A     -0.105430

  @DF-RHF Final Energy:  -566.17939701531805

   => Energetics <=

    Nuclear Repulsion Energy =            479.1064381492859638
    One-Electron Energy =               -1753.2013991209555570
    Two-Electron Energy =                 707.9155639563514342
    Total Energy =                       -566.1793970153180453
  Basis Set: (AUG-CC-PVTZ AUX)
    Blend: AUG-CC-PVTZ-RI
    Molecular point group: c1

    Geometry (in Angstrom), charge = -2, multiplicity = 1:

       Center              X                  Y                   Z               Mass
    ------------   -----------------  -----------------  -----------------  -----------------
         O           -1.214465297305     1.739397817202    -0.212358660108    15.994914619570
         O            2.701266702695    -1.117125182798    -0.878523660108    15.994914619570
         O            3.721877702695     0.270179817202     0.619237339892    15.994914619570
         O           -3.268625297305    -0.293030182798    -0.889043660108    15.994914619570
         O           -2.575554297305    -0.908568182798     1.211842339892    15.994914619570
         C            0.138118702695    -0.243036182798     0.071844339892    12.000000000000
         C            1.393072702695     0.615828817202     0.157828339892    12.000000000000
         C           -1.194323497305     0.459326217202    -0.135274160108    12.000000000000
         C            2.729905702695    -0.163550182798    -0.042715660108    12.000000000000
         C           -2.475876297305    -0.317118182798     0.093919339892    12.000000000000
         H            0.042905702695    -0.915407182798     0.932570339892     1.007825032230
         H            0.235198702695    -0.904666182798    -0.800262660108     1.007825032230
         H            1.437139702695     1.149665817202     1.114337339892     1.007825032230
         H            1.334896702695     1.392116817202    -0.618006660108     1.007825032230

  Basis Set: AUG-CC-PVTZ
    Blend: AUG-CC-PVTZ
  Basis Set: (AUG-CC-PVTZ AUX)
    Blend: AUG-CC-PVTZ-JKFIT
	 Reference Energy          =    -566.1793970153180453 [Eh]
	 Singles Energy            =      -0.0000000000000000 [Eh]
	 Same-Spin Energy          =      -0.5598096262242471 [Eh]
	 Opposite-Spin Energy      =      -1.6391690006431885 [Eh]
	 Correlation Energy        =      -2.1989786268674356 [Eh]
	 Total Energy              =    -568.3783756421854605 [Eh]

	 ================> DF-SCS-MP2 Energies <==================
	-----------------------------------------------------------
	 SCS Same-Spin Scale       =       0.3333333333333333 [-]
	 SCS Opposite-Spin Scale   =       1.2000000000000000 [-]
	 SCS Same-Spin Energy      =      -0.1866032087414157 [Eh]
	 SCS Opposite-Spin Energy  =      -1.9670028007718261 [Eh]
	 SCS Correlation Energy    =      -2.1536060095132417 [Eh]
	 SCS Total Energy          =    -568.3330030248313278 [Eh]
	-----------------------------------------------------------

  Dipole Moment: [D]
     X:    -1.3413      Y:     1.7784      Z:     0.1736     Total:     2.2342

*** Psi4 exiting successfully. Buy a developer a beer!
