                               Psi4 1.3.2 release

  ==> Input File <==

--------------------------------------------------------------------------
#psi4
#
memory 32 gb

molecule  {
-2 1
  O       -1.2362950     1.7303800    -0.2239510
  O        2.6794370    -1.1261430    -0.8901160
  O        3.7000480     0.2611620     0.6076450
  O       -3.2904550    -0.3020480    -0.9006360
  O       -2.5973840    -0.9175860     1.2002500
  C        0.1162890    -0.2520540     0.0602520
  C        1.3712430     0.6068110     0.1462360
  C       -1.1988410     0.5019860    -0.0558080
  C        2.7080760    -0.1725680    -0.0543080
  C       -2.6232372    -0.3223217    -0.0733244
  H        0.0210760    -0.9244250     0.9209780
  H        0.2133690    -0.9136840    -0.8118550
  H        1.4153100     1.1406480     1.1027450
  H        1.3130670     1.3830990    -0.6295990
units angstrom
no_reorient  #important for SAPT in psi4, default
symmetry c1  #important for SAPT in psi4, default
}

set PROPERTIES_ORIGIN ["COM"]
properties('MP2/aug-cc-pvtz', properties = ['dipole'])
--------------------------------------------------------------------------

    Molecular point group: c1
  Charge       = -2
  Multiplicity = 1
  Basis Set: AUG-CC-PVTZ
    Blend: AUG-CC-PVTZ
  Basis Set: (AUG-CC-PVTZ AUX)
    Blend: AUG-CC-PVTZ-JKFIT

    Orbital Energies [Eh]
    ---------------------

    Doubly Occupied:

       1A    -20.276703     2A    -20.274798     3A    -20.205871
       4A    -20.205171     5A    -20.196908     6A    -11.065056
       7A    -11.056172     8A    -11.048426     9A    -10.961222
      10A    -10.951734    11A     -1.230982    12A     -1.098654
      13A     -1.071319    14A     -0.973057    15A     -0.945027
      16A     -0.778874    17A     -0.642240    18A     -0.533678
      19A     -0.450244    20A     -0.429694    21A     -0.404336
      22A     -0.368146    23A     -0.361580    24A     -0.350699
      25A     -0.341416    26A     -0.314982    27A     -0.299656
      28A     -0.276424    29A     -0.249414    30A     -0.224546
      31A     -0.207417    32A     -0.205989    33A     -0.132600
      34A     -0.120301    35A     -0.115923    36A     -0.108991
      37A     -0.106765    38A     -0.067471

  @DF-RHF Final Energy:  -566.12213699830465

   => Energetics <=

    Nuclear Repulsion Energy =            479.3756622538286933
    One-Electron Energy =               -1753.6906313067452174
    Two-Electron Energy =                 708.1928320546118130
    Total Energy =                       -566.1221369983046543
  Basis Set: (AUG-CC-PVTZ AUX)
    Blend: AUG-CC-PVTZ-RI
    Molecular point group: c1

    Geometry (in Angstrom), charge = -2, multiplicity = 1:

       Center              X                  Y                   Z               Mass
    ------------   -----------------  -----------------  -----------------  -----------------
         O           -1.205447415111     1.734773680804    -0.206976137974    15.994914619570
         O            2.710284584889    -1.121749319196    -0.873141137974    15.994914619570
         O            3.730895584889     0.265555680804     0.624619862026    15.994914619570
         O           -3.259607415111    -0.297654319196    -0.883661137974    15.994914619570
         O           -2.566536415111    -0.913192319196     1.217224862026    15.994914619570
         C            0.147136584889    -0.247660319196     0.077226862026    12.000000000000
         C            1.402090584889     0.611204680804     0.163210862026    12.000000000000
         C           -1.167993415111     0.506379680804    -0.038833137974    12.000000000000
         C            2.738923584889    -0.168174319196    -0.037333137974    12.000000000000
         C           -2.592389615111    -0.317928019196    -0.056349537974    12.000000000000
         H            0.051923584889    -0.920031319196     0.937952862026     1.007825032230
         H            0.244216584889    -0.909290319196    -0.794880137974     1.007825032230
         H            1.446157584889     1.145041680804     1.119719862026     1.007825032230
         H            1.343914584889     1.387492680804    -0.612624137974     1.007825032230

  Basis Set: AUG-CC-PVTZ
    Blend: AUG-CC-PVTZ
  Basis Set: (AUG-CC-PVTZ AUX)
    Blend: AUG-CC-PVTZ-JKFIT
	 Reference Energy          =    -566.1221369983046543 [Eh]
	 Singles Energy            =      -0.0000000000000000 [Eh]
	 Same-Spin Energy          =      -0.5566365834091165 [Eh]
	 Opposite-Spin Energy      =      -1.6323034395511256 [Eh]
	 Correlation Energy        =      -2.1889400229602423 [Eh]
	 Total Energy              =    -568.3110770212648504 [Eh]

	 ================> DF-SCS-MP2 Energies <==================
	-----------------------------------------------------------
	 SCS Same-Spin Scale       =       0.3333333333333333 [-]
	 SCS Opposite-Spin Scale   =       1.2000000000000000 [-]
	 SCS Same-Spin Energy      =      -0.1855455278030388 [Eh]
	 SCS Opposite-Spin Energy  =      -1.9587641274613505 [Eh]
	 SCS Correlation Energy    =      -2.1443096552643892 [Eh]
	 SCS Total Energy          =    -568.2664466535690053 [Eh]
	-----------------------------------------------------------

  Dipole Moment: [D]
     X:    -2.4372      Y:     2.2304      Z:    -1.6620     Total:     3.6983

*** Psi4 exiting successfully. Buy a developer a beer!
