                               Psi4 1.3.2 release

  ==> Input File <==

--------------------------------------------------------------------------
#psi4
#
memory 32 gb

molecule  {
-2 1
  O       -1.2362950     1.7303800    -0.2239510
  O        2.6794370    -1.1261430    -0.8901160
  O        3.7000480     0.2611620     0.6076450
  O       -3.2035897    -0.2218761    -0.9598369
  O       -2.5973840    -0.9175860     1.2002500
  C        0.1162890    -0.2520540     0.0602520
  C        1.3712430     0.6068110     0.1462360
  C       -1.1988410     0.5019860    -0.0558080
  C        2.7080760    -0.1725680    -0.0543080
  C       -2.4977060    -0.3261360     0.0823270
  H        0.0210760    -0.9244250     0.9209780
  H        0.2133690    -0.9136840    -0.8118550
  H        1.4153100     1.1406480     1.1027450
  H        1.3130670     1.3830990    -0.6295990
units angstrom
no_reorient  #important for SAPT in psi4, default
symmetry c1  #important for SAPT in psi4, default
}

set PROPERTIES_ORIGIN ["COM"]
properties('MP2/aug-cc-pvtz', properties = ['dipole'])
--------------------------------------------------------------------------

    Molecular point group: c1
  Charge       = -2
  Multiplicity = 1
  Basis Set: AUG-CC-PVTZ
    Blend: AUG-CC-PVTZ
  Basis Set: (AUG-CC-PVTZ AUX)
    Blend: AUG-CC-PVTZ-JKFIT

    Orbital Energies [Eh]
    ---------------------

    Doubly Occupied:

       1A    -20.282168     2A    -20.238002     3A    -20.234611
       4A    -20.208556     5A    -20.207705     6A    -11.074861
       7A    -11.062232     8A    -11.051251     9A    -10.966861
      10A    -10.955969    11A     -1.116827    12A     -1.083887
      13A     -1.073977    14A     -1.009711    15A     -0.975682
      16A     -0.786386    17A     -0.657664    18A     -0.553347
      19A     -0.437392    20A     -0.420338    21A     -0.381936
      22A     -0.367702    23A     -0.361243    24A     -0.335538
      25A     -0.323644    26A     -0.304625    27A     -0.284415
      28A     -0.273707    29A     -0.246571    30A     -0.227759
      31A     -0.212781    32A     -0.203385    33A     -0.155356
      34A     -0.134058    35A     -0.124923    36A     -0.114653
      37A     -0.109287    38A     -0.093192

  @DF-RHF Final Energy:  -566.18807904989330

   => Energetics <=

    Nuclear Repulsion Energy =            480.2873284486532839
    One-Electron Energy =               -1755.6464154044372208
    Two-Electron Energy =                 709.1710079058905194
    Total Energy =                       -566.1880790498933038
  Basis Set: (AUG-CC-PVTZ AUX)
    Blend: AUG-CC-PVTZ-RI
    Molecular point group: c1

    Geometry (in Angstrom), charge = -2, multiplicity = 1:

       Center              X                  Y                   Z               Mass
    ------------   -----------------  -----------------  -----------------  -----------------
         O           -1.225556160622     1.726186731760    -0.213371040060    15.994914619570
         O            2.690175839378    -1.130336268240    -0.879536040060    15.994914619570
         O            3.710786839378     0.256968731760     0.618224959940    15.994914619570
         O           -3.192850860622    -0.226069368240    -0.949256940060    15.994914619570
         O           -2.586645160622    -0.921779268240     1.210829959940    15.994914619570
         C            0.127027839378    -0.256247268240     0.070831959940    12.000000000000
         C            1.381981839378     0.602617731760     0.156815959940    12.000000000000
         C           -1.188102160622     0.497792731760    -0.045228040060    12.000000000000
         C            2.718814839378    -0.176761268240    -0.043728040060    12.000000000000
         C           -2.486967160622    -0.330329268240     0.092906959940    12.000000000000
         H            0.031814839378    -0.928618268240     0.931557959940     1.007825032230
         H            0.224107839378    -0.917877268240    -0.801275040060     1.007825032230
         H            1.426048839378     1.136454731760     1.113324959940     1.007825032230
         H            1.323805839378     1.378905731760    -0.619019040060     1.007825032230

  Basis Set: AUG-CC-PVTZ
    Blend: AUG-CC-PVTZ
  Basis Set: (AUG-CC-PVTZ AUX)
    Blend: AUG-CC-PVTZ-JKFIT
	 Reference Energy          =    -566.1880790498933038 [Eh]
	 Singles Energy            =      -0.0000000000000000 [Eh]
	 Same-Spin Energy          =      -0.5585308708937800 [Eh]
	 Opposite-Spin Energy      =      -1.6361915406498535 [Eh]
	 Correlation Energy        =      -2.1947224115436335 [Eh]
	 Total Energy              =    -568.3828014614368840 [Eh]

	 ================> DF-SCS-MP2 Energies <==================
	-----------------------------------------------------------
	 SCS Same-Spin Scale       =       0.3333333333333333 [-]
	 SCS Opposite-Spin Scale   =       1.2000000000000000 [-]
	 SCS Same-Spin Energy      =      -0.1861769569645933 [Eh]
	 SCS Opposite-Spin Energy  =      -1.9634298487798241 [Eh]
	 SCS Correlation Energy    =      -2.1496068057444173 [Eh]
	 SCS Total Energy          =    -568.3376858556376874 [Eh]
	-----------------------------------------------------------

  Dipole Moment: [D]
     X:    -1.5765      Y:     1.8403      Z:     0.3260     Total:     2.4451

*** Psi4 exiting successfully. Buy a developer a beer!
