                               Psi4 1.3.2 release

  ==> Input File <==

--------------------------------------------------------------------------
#psi4
#
memory 32 gb

molecule  {
-2 1
  O       -1.2362950     1.7303800    -0.2239510
  O        2.6794370    -1.1261430    -0.8901160
  O        3.7000480     0.2611620     0.6076450
  O       -3.2904550    -0.3020480    -0.9006360
  O       -2.5973840    -0.9175860     1.2002500
  C        0.1162890    -0.2520540     0.0602520
  C        1.3712430     0.6068110     0.1462360
  C       -1.1123420     0.4523911    -0.0481745
  C        2.7080760    -0.1725680    -0.0543080
  C       -2.4977060    -0.3261360     0.0823270
  H        0.0210760    -0.9244250     0.9209780
  H        0.2133690    -0.9136840    -0.8118550
  H        1.4153100     1.1406480     1.1027450
  H        1.3130670     1.3830990    -0.6295990
units angstrom
no_reorient  #important for SAPT in psi4, default
symmetry c1  #important for SAPT in psi4, default
}

set PROPERTIES_ORIGIN ["COM"]
properties('MP2/aug-cc-pvtz', properties = ['dipole'])
--------------------------------------------------------------------------

    Molecular point group: c1
  Charge       = -2
  Multiplicity = 1
  Basis Set: AUG-CC-PVTZ
    Blend: AUG-CC-PVTZ
  Basis Set: (AUG-CC-PVTZ AUX)
    Blend: AUG-CC-PVTZ-JKFIT

    Orbital Energies [Eh]
    ---------------------

    Doubly Occupied:

       1A    -20.282020     2A    -20.230293     3A    -20.229659
       4A    -20.212356     5A    -20.212162     6A    -11.075408
       7A    -11.073097     8A    -11.055522     9A    -10.971840
      10A    -10.961890    11A     -1.101123    12A     -1.078252
      13A     -1.065771    14A     -0.998383    15A     -0.979832
      16A     -0.811739    17A     -0.672575    18A     -0.545087
      19A     -0.445637    20A     -0.421906    21A     -0.383717
      22A     -0.374654    23A     -0.355589    24A     -0.328833
      25A     -0.326803    26A     -0.308120    27A     -0.286527
      28A     -0.273484    29A     -0.251125    30A     -0.225795
      31A     -0.208922    32A     -0.203654    33A     -0.145227
      34A     -0.129004    35A     -0.126893    36A     -0.118173
      37A     -0.113231    38A     -0.100170

  @DF-RHF Final Energy:  -566.17490240048244

   => Energetics <=

    Nuclear Repulsion Energy =            479.4323169168214349
    One-Electron Energy =               -1753.8454911195560726
    Two-Electron Energy =                 708.2382718022521431
    Total Energy =                       -566.1749024004824378
  Basis Set: (AUG-CC-PVTZ AUX)
    Blend: AUG-CC-PVTZ-RI
    Molecular point group: c1

    Geometry (in Angstrom), charge = -2, multiplicity = 1:

       Center              X                  Y                   Z               Mass
    ------------   -----------------  -----------------  -----------------  -----------------
         O           -1.223115877813     1.739224265947    -0.220582658014    15.994914619570
         O            2.692616122187    -1.117298734053    -0.886747658014    15.994914619570
         O            3.713227122187     0.270006265947     0.611013341986    15.994914619570
         O           -3.277275877813    -0.293203734053    -0.897267658014    15.994914619570
         O           -2.584204877813    -0.908741734053     1.203618341986    15.994914619570
         C            0.129468122187    -0.243209734053     0.063620341986    12.000000000000
         C            1.384422122187     0.615655265947     0.149604341986    12.000000000000
         C           -1.099162877813     0.461235365947    -0.044806158014    12.000000000000
         C            2.721255122187    -0.163723734053    -0.050939658014    12.000000000000
         C           -2.484526877813    -0.317291734053     0.085695341986    12.000000000000
         H            0.034255122187    -0.915580734053     0.924346341986     1.007825032230
         H            0.226548122187    -0.904839734053    -0.808486658014     1.007825032230
         H            1.428489122187     1.149492265947     1.106113341986     1.007825032230
         H            1.326246122187     1.391943265947    -0.626230658014     1.007825032230

  Basis Set: AUG-CC-PVTZ
    Blend: AUG-CC-PVTZ
  Basis Set: (AUG-CC-PVTZ AUX)
    Blend: AUG-CC-PVTZ-JKFIT
	 Reference Energy          =    -566.1749024004824378 [Eh]
	 Singles Energy            =      -0.0000000000000000 [Eh]
	 Same-Spin Energy          =      -0.5604129093865168 [Eh]
	 Opposite-Spin Energy      =      -1.6395000578334260 [Eh]
	 Correlation Energy        =      -2.1999129672199427 [Eh]
	 Total Energy              =    -568.3748153677023538 [Eh]

	 ================> DF-SCS-MP2 Energies <==================
	-----------------------------------------------------------
	 SCS Same-Spin Scale       =       0.3333333333333333 [-]
	 SCS Opposite-Spin Scale   =       1.2000000000000000 [-]
	 SCS Same-Spin Energy      =      -0.1868043031288389 [Eh]
	 SCS Opposite-Spin Energy  =      -1.9674000694001110 [Eh]
	 SCS Correlation Energy    =      -2.1542043725289499 [Eh]
	 SCS Total Energy          =    -568.3291067730114037 [Eh]
	-----------------------------------------------------------

  Dipole Moment: [D]
     X:    -0.8300      Y:     1.6517      Z:     0.2672     Total:     1.8677

*** Psi4 exiting successfully. Buy a developer a beer!
