                               Psi4 1.3.2 release

  ==> Input File <==

--------------------------------------------------------------------------
#psi4
#
memory 32 gb

molecule  {
-2 1
  O       -1.2362950     1.7303800    -0.2239510
  O        2.6794370    -1.1261430    -0.8901160
  O        3.7000480     0.2611620     0.6076450
  O       -3.2904550    -0.3020480    -0.9006360
  O       -2.5973840    -0.9175860     1.2002500
  C        0.1162890    -0.2520540     0.0602520
  C        1.3712430     0.6068110     0.1462360
  C       -1.1608942     0.5725406     0.0817005
  C        2.7080760    -0.1725680    -0.0543080
  C       -2.4977060    -0.3261360     0.0823270
  H        0.0210760    -0.9244250     0.9209780
  H        0.2133690    -0.9136840    -0.8118550
  H        1.4153100     1.1406480     1.1027450
  H        1.3130670     1.3830990    -0.6295990
units angstrom
no_reorient  #important for SAPT in psi4, default
symmetry c1  #important for SAPT in psi4, default
}

set PROPERTIES_ORIGIN ["COM"]
properties('MP2/aug-cc-pvtz', properties = ['dipole'])
--------------------------------------------------------------------------

    Molecular point group: c1
  Charge       = -2
  Multiplicity = 1
  Basis Set: AUG-CC-PVTZ
    Blend: AUG-CC-PVTZ
  Basis Set: (AUG-CC-PVTZ AUX)
    Blend: AUG-CC-PVTZ-JKFIT

    Orbital Energies [Eh]
    ---------------------

    Doubly Occupied:

       1A    -20.292738     2A    -20.229791     3A    -20.224933
       4A    -20.209821     5A    -20.209448     6A    -11.068675
       7A    -11.065729     8A    -11.052592     9A    -10.969532
      10A    -10.957650    11A     -1.141444    12A     -1.086426
      13A     -1.075495    14A     -0.995624    15A     -0.977189
      16A     -0.790104    17A     -0.652471    18A     -0.540190
      19A     -0.446442    20A     -0.421788    21A     -0.381079
      22A     -0.377949    23A     -0.364216    24A     -0.327294
      25A     -0.323983    26A     -0.307961    27A     -0.286882
      28A     -0.274521    29A     -0.252604    30A     -0.234614
      31A     -0.218196    32A     -0.213824    33A     -0.143986
      34A     -0.126063    35A     -0.124497    36A     -0.115293
      37A     -0.110796    38A     -0.084569

  @DF-RHF Final Energy:  -566.18138146825004

   => Energetics <=

    Nuclear Repulsion Energy =            479.3483945419739030
    One-Electron Energy =               -1753.7067344154261264
    Two-Electron Energy =                 708.1769584052021855
    Total Energy =                       -566.1813814682500379
  Basis Set: (AUG-CC-PVTZ AUX)
    Blend: AUG-CC-PVTZ-RI
    Molecular point group: c1

    Geometry (in Angstrom), charge = -2, multiplicity = 1:

       Center              X                  Y                   Z               Mass
    ------------   -----------------  -----------------  -----------------  -----------------
         O           -1.219070026162     1.729212215969    -0.231405133272    15.994914619570
         O            2.696661973838    -1.127310784031    -0.897570133272    15.994914619570
         O            3.717272973838     0.259994215969     0.600190866728    15.994914619570
         O           -3.273230026162    -0.303215784031    -0.908090133272    15.994914619570
         O           -2.580159026162    -0.918753784031     1.192795866728    15.994914619570
         C            0.133513973838    -0.253221784031     0.052797866728    12.000000000000
         C            1.388467973838     0.605643215969     0.138781866728    12.000000000000
         C           -1.143669226162     0.571372815969     0.074246366728    12.000000000000
         C            2.725300973838    -0.173735784031    -0.061762133272    12.000000000000
         C           -2.480481026162    -0.327303784031     0.074872866728    12.000000000000
         H            0.038300973838    -0.925592784031     0.913523866728     1.007825032230
         H            0.230593973838    -0.914851784031    -0.819309133272     1.007825032230
         H            1.432534973838     1.139480215969     1.095290866728     1.007825032230
         H            1.330291973838     1.381931215969    -0.637053133272     1.007825032230

  Basis Set: AUG-CC-PVTZ
    Blend: AUG-CC-PVTZ
  Basis Set: (AUG-CC-PVTZ AUX)
    Blend: AUG-CC-PVTZ-JKFIT
	 Reference Energy          =    -566.1813814682500379 [Eh]
	 Singles Energy            =      -0.0000000000000000 [Eh]
	 Same-Spin Energy          =      -0.5576435742538793 [Eh]
	 Opposite-Spin Energy      =      -1.6348224139171923 [Eh]
	 Correlation Energy        =      -2.1924659881710715 [Eh]
	 Total Energy              =    -568.3738474564211174 [Eh]

	 ================> DF-SCS-MP2 Energies <==================
	-----------------------------------------------------------
	 SCS Same-Spin Scale       =       0.3333333333333333 [-]
	 SCS Opposite-Spin Scale   =       1.2000000000000000 [-]
	 SCS Same-Spin Energy      =      -0.1858811914179598 [Eh]
	 SCS Opposite-Spin Energy  =      -1.9617868967006307 [Eh]
	 SCS Correlation Energy    =      -2.1476680881185906 [Eh]
	 SCS Total Energy          =    -568.3290495563686591 [Eh]
	-----------------------------------------------------------

  Dipole Moment: [D]
     X:    -1.1787      Y:     2.3375      Z:     0.3786     Total:     2.6451

*** Psi4 exiting successfully. Buy a developer a beer!
