                               Psi4 1.3.2 release

  ==> Input File <==

--------------------------------------------------------------------------
#psi4
#
memory 32 gb

molecule  {
-2 1
  O       -1.2362950     1.7303800    -0.2239510
  O        2.6794370    -1.1261430    -0.8901160
  O        3.7000480     0.2611620     0.6076450
  O       -3.2904550    -0.3020480    -0.9006360
  O       -2.5973840    -0.9175860     1.2002500
  C        0.1162890    -0.2520540     0.0602520
  C        1.2750245     0.7335684     0.1366215
  C       -1.1988410     0.5019860    -0.0558080
  C        2.7080760    -0.1725680    -0.0543080
  C       -2.4977060    -0.3261360     0.0823270
  H        0.0210760    -0.9244250     0.9209780
  H        0.2133690    -0.9136840    -0.8118550
  H        1.4153100     1.1406480     1.1027450
  H        1.3130670     1.3830990    -0.6295990
units angstrom
no_reorient  #important for SAPT in psi4, default
symmetry c1  #important for SAPT in psi4, default
}

set PROPERTIES_ORIGIN ["COM"]
properties('MP2/aug-cc-pvtz', properties = ['dipole'])
--------------------------------------------------------------------------

    Molecular point group: c1
  Charge       = -2
  Multiplicity = 1
  Basis Set: AUG-CC-PVTZ
    Blend: AUG-CC-PVTZ
  Basis Set: (AUG-CC-PVTZ AUX)
    Blend: AUG-CC-PVTZ-JKFIT

    Orbital Energies [Eh]
    ---------------------

    Doubly Occupied:

       1A    -20.286103     2A    -20.229914     3A    -20.228630
       4A    -20.212830     5A    -20.212713     6A    -11.069355
       7A    -11.065555     8A    -11.058133     9A    -10.969812
      10A    -10.950961    11A     -1.117379    12A     -1.084517
      13A     -1.073609    14A     -0.998162    15A     -0.977634
      16A     -0.788034    17A     -0.656296    18A     -0.552871
      19A     -0.438272    20A     -0.415162    21A     -0.384703
      22A     -0.373949    23A     -0.364694    24A     -0.328784
      25A     -0.316169    26A     -0.301552    27A     -0.285175
      28A     -0.274563    29A     -0.254576    30A     -0.243856
      31A     -0.223048    32A     -0.208883    33A     -0.145564
      34A     -0.128333    35A     -0.126331    36A     -0.112592
      37A     -0.107433    38A     -0.082963

  @DF-RHF Final Energy:  -566.17101365216081

   => Energetics <=

    Nuclear Repulsion Energy =            478.5012260366013379
    One-Electron Energy =               -1752.0462639229265278
    Two-Electron Energy =                 707.3740242341643807
    Total Energy =                       -566.1710136521608092
  Basis Set: (AUG-CC-PVTZ AUX)
    Blend: AUG-CC-PVTZ-RI
    Molecular point group: c1

    Geometry (in Angstrom), charge = -2, multiplicity = 1:

       Center              X                  Y                   Z               Mass
    ------------   -----------------  -----------------  -----------------  -----------------
         O           -1.207890040485     1.724528840319    -0.219145383302    15.994914619570
         O            2.707841959515    -1.131994159681    -0.885310383302    15.994914619570
         O            3.728452959515     0.255310840319     0.612450616698    15.994914619570
         O           -3.262050040485    -0.307899159681    -0.895830383302    15.994914619570
         O           -2.568979040485    -0.923437159681     1.205055616698    15.994914619570
         C            0.144693959515    -0.257905159681     0.065057616698    12.000000000000
         C            1.303429459515     0.727717240319     0.141427116698    12.000000000000
         C           -1.170436040485     0.496134840319    -0.051002383302    12.000000000000
         C            2.736480959515    -0.178419159681    -0.049502383302    12.000000000000
         C           -2.469301040485    -0.331987159681     0.087132616698    12.000000000000
         H            0.049480959515    -0.930276159681     0.925783616698     1.007825032230
         H            0.241773959515    -0.919535159681    -0.807049383302     1.007825032230
         H            1.443714959515     1.134796840319     1.107550616698     1.007825032230
         H            1.341471959515     1.377247840319    -0.624793383302     1.007825032230

  Basis Set: AUG-CC-PVTZ
    Blend: AUG-CC-PVTZ
  Basis Set: (AUG-CC-PVTZ AUX)
    Blend: AUG-CC-PVTZ-JKFIT
	 Reference Energy          =    -566.1710136521608092 [Eh]
	 Singles Energy            =      -0.0000000000000000 [Eh]
	 Same-Spin Energy          =      -0.5589152994166551 [Eh]
	 Opposite-Spin Energy      =      -1.6370745591908733 [Eh]
	 Correlation Energy        =      -2.1959898586075282 [Eh]
	 Total Energy              =    -568.3670035107683134 [Eh]

	 ================> DF-SCS-MP2 Energies <==================
	-----------------------------------------------------------
	 SCS Same-Spin Scale       =       0.3333333333333333 [-]
	 SCS Opposite-Spin Scale   =       1.2000000000000000 [-]
	 SCS Same-Spin Energy      =      -0.1863050998055517 [Eh]
	 SCS Opposite-Spin Energy  =      -1.9644894710290479 [Eh]
	 SCS Correlation Energy    =      -2.1507945708345995 [Eh]
	 SCS Total Energy          =    -568.3218082229954007 [Eh]
	-----------------------------------------------------------

  Dipole Moment: [D]
     X:    -1.0679      Y:     2.0200      Z:     0.1904     Total:     2.2928

*** Psi4 exiting successfully. Buy a developer a beer!
