                               Psi4 1.3.2 release

  ==> Input File <==

--------------------------------------------------------------------------
#psi4
#
memory 32 gb

molecule  {
-2 1
  O       -1.2362950     1.7303800    -0.2239510
  O        2.6794370    -1.1261430    -0.8901160
  O        3.7000480     0.2611620     0.6076450
  O       -3.2904550    -0.3020480    -0.9006360
  O       -2.5973840    -0.9175860     1.2002500
  C        0.1162890    -0.2520540     0.0602520
  C        1.3712430     0.6068110     0.1462360
  C       -1.1988410     0.5019860    -0.0558080
  C        2.7080760    -0.1725680    -0.0543080
  C       -2.3721748    -0.3299503     0.2379784
  H        0.0210760    -0.9244250     0.9209780
  H        0.2133690    -0.9136840    -0.8118550
  H        1.4153100     1.1406480     1.1027450
  H        1.3130670     1.3830990    -0.6295990
units angstrom
no_reorient  #important for SAPT in psi4, default
symmetry c1  #important for SAPT in psi4, default
}

set PROPERTIES_ORIGIN ["COM"]
properties('MP2/aug-cc-pvtz', properties = ['dipole'])
--------------------------------------------------------------------------

    Molecular point group: c1
  Charge       = -2
  Multiplicity = 1
  Basis Set: AUG-CC-PVTZ
    Blend: AUG-CC-PVTZ
  Basis Set: (AUG-CC-PVTZ AUX)
    Blend: AUG-CC-PVTZ-JKFIT

    Orbital Energies [Eh]
    ---------------------

    Doubly Occupied:

       1A    -20.295995     2A    -20.268470     3A    -20.213203
       4A    -20.212259     5A    -20.192302     6A    -11.078539
       7A    -11.069857     8A    -11.056383     9A    -10.976699
      10A    -10.963309    11A     -1.164623    12A     -1.115373
      13A     -1.078678    14A     -0.980303    15A     -0.911163
      16A     -0.799503    17A     -0.684023    18A     -0.578000
      19A     -0.447484    20A     -0.430760    21A     -0.405031
      22A     -0.379217    23A     -0.373998    24A     -0.332250
      25A     -0.329183    26A     -0.309877    27A     -0.293187
      28A     -0.285236    29A     -0.254332    30A     -0.234129
      31A     -0.220140    32A     -0.205136    33A     -0.130238
      34A     -0.121678    35A     -0.113838    36A     -0.111550
      37A     -0.099734    38A     -0.094790

  @DF-RHF Final Energy:  -566.13961923008424

   => Energetics <=

    Nuclear Repulsion Energy =            480.4084829746507239
    One-Electron Energy =               -1755.4752662093710569
    Two-Electron Energy =                 708.9271640046360972
    Total Energy =                       -566.1396192300842358
  Basis Set: (AUG-CC-PVTZ AUX)
    Blend: AUG-CC-PVTZ-RI
    Molecular point group: c1

    Geometry (in Angstrom), charge = -2, multiplicity = 1:

       Center              X                  Y                   Z               Mass
    ------------   -----------------  -----------------  -----------------  -----------------
         O           -1.226368428487     1.735409371543    -0.232916979943    15.994914619570
         O            2.689363571513    -1.121113628457    -0.899081979943    15.994914619570
         O            3.709974571513     0.266191371543     0.598679020057    15.994914619570
         O           -3.280528428487    -0.297018628457    -0.909601979943    15.994914619570
         O           -2.587457428487    -0.912556628457     1.191284020057    15.994914619570
         C            0.126215571513    -0.247024628457     0.051286020057    12.000000000000
         C            1.381169571513     0.611840371543     0.137270020057    12.000000000000
         C           -1.188914428487     0.507015371543    -0.064773979943    12.000000000000
         C            2.718002571513    -0.167538628457    -0.063273979943    12.000000000000
         C           -2.362248228487    -0.324920928457     0.229012420057    12.000000000000
         H            0.031002571513    -0.919395628457     0.912012020057     1.007825032230
         H            0.223295571513    -0.908654628457    -0.820820979943     1.007825032230
         H            1.425236571513     1.145677371543     1.093779020057     1.007825032230
         H            1.322993571513     1.388128371543    -0.638564979943     1.007825032230

  Basis Set: AUG-CC-PVTZ
    Blend: AUG-CC-PVTZ
  Basis Set: (AUG-CC-PVTZ AUX)
    Blend: AUG-CC-PVTZ-JKFIT
	 Reference Energy          =    -566.1396192300842358 [Eh]
	 Singles Energy            =      -0.0000000000000000 [Eh]
	 Same-Spin Energy          =      -0.5604065614561824 [Eh]
	 Opposite-Spin Energy      =      -1.6409236348225602 [Eh]
	 Correlation Energy        =      -2.2013301962787426 [Eh]
	 Total Energy              =    -568.3409494263629540 [Eh]

	 ================> DF-SCS-MP2 Energies <==================
	-----------------------------------------------------------
	 SCS Same-Spin Scale       =       0.3333333333333333 [-]
	 SCS Opposite-Spin Scale   =       1.2000000000000000 [-]
	 SCS Same-Spin Energy      =      -0.1868021871520608 [Eh]
	 SCS Opposite-Spin Energy  =      -1.9691083617870722 [Eh]
	 SCS Correlation Energy    =      -2.1559105489391328 [Eh]
	 SCS Total Energy          =    -568.2955297790233544 [Eh]
	-----------------------------------------------------------

  Dipole Moment: [D]
     X:    -0.2997      Y:     1.7942      Z:     1.9899     Total:     2.6961

*** Psi4 exiting successfully. Buy a developer a beer!
