                               Psi4 1.3.2 release

  ==> Input File <==

--------------------------------------------------------------------------
#psi4
#
memory 32 gb

molecule  {
-2 1
  O       -1.2795348     1.7284458    -0.2228759
  O        2.6794370    -1.1261430    -0.8901160
  O        3.7000480     0.2611620     0.6076450
  O       -3.2904550    -0.3020480    -0.9006360
  O       -2.5973840    -0.9175860     1.2002500
  C        0.1162890    -0.2520540     0.0602520
  C        1.3712430     0.6068110     0.1462360
  C       -1.1988410     0.5019860    -0.0558080
  C        2.7080760    -0.1725680    -0.0543080
  C       -2.4977060    -0.3261360     0.0823270
  H        0.0210760    -0.9244250     0.9209780
  H        0.2133690    -0.9136840    -0.8118550
  H        1.4153100     1.1406480     1.1027450
  H        1.3130670     1.3830990    -0.6295990
units angstrom
no_reorient  #important for SAPT in psi4, default
symmetry c1  #important for SAPT in psi4, default
}

set PROPERTIES_ORIGIN ["COM"]
properties('MP2/aug-cc-pvtz', properties = ['dipole'])
--------------------------------------------------------------------------

    Molecular point group: c1
  Charge       = -2
  Multiplicity = 1
  Basis Set: AUG-CC-PVTZ
    Blend: AUG-CC-PVTZ
  Basis Set: (AUG-CC-PVTZ AUX)
    Blend: AUG-CC-PVTZ-JKFIT

    Orbital Energies [Eh]
    ---------------------

    Doubly Occupied:

       1A    -20.288738     2A    -20.230161     3A    -20.228928
       4A    -20.210851     5A    -20.210137     6A    -11.070370
       7A    -11.069770     8A    -11.053951     9A    -10.972108
      10A    -10.959657    11A     -1.119289    12A     -1.084690
      13A     -1.076383    14A     -0.998476    15A     -0.978051
      16A     -0.791219    17A     -0.661750    18A     -0.556651
      19A     -0.441170    20A     -0.421619    21A     -0.381430
      22A     -0.370984    23A     -0.364046    24A     -0.330693
      25A     -0.325898    26A     -0.306600    27A     -0.285371
      28A     -0.273880    29A     -0.249181    30A     -0.230486
      31A     -0.215955    32A     -0.208039    33A     -0.145596
      34A     -0.128317    35A     -0.126160    36A     -0.117761
      37A     -0.111506    38A     -0.098418

  @DF-RHF Final Energy:  -566.19170740369191

   => Energetics <=

    Nuclear Repulsion Energy =            479.2485756691364145
    One-Electron Energy =               -1753.4919860517645702
    Two-Electron Energy =                 708.0517029789361914
    Total Energy =                       -566.1917074036919075
  Basis Set: (AUG-CC-PVTZ AUX)
    Blend: AUG-CC-PVTZ-RI
    Molecular point group: c1

    Geometry (in Angstrom), charge = -2, multiplicity = 1:

       Center              X                  Y                   Z               Mass
    ------------   -----------------  -----------------  -----------------  -----------------
         O           -1.254345022481     1.733372160216    -0.218990871676    15.994914619570
         O            2.704626777519    -1.121216639784    -0.886230971676    15.994914619570
         O            3.725237777519     0.266088360216     0.611530028324    15.994914619570
         O           -3.265265222481    -0.297121639784    -0.896750971676    15.994914619570
         O           -2.572194222481    -0.912659639784     1.204135028324    15.994914619570
         C            0.141478777519    -0.247127639784     0.064137028324    12.000000000000
         C            1.396432777519     0.611737360216     0.150121028324    12.000000000000
         C           -1.173651222481     0.506912360216    -0.051922971676    12.000000000000
         C            2.733265777519    -0.167641639784    -0.050422971676    12.000000000000
         C           -2.472516222481    -0.321209639784     0.086212028324    12.000000000000
         H            0.046265777519    -0.919498639784     0.924863028324     1.007825032230
         H            0.238558777519    -0.908757639784    -0.807969971676     1.007825032230
         H            1.440499777519     1.145574360216     1.106630028324     1.007825032230
         H            1.338256777519     1.388025360216    -0.625713971676     1.007825032230

  Basis Set: AUG-CC-PVTZ
    Blend: AUG-CC-PVTZ
  Basis Set: (AUG-CC-PVTZ AUX)
    Blend: AUG-CC-PVTZ-JKFIT
	 Reference Energy          =    -566.1917074036919075 [Eh]
	 Singles Energy            =      -0.0000000000000000 [Eh]
	 Same-Spin Energy          =      -0.5581926661657887 [Eh]
	 Opposite-Spin Energy      =      -1.6356903172448898 [Eh]
	 Correlation Energy        =      -2.1938829834106786 [Eh]
	 Total Energy              =    -568.3855903871026385 [Eh]

	 ================> DF-SCS-MP2 Energies <==================
	-----------------------------------------------------------
	 SCS Same-Spin Scale       =       0.3333333333333333 [-]
	 SCS Opposite-Spin Scale   =       1.2000000000000000 [-]
	 SCS Same-Spin Energy      =      -0.1860642220552629 [Eh]
	 SCS Opposite-Spin Energy  =      -1.9628283806938676 [Eh]
	 SCS Correlation Energy    =      -2.1488926027491306 [Eh]
	 SCS Total Energy          =    -568.3406000064410364 [Eh]
	-----------------------------------------------------------

  Dipole Moment: [D]
     X:    -1.1928      Y:     1.9966      Z:     0.2491     Total:     2.3390

*** Psi4 exiting successfully. Buy a developer a beer!
