                               Psi4 1.3.2 release

  ==> Input File <==

--------------------------------------------------------------------------
#psi4
#
memory 32 gb

molecule  {
-2 1
  O       -1.2362950     1.7303800    -0.2239510
  O        2.6794370    -1.1261430    -0.8901160
  O        3.7000480     0.2611620     0.6076450
  O       -3.3175243    -0.3288742    -0.8784736
  O       -2.5973840    -0.9175860     1.2002500
  C        0.1162890    -0.2520540     0.0602520
  C        1.3712430     0.6068110     0.1462360
  C       -1.1988410     0.5019860    -0.0558080
  C        2.7080760    -0.1725680    -0.0543080
  C       -2.4977060    -0.3261360     0.0823270
  H        0.0210760    -0.9244250     0.9209780
  H        0.2133690    -0.9136840    -0.8118550
  H        1.4153100     1.1406480     1.1027450
  H        1.3130670     1.3830990    -0.6295990
units angstrom
no_reorient  #important for SAPT in psi4, default
symmetry c1  #important for SAPT in psi4, default
}

set PROPERTIES_ORIGIN ["COM"]
properties('MP2/aug-cc-pvtz', properties = ['dipole'])
--------------------------------------------------------------------------

    Molecular point group: c1
  Charge       = -2
  Multiplicity = 1
  Basis Set: AUG-CC-PVTZ
    Blend: AUG-CC-PVTZ
  Basis Set: (AUG-CC-PVTZ AUX)
    Blend: AUG-CC-PVTZ-JKFIT

    Orbital Energies [Eh]
    ---------------------

    Doubly Occupied:

       1A    -20.290556     2A    -20.229343     3A    -20.229140
       4A    -20.210570     5A    -20.209795     6A    -11.072670
       7A    -11.071361     8A    -11.053630     9A    -10.971361
      10A    -10.959161    11A     -1.120323    12A     -1.087022
      13A     -1.076074    14A     -0.996501    15A     -0.977744
      16A     -0.790576    17A     -0.662658    18A     -0.558305
      19A     -0.441493    20A     -0.422103    21A     -0.382016
      22A     -0.371173    23A     -0.364980    24A     -0.330077
      25A     -0.325547    26A     -0.306274    27A     -0.285262
      28A     -0.274280    29A     -0.249502    30A     -0.230423
      31A     -0.216011    32A     -0.208347    33A     -0.143819
      34A     -0.128263    35A     -0.125405    36A     -0.117822
      37A     -0.111232    38A     -0.101301

  @DF-RHF Final Energy:  -566.19164763072456

   => Energetics <=

    Nuclear Repulsion Energy =            479.1319299819103321
    One-Electron Energy =               -1753.2429148794369667
    Two-Electron Energy =                 707.9193372668020174
    Total Energy =                       -566.1916476307245603
  Basis Set: (AUG-CC-PVTZ AUX)
    Blend: AUG-CC-PVTZ-RI
    Molecular point group: c1

    Geometry (in Angstrom), charge = -2, multiplicity = 1:

       Center              X                  Y                   Z               Mass
    ------------   -----------------  -----------------  -----------------  -----------------
         O           -1.212901300384     1.738071146163    -0.222408164779    15.994914619570
         O            2.702830699616    -1.118451853837    -0.888573164779    15.994914619570
         O            3.723441699616     0.268853146163     0.609187835221    15.994914619570
         O           -3.294130600384    -0.321183053837    -0.876930764779    15.994914619570
         O           -2.573990300384    -0.909894853837     1.201792835221    15.994914619570
         C            0.139682699616    -0.244362853837     0.061794835221    12.000000000000
         C            1.394636699616     0.614502146163     0.147778835221    12.000000000000
         C           -1.175447300384     0.509677146163    -0.054265164779    12.000000000000
         C            2.731469699616    -0.164876853837    -0.052765164779    12.000000000000
         C           -2.474312300384    -0.318444853837     0.083869835221    12.000000000000
         H            0.044469699616    -0.916733853837     0.922520835221     1.007825032230
         H            0.236762699616    -0.905992853837    -0.810312164779     1.007825032230
         H            1.438703699616     1.148339146163     1.104287835221     1.007825032230
         H            1.336460699616     1.390790146163    -0.628056164779     1.007825032230

  Basis Set: AUG-CC-PVTZ
    Blend: AUG-CC-PVTZ
  Basis Set: (AUG-CC-PVTZ AUX)
    Blend: AUG-CC-PVTZ-JKFIT
	 Reference Energy          =    -566.1916476307245603 [Eh]
	 Singles Energy            =      -0.0000000000000000 [Eh]
	 Same-Spin Energy          =      -0.5582321274524806 [Eh]
	 Opposite-Spin Energy      =      -1.6357755081571597 [Eh]
	 Correlation Energy        =      -2.1940076356096405 [Eh]
	 Total Energy              =    -568.3856552663341972 [Eh]

	 ================> DF-SCS-MP2 Energies <==================
	-----------------------------------------------------------
	 SCS Same-Spin Scale       =       0.3333333333333333 [-]
	 SCS Opposite-Spin Scale   =       1.2000000000000000 [-]
	 SCS Same-Spin Energy      =      -0.1860773758174935 [Eh]
	 SCS Opposite-Spin Energy  =      -1.9629306097885915 [Eh]
	 SCS Correlation Energy    =      -2.1490079856060849 [Eh]
	 SCS Total Energy          =    -568.3406556163306504 [Eh]
	-----------------------------------------------------------

  Dipole Moment: [D]
     X:    -1.2033      Y:     2.0485      Z:     0.2276     Total:     2.3866

*** Psi4 exiting successfully. Buy a developer a beer!
