                               Psi4 1.3.2 release

  ==> Input File <==

--------------------------------------------------------------------------
#psi4
#
memory 32 gb

molecule  {
-2 1
  O       -1.2362950     1.7303800    -0.2239510
  O        2.6794370    -1.1261430    -0.8901160
  O        3.7000480     0.2611620     0.6076450
  O       -3.2904550    -0.3020480    -0.9006360
  O       -2.5973840    -0.9175860     1.2002500
  C        0.1162890    -0.2520540     0.0602520
  C        1.3712430     0.6068110     0.1462360
  C       -1.1988410     0.5019860    -0.0558080
  C        2.7080760    -0.1725680    -0.0543080
  C       -2.5816889    -0.3796813     0.0912586
  H        0.0210760    -0.9244250     0.9209780
  H        0.2133690    -0.9136840    -0.8118550
  H        1.4153100     1.1406480     1.1027450
  H        1.3130670     1.3830990    -0.6295990
units angstrom
no_reorient  #important for SAPT in psi4, default
symmetry c1  #important for SAPT in psi4, default
}

set PROPERTIES_ORIGIN ["COM"]
properties('MP2/aug-cc-pvtz', properties = ['dipole'])
--------------------------------------------------------------------------

    Molecular point group: c1
  Charge       = -2
  Multiplicity = 1
  Basis Set: AUG-CC-PVTZ
    Blend: AUG-CC-PVTZ
  Basis Set: (AUG-CC-PVTZ AUX)
    Blend: AUG-CC-PVTZ-JKFIT

    Orbital Energies [Eh]
    ---------------------

    Doubly Occupied:

       1A    -20.277411     2A    -20.235929     3A    -20.235588
       4A    -20.207088     5A    -20.206250     6A    -11.072953
       7A    -11.055296     8A    -11.049525     9A    -10.963152
      10A    -10.953403    11A     -1.125293    12A     -1.092065
      13A     -1.072482    14A     -1.032796    15A     -0.974212
      16A     -0.781762    17A     -0.645409    18A     -0.528845
      19A     -0.434406    20A     -0.420530    21A     -0.385431
      22A     -0.363747    23A     -0.357974    24A     -0.345654
      25A     -0.322882    26A     -0.304913    27A     -0.293237
      28A     -0.276725    29A     -0.248111    30A     -0.226149
      31A     -0.211574    32A     -0.204909    33A     -0.162292
      34A     -0.141932    35A     -0.122934    36A     -0.111631
      37A     -0.107915    38A     -0.076128

  @DF-RHF Final Energy:  -566.18826751803977

   => Energetics <=

    Nuclear Repulsion Energy =            478.9191555541603975
    One-Electron Energy =               -1752.9577824576949752
    Two-Electron Energy =                 707.8503593854948122
    Total Energy =                       -566.1882675180397655
  Basis Set: (AUG-CC-PVTZ AUX)
    Blend: AUG-CC-PVTZ-RI
    Molecular point group: c1

    Geometry (in Angstrom), charge = -2, multiplicity = 1:

       Center              X                  Y                   Z               Mass
    ------------   -----------------  -----------------  -----------------  -----------------
         O           -1.208909632233     1.739553452521    -0.220690828603    15.994914619570
         O            2.706822367767    -1.116969547479    -0.886855828603    15.994914619570
         O            3.727433367767     0.270335452521     0.610905171397    15.994914619570
         O           -3.263069632233    -0.292874547479    -0.897375828603    15.994914619570
         O           -2.569998632233    -0.908412547479     1.203510171397    15.994914619570
         C            0.143674367767    -0.242880547479     0.063512171397    12.000000000000
         C            1.398628367767     0.615984452521     0.149496171397    12.000000000000
         C           -1.171455632233     0.511159452521    -0.052547828603    12.000000000000
         C            2.735461367767    -0.163394547479    -0.051047828603    12.000000000000
         C           -2.554303532233    -0.370507847479     0.094518771397    12.000000000000
         H            0.048461367767    -0.915251547479     0.924238171397     1.007825032230
         H            0.240754367767    -0.904510547479    -0.808594828603     1.007825032230
         H            1.442695367767     1.149821452521     1.106005171397     1.007825032230
         H            1.340452367767     1.392272452521    -0.626338828603     1.007825032230

  Basis Set: AUG-CC-PVTZ
    Blend: AUG-CC-PVTZ
  Basis Set: (AUG-CC-PVTZ AUX)
    Blend: AUG-CC-PVTZ-JKFIT
	 Reference Energy          =    -566.1882675180397655 [Eh]
	 Singles Energy            =      -0.0000000000000000 [Eh]
	 Same-Spin Energy          =      -0.5568986104958868 [Eh]
	 Opposite-Spin Energy      =      -1.6324752284026809 [Eh]
	 Correlation Energy        =      -2.1893738388985677 [Eh]
	 Total Energy              =    -568.3776413569382839 [Eh]

	 ================> DF-SCS-MP2 Energies <==================
	-----------------------------------------------------------
	 SCS Same-Spin Scale       =       0.3333333333333333 [-]
	 SCS Opposite-Spin Scale   =       1.2000000000000000 [-]
	 SCS Same-Spin Energy      =      -0.1856328701652956 [Eh]
	 SCS Opposite-Spin Energy  =      -1.9589702740832169 [Eh]
	 SCS Correlation Energy    =      -2.1446031442485127 [Eh]
	 SCS Total Energy          =    -568.3328706622883146 [Eh]
	-----------------------------------------------------------

  Dipole Moment: [D]
     X:    -1.8684      Y:     1.7271      Z:     0.2724     Total:     2.5589

*** Psi4 exiting successfully. Buy a developer a beer!
