                               Psi4 1.3.2 release

  ==> Input File <==

--------------------------------------------------------------------------
#psi4
#
memory 32 gb

molecule  {
-2 1
  O       -1.2362950     1.7303800    -0.2239510
  O        2.6794370    -1.1261430    -0.8901160
  O        3.7000480     0.2611620     0.6076450
  O       -3.2327418    -0.2497552    -0.9419463
  O       -2.5973840    -0.9175860     1.2002500
  C        0.1162890    -0.2520540     0.0602520
  C        1.3712430     0.6068110     0.1462360
  C       -1.1988410     0.5019860    -0.0558080
  C        2.7080760    -0.1725680    -0.0543080
  C       -2.4977060    -0.3261360     0.0823270
  H        0.0210760    -0.9244250     0.9209780
  H        0.2133690    -0.9136840    -0.8118550
  H        1.4153100     1.1406480     1.1027450
  H        1.3130670     1.3830990    -0.6295990
units angstrom
no_reorient  #important for SAPT in psi4, default
symmetry c1  #important for SAPT in psi4, default
}

set PROPERTIES_ORIGIN ["COM"]
properties('MP2/aug-cc-pvtz', properties = ['dipole'])
--------------------------------------------------------------------------

    Molecular point group: c1
  Charge       = -2
  Multiplicity = 1
  Basis Set: AUG-CC-PVTZ
    Blend: AUG-CC-PVTZ
  Basis Set: (AUG-CC-PVTZ AUX)
    Blend: AUG-CC-PVTZ-JKFIT

    Orbital Energies [Eh]
    ---------------------

    Doubly Occupied:

       1A    -20.284415     2A    -20.235899     3A    -20.233294
       4A    -20.209081     5A    -20.208249     6A    -11.073993
       7A    -11.064865     8A    -11.051872     9A    -10.968033
      10A    -10.956804    11A     -1.117536    12A     -1.084789
      13A     -1.074524    14A     -1.006550    15A     -0.976220
      16A     -0.787479    17A     -0.658962    18A     -0.554623
      19A     -0.438456    20A     -0.420773    21A     -0.381957
      22A     -0.368557    23A     -0.362280    24A     -0.334221
      25A     -0.324165    26A     -0.305089    27A     -0.284558
      28A     -0.273952    29A     -0.247366    30A     -0.228420
      31A     -0.213639    32A     -0.204697    33A     -0.152843
      34A     -0.132135    35A     -0.125552    36A     -0.115500
      37A     -0.109793    38A     -0.095468

  @DF-RHF Final Energy:  -566.18999088690282

   => Energetics <=

    Nuclear Repulsion Energy =            479.9632560339478573
    One-Electron Energy =               -1754.9732746732718169
    Two-Electron Energy =                 708.8200277524211970
    Total Energy =                       -566.1899908869028195
  Basis Set: (AUG-CC-PVTZ AUX)
    Blend: AUG-CC-PVTZ-RI
    Molecular point group: c1

    Geometry (in Angstrom), charge = -2, multiplicity = 1:

       Center              X                  Y                   Z               Mass
    ------------   -----------------  -----------------  -----------------  -----------------
         O           -1.222318199975     1.729283298686    -0.215358171648    15.994914619570
         O            2.693413800025    -1.127239701314    -0.881523171648    15.994914619570
         O            3.714024800025     0.260065298686     0.616237828352    15.994914619570
         O           -3.218764999975    -0.250851901314    -0.933353471648    15.994914619570
         O           -2.583407199975    -0.918682701314     1.208842828352    15.994914619570
         C            0.130265800025    -0.253150701314     0.068844828352    12.000000000000
         C            1.385219800025     0.605714298686     0.154828828352    12.000000000000
         C           -1.184864199975     0.500889298686    -0.047215171648    12.000000000000
         C            2.722052800025    -0.173664701314    -0.045715171648    12.000000000000
         C           -2.483729199975    -0.327232701314     0.090919828352    12.000000000000
         H            0.035052800025    -0.925521701314     0.929570828352     1.007825032230
         H            0.227345800025    -0.914780701314    -0.803262171648     1.007825032230
         H            1.429286800025     1.139551298686     1.111337828352     1.007825032230
         H            1.327043800025     1.382002298686    -0.621006171648     1.007825032230

  Basis Set: AUG-CC-PVTZ
    Blend: AUG-CC-PVTZ
  Basis Set: (AUG-CC-PVTZ AUX)
    Blend: AUG-CC-PVTZ-JKFIT
	 Reference Energy          =    -566.1899908869028195 [Eh]
	 Singles Energy            =      -0.0000000000000000 [Eh]
	 Same-Spin Energy          =      -0.5584055624651383 [Eh]
	 Opposite-Spin Energy      =      -1.6360000676407895 [Eh]
	 Correlation Energy        =      -2.1944056301059280 [Eh]
	 Total Energy              =    -568.3843965170087813 [Eh]

	 ================> DF-SCS-MP2 Energies <==================
	-----------------------------------------------------------
	 SCS Same-Spin Scale       =       0.3333333333333333 [-]
	 SCS Opposite-Spin Scale   =       1.2000000000000000 [-]
	 SCS Same-Spin Energy      =      -0.1861351874883794 [Eh]
	 SCS Opposite-Spin Energy  =      -1.9632000811689474 [Eh]
	 SCS Correlation Energy    =      -2.1493352686573268 [Eh]
	 SCS Total Energy          =    -568.3393261555601157 [Eh]
	-----------------------------------------------------------

  Dipole Moment: [D]
     X:    -1.4794      Y:     1.8947      Z:     0.3056     Total:     2.4232

*** Psi4 exiting successfully. Buy a developer a beer!
