                               Psi4 1.3.2 release

  ==> Input File <==

--------------------------------------------------------------------------
#psi4
#
memory 32 gb

molecule  {
-2 1
  O       -1.2362950     1.7303800    -0.2239510
  O        2.6794370    -1.1261430    -0.8901160
  O        3.7000480     0.2611620     0.6076450
  O       -3.2904550    -0.3020480    -0.9006360
  O       -2.5973840    -0.9175860     1.2002500
  C        0.1162890    -0.2520540     0.0602520
  C        1.4278090     0.5169882     0.1521284
  C       -1.1988410     0.5019860    -0.0558080
  C        2.7080760    -0.1725680    -0.0543080
  C       -2.4977060    -0.3261360     0.0823270
  H        0.0210760    -0.9244250     0.9209780
  H        0.2133690    -0.9136840    -0.8118550
  H        1.4153100     1.1406480     1.1027450
  H        1.3130670     1.3830990    -0.6295990
units angstrom
no_reorient  #important for SAPT in psi4, default
symmetry c1  #important for SAPT in psi4, default
}

set PROPERTIES_ORIGIN ["COM"]
properties('MP2/aug-cc-pvtz', properties = ['dipole'])
--------------------------------------------------------------------------

    Molecular point group: c1
  Charge       = -2
  Multiplicity = 1
  Basis Set: AUG-CC-PVTZ
    Blend: AUG-CC-PVTZ
  Basis Set: (AUG-CC-PVTZ AUX)
    Blend: AUG-CC-PVTZ-JKFIT

    Orbital Energies [Eh]
    ---------------------

    Doubly Occupied:

       1A    -20.290710     2A    -20.232912     3A    -20.232062
       4A    -20.208676     5A    -20.207203     6A    -11.074599
       7A    -11.073535     8A    -11.048638     9A    -10.972298
      10A    -10.966428    11A     -1.121073    12A     -1.087865
      13A     -1.078096    14A     -1.001363    15A     -0.977484
      16A     -0.791986    17A     -0.668449    18A     -0.563235
      19A     -0.440950    20A     -0.427420    21A     -0.382641
      22A     -0.371847    23A     -0.362079    24A     -0.336499
      25A     -0.329653    26A     -0.308743    27A     -0.286291
      28A     -0.274913    29A     -0.244251    30A     -0.225847
      31A     -0.208312    32A     -0.193598    33A     -0.148123
      34A     -0.130288    35A     -0.126573    36A     -0.122308
      37A     -0.110254    38A     -0.104873

  @DF-RHF Final Energy:  -566.18013819540829

   => Energetics <=

    Nuclear Repulsion Energy =            480.0997716509501174
    One-Electron Energy =               -1755.0956719871787755
    Two-Electron Energy =                 708.8157621408204250
    Total Energy =                       -566.1801381954082899
  Basis Set: (AUG-CC-PVTZ AUX)
    Blend: AUG-CC-PVTZ-RI
    Molecular point group: c1

    Geometry (in Angstrom), charge = -2, multiplicity = 1:

       Center              X                  Y                   Z               Mass
    ------------   -----------------  -----------------  -----------------  -----------------
         O           -1.220621562880     1.742576454224    -0.220437572265    15.994914619570
         O            2.695110437120    -1.113946545776    -0.886602572265    15.994914619570
         O            3.715721437120     0.273358454224     0.611158427735    15.994914619570
         O           -3.274781562880    -0.289851545776    -0.897122572265    15.994914619570
         O           -2.581710562880    -0.905389545776     1.203763427735    15.994914619570
         C            0.131962437120    -0.239857545776     0.063765427735    12.000000000000
         C            1.443482437120     0.529184654224     0.155641827735    12.000000000000
         C           -1.183167562880     0.514182454224    -0.052294572265    12.000000000000
         C            2.723749437120    -0.160371545776    -0.050794572265    12.000000000000
         C           -2.482032562880    -0.313939545776     0.085840427735    12.000000000000
         H            0.036749437120    -0.912228545776     0.924491427735     1.007825032230
         H            0.229042437120    -0.901487545776    -0.808341572265     1.007825032230
         H            1.430983437120     1.152844454224     1.106258427735     1.007825032230
         H            1.328740437120     1.395295454224    -0.626085572265     1.007825032230

  Basis Set: AUG-CC-PVTZ
    Blend: AUG-CC-PVTZ
  Basis Set: (AUG-CC-PVTZ AUX)
    Blend: AUG-CC-PVTZ-JKFIT
	 Reference Energy          =    -566.1801381954082899 [Eh]
	 Singles Energy            =      -0.0000000000000000 [Eh]
	 Same-Spin Energy          =      -0.5590173195642083 [Eh]
	 Opposite-Spin Energy      =      -1.6372061309668182 [Eh]
	 Correlation Energy        =      -2.1962234505310265 [Eh]
	 Total Energy              =    -568.3763616459393688 [Eh]

	 ================> DF-SCS-MP2 Energies <==================
	-----------------------------------------------------------
	 SCS Same-Spin Scale       =       0.3333333333333333 [-]
	 SCS Opposite-Spin Scale   =       1.2000000000000000 [-]
	 SCS Same-Spin Energy      =      -0.1863391065214028 [Eh]
	 SCS Opposite-Spin Energy  =      -1.9646473571601817 [Eh]
	 SCS Correlation Energy    =      -2.1509864636815843 [Eh]
	 SCS Total Energy          =    -568.3311246590898236 [Eh]
	-----------------------------------------------------------

  Dipole Moment: [D]
     X:    -1.4372      Y:     1.9357      Z:     0.2913     Total:     2.4284

*** Psi4 exiting successfully. Buy a developer a beer!
