                               Psi4 1.3.2 release

  ==> Input File <==

--------------------------------------------------------------------------
#psi4
#
memory 32 gb

molecule  {
-2 1
  O       -1.2362950     1.7303800    -0.2239510
  O        2.6794370    -1.1261430    -0.8901160
  O        3.7000480     0.2611620     0.6076450
  O       -3.3686348    -0.3824838    -0.8306656
  O       -2.5973840    -0.9175860     1.2002500
  C        0.1162890    -0.2520540     0.0602520
  C        1.3712430     0.6068110     0.1462360
  C       -1.1988410     0.5019860    -0.0558080
  C        2.7080760    -0.1725680    -0.0543080
  C       -2.4977060    -0.3261360     0.0823270
  H        0.0210760    -0.9244250     0.9209780
  H        0.2133690    -0.9136840    -0.8118550
  H        1.4153100     1.1406480     1.1027450
  H        1.3130670     1.3830990    -0.6295990
units angstrom
no_reorient  #important for SAPT in psi4, default
symmetry c1  #important for SAPT in psi4, default
}

set PROPERTIES_ORIGIN ["COM"]
properties('MP2/aug-cc-pvtz', properties = ['dipole'])
--------------------------------------------------------------------------

    Molecular point group: c1
  Charge       = -2
  Multiplicity = 1
  Basis Set: AUG-CC-PVTZ
    Blend: AUG-CC-PVTZ
  Basis Set: (AUG-CC-PVTZ AUX)
    Blend: AUG-CC-PVTZ-JKFIT

    Orbital Energies [Eh]
    ---------------------

    Doubly Occupied:

       1A    -20.294192     2A    -20.226196     3A    -20.224736
       4A    -20.211481     5A    -20.210742     6A    -11.077598
       7A    -11.069762     8A    -11.054709     9A    -10.973423
      10A    -10.960608    11A     -1.122516    12A     -1.088360
      13A     -1.077023    14A     -0.989297    15A     -0.978678
      16A     -0.792481    17A     -0.664945    18A     -0.560634
      19A     -0.443386    20A     -0.422984    21A     -0.382051
      22A     -0.372924    23A     -0.366401    24A     -0.328091
      25A     -0.325546    26A     -0.306769    27A     -0.285824
      28A     -0.274257    29A     -0.250683    30A     -0.231763
      31A     -0.217444    32A     -0.210497    33A     -0.136725
      34A     -0.129239    35A     -0.122541    36A     -0.118220
      37A     -0.112112    38A     -0.104413

  @DF-RHF Final Energy:  -566.18937488318375

   => Energetics <=

    Nuclear Repulsion Energy =            478.6978872221444590
    One-Electron Energy =               -1752.3360184374785149
    Two-Electron Energy =                 707.4487563321501966
    Total Energy =                       -566.1893748831837456
  Basis Set: (AUG-CC-PVTZ AUX)
    Blend: AUG-CC-PVTZ-RI
    Molecular point group: c1

    Geometry (in Angstrom), charge = -2, multiplicity = 1:

       Center              X                  Y                   Z               Mass
    ------------   -----------------  -----------------  -----------------  -----------------
         O           -1.207224392454     1.744025632294    -0.227718259854    15.994914619570
         O            2.708507607546    -1.112497367706    -0.893883259854    15.994914619570
         O            3.729118607546     0.274807632294     0.603877740146    15.994914619570
         O           -3.339564192454    -0.368838167706    -0.834432859854    15.994914619570
         O           -2.568313392454    -0.903940367706     1.196482740146    15.994914619570
         C            0.145359607546    -0.238408367706     0.056484740146    12.000000000000
         C            1.400313607546     0.620456632294     0.142468740146    12.000000000000
         C           -1.169770392454     0.515631632294    -0.059575259854    12.000000000000
         C            2.737146607546    -0.158922367706    -0.058075259854    12.000000000000
         C           -2.468635392454    -0.312490367706     0.078559740146    12.000000000000
         H            0.050146607546    -0.910779367706     0.917210740146     1.007825032230
         H            0.242439607546    -0.900038367706    -0.815622259854     1.007825032230
         H            1.444380607546     1.154293632294     1.098977740146     1.007825032230
         H            1.342137607546     1.396744632294    -0.633366259854     1.007825032230

  Basis Set: AUG-CC-PVTZ
    Blend: AUG-CC-PVTZ
  Basis Set: (AUG-CC-PVTZ AUX)
    Blend: AUG-CC-PVTZ-JKFIT
	 Reference Energy          =    -566.1893748831837456 [Eh]
	 Singles Energy            =      -0.0000000000000000 [Eh]
	 Same-Spin Energy          =      -0.5582754114557591 [Eh]
	 Opposite-Spin Energy      =      -1.6359071300222494 [Eh]
	 Correlation Energy        =      -2.1941825414780087 [Eh]
	 Total Energy              =    -568.3835574246617171 [Eh]

	 ================> DF-SCS-MP2 Energies <==================
	-----------------------------------------------------------
	 SCS Same-Spin Scale       =       0.3333333333333333 [-]
	 SCS Opposite-Spin Scale   =       1.2000000000000000 [-]
	 SCS Same-Spin Energy      =      -0.1860918038185864 [Eh]
	 SCS Opposite-Spin Energy  =      -1.9630885560266993 [Eh]
	 SCS Correlation Energy    =      -2.1491803598452854 [Eh]
	 SCS Total Energy          =    -568.3385552430290772 [Eh]
	-----------------------------------------------------------

  Dipole Moment: [D]
     X:    -1.0361      Y:     2.1478      Z:     0.1659     Total:     2.3904

*** Psi4 exiting successfully. Buy a developer a beer!
