                               Psi4 1.3.2 release

  ==> Input File <==

--------------------------------------------------------------------------
#psi4
#
memory 32 gb

molecule  {
-2 1
  O       -1.2362950     1.7303800    -0.2239510
  O        2.6794370    -1.1261430    -0.8901160
  O        3.7000480     0.2611620     0.6076450
  O       -3.2904550    -0.3020480    -0.9006360
  O       -2.5973840    -0.9175860     1.2002500
  C        0.1162890    -0.2520540     0.0602520
  C        1.3712430     0.6068110     0.1462360
  C       -1.0258430     0.4027962    -0.0405410
  C        2.7080760    -0.1725680    -0.0543080
  C       -2.4977060    -0.3261360     0.0823270
  H        0.0210760    -0.9244250     0.9209780
  H        0.2133690    -0.9136840    -0.8118550
  H        1.4153100     1.1406480     1.1027450
  H        1.3130670     1.3830990    -0.6295990
units angstrom
no_reorient  #important for SAPT in psi4, default
symmetry c1  #important for SAPT in psi4, default
}

set PROPERTIES_ORIGIN ["COM"]
properties('MP2/aug-cc-pvtz', properties = ['dipole'])
--------------------------------------------------------------------------

    Molecular point group: c1
  Charge       = -2
  Multiplicity = 1
  Basis Set: AUG-CC-PVTZ
    Blend: AUG-CC-PVTZ
  Basis Set: (AUG-CC-PVTZ AUX)
    Blend: AUG-CC-PVTZ-JKFIT

    Orbital Energies [Eh]
    ---------------------

    Doubly Occupied:

       1A    -20.273091     2A    -20.229548     3A    -20.229492
       4A    -20.215210     5A    -20.214741     6A    -11.079635
       7A    -11.074045     8A    -11.058084     9A    -10.971325
      10A    -10.965500    11A     -1.094924    12A     -1.080968
      13A     -1.034542    14A     -0.997385    15A     -0.982547
      16A     -0.840016    17A     -0.684805    18A     -0.530460
      19A     -0.453773    20A     -0.425050    21A     -0.392121
      22A     -0.376852    23A     -0.347683    24A     -0.327802
      25A     -0.326429    26A     -0.311376    27A     -0.288292
      28A     -0.272569    29A     -0.254038    30A     -0.228003
      31A     -0.200002    32A     -0.185860    33A     -0.143635
      34A     -0.130937    35A     -0.126554    36A     -0.119341
      37A     -0.115866    38A     -0.095541

  @DF-RHF Final Energy:  -566.13155200670826

   => Energetics <=

    Nuclear Repulsion Energy =            479.6287549168685018
    One-Electron Energy =               -1754.1645225361319262
    Two-Electron Energy =                 708.4042156125551628
    Total Energy =                       -566.1315520067082616
  Basis Set: (AUG-CC-PVTZ AUX)
    Blend: AUG-CC-PVTZ-RI
    Molecular point group: c1

    Geometry (in Angstrom), charge = -2, multiplicity = 1:

       Center              X                  Y                   Z               Mass
    ------------   -----------------  -----------------  -----------------  -----------------
         O           -1.230323833827     1.743357005722    -0.221218757070    15.994914619570
         O            2.685408166173    -1.113165994278    -0.887383757070    15.994914619570
         O            3.706019166173     0.274139005722     0.610377242930    15.994914619570
         O           -3.284483833827    -0.289070994278    -0.897903757070    15.994914619570
         O           -2.591412833827    -0.904608994278     1.202982242930    15.994914619570
         C            0.122260166173    -0.239076994278     0.062984242930    12.000000000000
         C            1.377214166173     0.619788005722     0.148968242930    12.000000000000
         C           -1.019871833827     0.415773205722    -0.037808757070    12.000000000000
         C            2.714047166173    -0.159590994278    -0.051575757070    12.000000000000
         C           -2.491734833827    -0.313158994278     0.085059242930    12.000000000000
         H            0.027047166173    -0.911447994278     0.923710242930     1.007825032230
         H            0.219340166173    -0.900706994278    -0.809122757070     1.007825032230
         H            1.421281166173     1.153625005722     1.105477242930     1.007825032230
         H            1.319038166173     1.396076005722    -0.626866757070     1.007825032230

  Basis Set: AUG-CC-PVTZ
    Blend: AUG-CC-PVTZ
  Basis Set: (AUG-CC-PVTZ AUX)
    Blend: AUG-CC-PVTZ-JKFIT
	 Reference Energy          =    -566.1315520067082616 [Eh]
	 Singles Energy            =      -0.0000000000000000 [Eh]
	 Same-Spin Energy          =      -0.5636233610519015 [Eh]
	 Opposite-Spin Energy      =      -1.6448532182254647 [Eh]
	 Correlation Energy        =      -2.2084765792773662 [Eh]
	 Total Energy              =    -568.3400285859855785 [Eh]

	 ================> DF-SCS-MP2 Energies <==================
	-----------------------------------------------------------
	 SCS Same-Spin Scale       =       0.3333333333333333 [-]
	 SCS Opposite-Spin Scale   =       1.2000000000000000 [-]
	 SCS Same-Spin Energy      =      -0.1878744536839672 [Eh]
	 SCS Opposite-Spin Energy  =      -1.9738238618705575 [Eh]
	 SCS Correlation Energy    =      -2.1616983155545246 [Eh]
	 SCS Total Energy          =    -568.2932503222627929 [Eh]
	-----------------------------------------------------------

  Dipole Moment: [D]
     X:    -0.4007      Y:     1.2818      Z:     0.2775     Total:     1.3714

*** Psi4 exiting successfully. Buy a developer a beer!
