                               Psi4 1.4a3.dev225

  ==> Input File <==

--------------------------------------------------------------------------
#psi4
#
memory 32 gb

molecule  {
-2 1
  O        1.2418990     1.7387210     0.0152810
  O       -2.6413570    -1.2266940     0.7274850
  O       -3.7043420     0.3864070    -0.4664210
  O        3.4703830     0.1255600     0.5711880
  O        2.3854260    -1.4395470    -0.6909830
  C       -0.1276340    -0.2366180    -0.0826630
  C       -1.3618580     0.6471040    -0.0555340
  C        1.2298725     0.5291904    -0.0309293
  C       -2.6840850    -0.1418490     0.0703610
  C        2.4800850    -0.3523600    -0.0479140
  H       -0.1095280    -0.8768510    -0.9719090
  H       -0.1594520    -0.9384420     0.7596660
  H       -1.4090040     1.2787430    -0.9482840
  H       -1.2952160     1.3354770     0.7981610
units angstrom
no_reorient  #important for SAPT in psi4, default
symmetry c1  #important for SAPT in psi4, default
}

set PROPERTIES_ORIGIN ["COM"]
properties('MP2/aug-cc-pvtz', properties = ['dipole'])
--------------------------------------------------------------------------

    Molecular point group: c1
  Charge       = -2
  Multiplicity = 1
  Basis Set: AUG-CC-PVTZ
    Blend: AUG-CC-PVTZ
  Basis Set: (AUG-CC-PVTZ AUX)
    Blend: AUG-CC-PVTZ-JKFIT

    Orbital Energies [Eh]
    ---------------------

    Doubly Occupied:

       1A    -20.293021     2A    -20.228531     3A    -20.225588
       4A    -20.204952     5A    -20.203398     6A    -11.066477
       7A    -11.064194     8A    -11.046777     9A    -10.962600
      10A    -10.953795    11A     -1.136214    12A     -1.088988
      13A     -1.071939    14A     -0.996292    15A     -0.971235
      16A     -0.780773    17A     -0.656519    18A     -0.558799
      19A     -0.439221    20A     -0.420379    21A     -0.381420
      22A     -0.370027    23A     -0.366343    24A     -0.328623
      25A     -0.318228    26A     -0.300930    27A     -0.295090
      28A     -0.268964    29A     -0.240828    30A     -0.232655
      31A     -0.213849    32A     -0.202843    33A     -0.142550
      34A     -0.125596    35A     -0.121108    36A     -0.114502
      37A     -0.105668    38A     -0.098499

  @DF-RHF Final Energy:  -566.18971149884021

   => Energetics <=

    Nuclear Repulsion Energy =            481.7942255601565762
    One-Electron Energy =               -1758.7730464703888629
    Two-Electron Energy =                 710.7891094113921326
    Total Energy =                       -566.1897114988402109
  Basis Set: (AUG-CC-PVTZ AUX)
    Blend: AUG-CC-PVTZ-RI
    Molecular point group: c1

    Geometry (in Angstrom), charge = -2, multiplicity = 1:

       Center              X                  Y                   Z               Mass
    ------------   -----------------  -----------------  -----------------  -----------------
         O            1.217813729833     1.742164938183     0.012651588091    15.994914619570
         O           -2.665442270167    -1.223250061817     0.724855588091    15.994914619570
         O           -3.728427270167     0.389850938183    -0.469050411909    15.994914619570
         O            3.446297729833     0.129003938183     0.568558588091    15.994914619570
         O            2.361340729833    -1.436103061817    -0.693612411909    15.994914619570
         C           -0.151719270167    -0.233174061817    -0.085292411909    12.000000000000
         C           -1.385943270167     0.650547938183    -0.058163411909    12.000000000000
         C            1.205787229833     0.532634338183    -0.033558711909    12.000000000000
         C           -2.708170270167    -0.138405061817     0.067731588091    12.000000000000
         C            2.455999729833    -0.348916061817    -0.050543411909    12.000000000000
         H           -0.133613270167    -0.873407061817    -0.974538411909     1.007825032230
         H           -0.183537270167    -0.934998061817     0.757036588091     1.007825032230
         H           -1.433089270167     1.282186938183    -0.950913411909     1.007825032230
         H           -1.319301270167     1.338920938183     0.795531588091     1.007825032230

  Basis Set: AUG-CC-PVTZ
    Blend: AUG-CC-PVTZ
  Basis Set: (AUG-CC-PVTZ AUX)
    Blend: AUG-CC-PVTZ-JKFIT
	 Reference Energy          =    -566.1897114988402109 [Eh]
	 Singles Energy            =      -0.0000000000000000 [Eh]
	 Same-Spin Energy          =      -0.5576969461547232 [Eh]
	 Opposite-Spin Energy      =      -1.6346876571462974 [Eh]
	 Correlation Energy        =      -2.1923846033010204 [Eh]
	 Total Energy              =    -568.3820961021411904 [Eh]

	 ================> DF-SCS-MP2 Energies <==================
	-----------------------------------------------------------
	 SCS Same-Spin Scale       =       0.3333333333333333 [-]
	 SCS Opposite-Spin Scale   =       1.2000000000000000 [-]
	 SCS Same-Spin Energy      =      -0.1858989820515744 [Eh]
	 SCS Opposite-Spin Energy  =      -1.9616251885755567 [Eh]
	 SCS Correlation Energy    =      -2.1475241706271309 [Eh]
	 SCS Total Energy          =    -568.3372356694673044 [Eh]
	-----------------------------------------------------------

  Dipole Moment: [D]
     X:     1.5637      Y:     2.3151      Z:    -0.3876     Total:     2.8205

*** Psi4 exiting successfully. Buy a developer a beer!
