                               Psi4 1.4a3.dev225

  ==> Input File <==

--------------------------------------------------------------------------
#psi4
#
memory 32 gb

molecule  {
-2 1
  O        1.2418990     1.7387210     0.0152810
  O       -2.6413570    -1.2266940     0.7274850
  O       -3.7043420     0.3864070    -0.4664210
  O        3.4703830     0.1255600     0.5711880
  O        2.3854260    -1.4395470    -0.6909830
  C       -0.1276340    -0.2366180    -0.0826630
  C       -1.3618580     0.6471040    -0.0555340
  C        1.1841013     0.4547250    -0.0345240
  C       -2.6840850    -0.1418490     0.0703610
  C        2.4800850    -0.3523600    -0.0479140
  H       -0.1095280    -0.8768510    -0.9719090
  H       -0.1594520    -0.9384420     0.7596660
  H       -1.4090040     1.2787430    -0.9482840
  H       -1.2952160     1.3354770     0.7981610
units angstrom
no_reorient  #important for SAPT in psi4, default
symmetry c1  #important for SAPT in psi4, default
}

set PROPERTIES_ORIGIN ["COM"]
properties('MP2/aug-cc-pvtz', properties = ['dipole'])
--------------------------------------------------------------------------

    Molecular point group: c1
  Charge       = -2
  Multiplicity = 1
  Basis Set: AUG-CC-PVTZ
    Blend: AUG-CC-PVTZ
  Basis Set: (AUG-CC-PVTZ AUX)
    Blend: AUG-CC-PVTZ-JKFIT

    Orbital Energies [Eh]
    ---------------------

    Doubly Occupied:

       1A    -20.286252     2A    -20.229148     3A    -20.226702
       4A    -20.207166     5A    -20.205947     6A    -11.070843
       7A    -11.069407     8A    -11.049316     9A    -10.967335
      10A    -10.957493    11A     -1.106063    12A     -1.074538
      13A     -1.070541    14A     -0.997358    15A     -0.973645
      16A     -0.795306    17A     -0.669742    18A     -0.561961
      19A     -0.438348    20A     -0.417917    21A     -0.380152
      22A     -0.371510    23A     -0.359987    24A     -0.328332
      25A     -0.320147    26A     -0.299643    27A     -0.293734
      28A     -0.269037    29A     -0.240936    30A     -0.222117
      31A     -0.206463    32A     -0.200236    33A     -0.143035
      34A     -0.129060    35A     -0.122128    36A     -0.117307
      37A     -0.108820    38A     -0.106652

  @DF-RHF Final Energy:  -566.18014391162785

   => Energetics <=

    Nuclear Repulsion Energy =            481.6985271356362546
    One-Electron Energy =               -1758.5686955753249094
    Two-Electron Energy =                 710.6900245280609170
    Total Energy =                       -566.1801439116278516
  Basis Set: (AUG-CC-PVTZ AUX)
    Blend: AUG-CC-PVTZ-RI
    Molecular point group: c1

    Geometry (in Angstrom), charge = -2, multiplicity = 1:

       Center              X                  Y                   Z               Mass
    ------------   -----------------  -----------------  -----------------  -----------------
         O            1.221627840936     1.748370135096     0.012951134207    15.994914619570
         O           -2.661628159064    -1.217044864904     0.725155134207    15.994914619570
         O           -3.724613159064     0.396056135096    -0.468750865793    15.994914619570
         O            3.450111840936     0.135209135096     0.568858134207    15.994914619570
         O            2.365154840936    -1.429897864904    -0.693312865793    15.994914619570
         C           -0.147905159064    -0.226968864904    -0.084992865793    12.000000000000
         C           -1.382129159064     0.656753135096    -0.057863865793    12.000000000000
         C            1.163830140936     0.464374135096    -0.036853865793    12.000000000000
         C           -2.704356159064    -0.132199864904     0.068031134207    12.000000000000
         C            2.459813840936    -0.342710864904    -0.050243865793    12.000000000000
         H           -0.129799159064    -0.867201864904    -0.974238865793     1.007825032230
         H           -0.179723159064    -0.928792864904     0.757336134207     1.007825032230
         H           -1.429275159064     1.288392135096    -0.950613865793     1.007825032230
         H           -1.315487159064     1.345126135096     0.795831134207     1.007825032230

  Basis Set: AUG-CC-PVTZ
    Blend: AUG-CC-PVTZ
  Basis Set: (AUG-CC-PVTZ AUX)
    Blend: AUG-CC-PVTZ-JKFIT
	 Reference Energy          =    -566.1801439116278516 [Eh]
	 Singles Energy            =      -0.0000000000000000 [Eh]
	 Same-Spin Energy          =      -0.5600447598076286 [Eh]
	 Opposite-Spin Energy      =      -1.6393139549455202 [Eh]
	 Correlation Energy        =      -2.1993587147531488 [Eh]
	 Total Energy              =    -568.3795026263810541 [Eh]

	 ================> DF-SCS-MP2 Energies <==================
	-----------------------------------------------------------
	 SCS Same-Spin Scale       =       0.3333333333333333 [-]
	 SCS Opposite-Spin Scale   =       1.2000000000000000 [-]
	 SCS Same-Spin Energy      =      -0.1866815866025429 [Eh]
	 SCS Opposite-Spin Energy  =      -1.9671767459346241 [Eh]
	 SCS Correlation Energy    =      -2.1538583325371667 [Eh]
	 SCS Total Energy          =    -568.3340022441650490 [Eh]
	-----------------------------------------------------------

  Dipole Moment: [D]
     X:     1.2479      Y:     1.9240      Z:    -0.3683     Total:     2.3226

*** Psi4 exiting successfully. Buy a developer a beer!
