                               Psi4 1.3.2 release

  ==> Input File <==

--------------------------------------------------------------------------
#psi4
#
memory 32 gb

molecule  {
-2 1
  O       -1.3226763     1.7250172    -0.2215972
  O        2.6794370    -1.1261430    -0.8901160
  O        3.7000480     0.2611620     0.6076450
  O       -3.2904550    -0.3020480    -0.9006360
  O       -2.5973840    -0.9175860     1.2002500
  C        0.1162890    -0.2520540     0.0602520
  C        1.3712430     0.6068110     0.1462360
  C       -1.1988410     0.5019860    -0.0558080
  C        2.7080760    -0.1725680    -0.0543080
  C       -2.4977060    -0.3261360     0.0823270
  H        0.0210760    -0.9244250     0.9209780
  H        0.2133690    -0.9136840    -0.8118550
  H        1.4153100     1.1406480     1.1027450
  H        1.3130670     1.3830990    -0.6295990
units angstrom
no_reorient  #important for SAPT in psi4, default
symmetry c1  #important for SAPT in psi4, default
}

set PROPERTIES_ORIGIN ["COM"]
properties('MP2/aug-cc-pvtz', properties = ['dipole'])
--------------------------------------------------------------------------

    Molecular point group: c1
  Charge       = -2
  Multiplicity = 1
  Basis Set: AUG-CC-PVTZ
    Blend: AUG-CC-PVTZ
  Basis Set: (AUG-CC-PVTZ AUX)
    Blend: AUG-CC-PVTZ-JKFIT

    Orbital Energies [Eh]
    ---------------------

    Doubly Occupied:

       1A    -20.288819     2A    -20.228717     3A    -20.227248
       4A    -20.211591     5A    -20.210953     6A    -11.069890
       7A    -11.068045     8A    -11.054807     9A    -10.973924
      10A    -10.960873    11A     -1.119360    12A     -1.083008
      13A     -1.077167    14A     -0.996973    15A     -0.978826
      16A     -0.792803    17A     -0.662046    18A     -0.556151
      19A     -0.441831    20A     -0.421579    21A     -0.380910
      22A     -0.371696    23A     -0.363856    24A     -0.330112
      25A     -0.326471    26A     -0.307223    27A     -0.285787
      28A     -0.273513    29A     -0.249492    30A     -0.231227
      31A     -0.216508    32A     -0.208720    33A     -0.144093
      34A     -0.128500    35A     -0.125486    36A     -0.118309
      37A     -0.112223    38A     -0.097139

  @DF-RHF Final Energy:  -566.19101898099859

   => Energetics <=

    Nuclear Repulsion Energy =            479.1429182055074421
    One-Electron Energy =               -1753.2761194710226391
    Two-Electron Energy =                 707.9421822845166616
    Total Energy =                       -566.1910189809985923
  Basis Set: (AUG-CC-PVTZ AUX)
    Blend: AUG-CC-PVTZ-RI
    Molecular point group: c1

    Geometry (in Angstrom), charge = -2, multiplicity = 1:

       Center              X                  Y                   Z               Mass
    ------------   -----------------  -----------------  -----------------  -----------------
         O           -1.292694741468     1.730324379157    -0.217854198504    15.994914619570
         O            2.709418558532    -1.120835820843    -0.886372998504    15.994914619570
         O            3.730029558532     0.266469179157     0.611388001496    15.994914619570
         O           -3.260473441468    -0.296740820843    -0.896892998504    15.994914619570
         O           -2.567402441468    -0.912278820843     1.203993001496    15.994914619570
         C            0.146270558532    -0.246746820843     0.063995001496    12.000000000000
         C            1.401224558532     0.612118179157     0.149979001496    12.000000000000
         C           -1.168859441468     0.507293179157    -0.052064998504    12.000000000000
         C            2.738057558532    -0.167260820843    -0.050564998504    12.000000000000
         C           -2.467724441468    -0.320828820843     0.086070001496    12.000000000000
         H            0.051057558532    -0.919117820843     0.924721001496     1.007825032230
         H            0.243350558532    -0.908376820843    -0.808111998504     1.007825032230
         H            1.445291558532     1.145955179157     1.106488001496     1.007825032230
         H            1.343048558532     1.388406179157    -0.625855998504     1.007825032230

  Basis Set: AUG-CC-PVTZ
    Blend: AUG-CC-PVTZ
  Basis Set: (AUG-CC-PVTZ AUX)
    Blend: AUG-CC-PVTZ-JKFIT
	 Reference Energy          =    -566.1910189809985923 [Eh]
	 Singles Energy            =      -0.0000000000000000 [Eh]
	 Same-Spin Energy          =      -0.5581541233316731 [Eh]
	 Opposite-Spin Energy      =      -1.6356380650322020 [Eh]
	 Correlation Energy        =      -2.1937921883638749 [Eh]
	 Total Energy              =    -568.3848111693624787 [Eh]

	 ================> DF-SCS-MP2 Energies <==================
	-----------------------------------------------------------
	 SCS Same-Spin Scale       =       0.3333333333333333 [-]
	 SCS Opposite-Spin Scale   =       1.2000000000000000 [-]
	 SCS Same-Spin Energy      =      -0.1860513744438910 [Eh]
	 SCS Opposite-Spin Energy  =      -1.9627656780386422 [Eh]
	 SCS Correlation Energy    =      -2.1488170524825332 [Eh]
	 SCS Total Energy          =    -568.3398360334811059 [Eh]
	-----------------------------------------------------------

  Dipole Moment: [D]
     X:    -1.0945      Y:     1.9986      Z:     0.2421     Total:     2.2915

*** Psi4 exiting successfully. Buy a developer a beer!
