                               Psi4 1.3.2 release

  ==> Input File <==

--------------------------------------------------------------------------
#psi4
#
memory 32 gb

molecule  {
-2 1
  O       -1.2362950     1.7303800    -0.2239510
  O        2.6794370    -1.1261430    -0.8901160
  O        3.7000480     0.2611620     0.6076450
  O       -3.2904550    -0.3020480    -0.9006360
  O       -2.5973840    -0.9175860     1.2002500
  C        0.1162890    -0.2520540     0.0602520
  C        1.3712430     0.6068110     0.1462360
  C       -1.1988410     0.5019860    -0.0558080
  C        2.7080760    -0.1725680    -0.0543080
  C       -2.5604716    -0.3242288     0.0045013
  H        0.0210760    -0.9244250     0.9209780
  H        0.2133690    -0.9136840    -0.8118550
  H        1.4153100     1.1406480     1.1027450
  H        1.3130670     1.3830990    -0.6295990
units angstrom
no_reorient  #important for SAPT in psi4, default
symmetry c1  #important for SAPT in psi4, default
}

set PROPERTIES_ORIGIN ["COM"]
properties('MP2/aug-cc-pvtz', properties = ['dipole'])
--------------------------------------------------------------------------

    Molecular point group: c1
  Charge       = -2
  Multiplicity = 1
  Basis Set: AUG-CC-PVTZ
    Blend: AUG-CC-PVTZ
  Basis Set: (AUG-CC-PVTZ AUX)
    Blend: AUG-CC-PVTZ-JKFIT

    Orbital Energies [Eh]
    ---------------------

    Doubly Occupied:

       1A    -20.283205     2A    -20.252174     3A    -20.213372
       4A    -20.208159     5A    -20.207418     6A    -11.069935
       7A    -11.064160     8A    -11.050958     9A    -10.966203
      10A    -10.955362    11A     -1.147481    12A     -1.101781
      13A     -1.073634    14A     -0.983682    15A     -0.975337
      16A     -0.784431    17A     -0.651404    18A     -0.544665
      19A     -0.438178    20A     -0.423561    21A     -0.391929
      22A     -0.365495    23A     -0.363141    24A     -0.336683
      25A     -0.324809    26A     -0.306304    27A     -0.294244
      28A     -0.278020    29A     -0.250078    30A     -0.228047
      31A     -0.211650    32A     -0.207773    33A     -0.145905
      34A     -0.126868    35A     -0.123742    36A     -0.113141
      37A     -0.108940    38A     -0.087752

  @DF-RHF Final Energy:  -566.17907696989596

   => Energetics <=

    Nuclear Repulsion Energy =            479.2063246241480670
    One-Electron Energy =               -1753.4515553929190901
    Two-Electron Energy =                 708.0661537988751206
    Total Energy =                       -566.1790769698959593
  Basis Set: (AUG-CC-PVTZ AUX)
    Blend: AUG-CC-PVTZ-RI
    Molecular point group: c1

    Geometry (in Angstrom), charge = -2, multiplicity = 1:

       Center              X                  Y                   Z               Mass
    ------------   -----------------  -----------------  -----------------  -----------------
         O           -1.210677668455     1.734932599322    -0.213461348466    15.994914619570
         O            2.705054331545    -1.121590400678    -0.879626348466    15.994914619570
         O            3.725665331545     0.265714599322     0.618134651534    15.994914619570
         O           -3.264837668455    -0.297495400678    -0.890146348466    15.994914619570
         O           -2.571766668455    -0.913033400678     1.210739651534    15.994914619570
         C            0.141906331545    -0.247501400678     0.070741651534    12.000000000000
         C            1.396860331545     0.611363599322     0.156725651534    12.000000000000
         C           -1.173223668455     0.506538599322    -0.045318348466    12.000000000000
         C            2.733693331545    -0.168015400678    -0.043818348466    12.000000000000
         C           -2.534854268455    -0.319676200678     0.014990951534    12.000000000000
         H            0.046693331545    -0.919872400678     0.931467651534     1.007825032230
         H            0.238986331545    -0.909131400678    -0.801365348466     1.007825032230
         H            1.440927331545     1.145200599322     1.113234651534     1.007825032230
         H            1.338684331545     1.387651599322    -0.619109348466     1.007825032230

  Basis Set: AUG-CC-PVTZ
    Blend: AUG-CC-PVTZ
  Basis Set: (AUG-CC-PVTZ AUX)
    Blend: AUG-CC-PVTZ-JKFIT
	 Reference Energy          =    -566.1790769698959593 [Eh]
	 Singles Energy            =      -0.0000000000000000 [Eh]
	 Same-Spin Energy          =      -0.5573713861323187 [Eh]
	 Opposite-Spin Energy      =      -1.6338304003001338 [Eh]
	 Correlation Energy        =      -2.1912017864324524 [Eh]
	 Total Energy              =    -568.3702787563283891 [Eh]

	 ================> DF-SCS-MP2 Energies <==================
	-----------------------------------------------------------
	 SCS Same-Spin Scale       =       0.3333333333333333 [-]
	 SCS Opposite-Spin Scale   =       1.2000000000000000 [-]
	 SCS Same-Spin Energy      =      -0.1857904620441062 [Eh]
	 SCS Opposite-Spin Energy  =      -1.9605964803601605 [Eh]
	 SCS Correlation Energy    =      -2.1463869424042668 [Eh]
	 SCS Total Energy          =    -568.3254639123002789 [Eh]
	-----------------------------------------------------------

  Dipole Moment: [D]
     X:    -1.8367      Y:     2.1056      Z:    -0.6657     Total:     2.8723

*** Psi4 exiting successfully. Buy a developer a beer!
