                               Psi4 1.3.2 release

  ==> Input File <==

--------------------------------------------------------------------------
#psi4
#
memory 32 gb

molecule  {
-2 1
  O       -1.2362950     1.7303800    -0.2239510
  O        2.6794370    -1.1261430    -0.8901160
  O        3.7000480     0.2611620     0.6076450
  O       -3.2904550    -0.3020480    -0.9006360
  O       -2.5973840    -0.9175860     1.2002500
  C        0.1162890    -0.2520540     0.0602520
  C        1.4003082     0.5623957     0.1492364
  C       -1.1988410     0.5019860    -0.0558080
  C        2.7080760    -0.1725680    -0.0543080
  C       -2.4977060    -0.3261360     0.0823270
  H        0.0210760    -0.9244250     0.9209780
  H        0.2133690    -0.9136840    -0.8118550
  H        1.4153100     1.1406480     1.1027450
  H        1.3130670     1.3830990    -0.6295990
units angstrom
no_reorient  #important for SAPT in psi4, default
symmetry c1  #important for SAPT in psi4, default
}

set PROPERTIES_ORIGIN ["COM"]
properties('MP2/aug-cc-pvtz', properties = ['dipole'])
--------------------------------------------------------------------------

    Molecular point group: c1
  Charge       = -2
  Multiplicity = 1
  Basis Set: AUG-CC-PVTZ
    Blend: AUG-CC-PVTZ
  Basis Set: (AUG-CC-PVTZ AUX)
    Blend: AUG-CC-PVTZ-JKFIT

    Orbital Energies [Eh]
    ---------------------

    Doubly Occupied:

       1A    -20.289615     2A    -20.232219     3A    -20.231284
       4A    -20.209369     5A    -20.208229     6A    -11.073410
       7A    -11.071736     8A    -11.050962     9A    -10.971111
      10A    -10.962162    11A     -1.120144    12A     -1.087064
      13A     -1.076710    14A     -1.000630    15A     -0.977328
      16A     -0.790630    17A     -0.664523    18A     -0.559792
      19A     -0.440934    20A     -0.424450    21A     -0.382167
      22A     -0.370935    23A     -0.362889    24A     -0.333524
      25A     -0.327895    26A     -0.307366    27A     -0.285501
      28A     -0.274439    29A     -0.246425    30A     -0.227410
      31A     -0.210673    32A     -0.202687    33A     -0.147592
      34A     -0.129337    35A     -0.126193    36A     -0.120308
      37A     -0.110489    38A     -0.102538

  @DF-RHF Final Energy:  -566.18876671709097

   => Energetics <=

    Nuclear Repulsion Energy =            479.7298238606834957
    One-Electron Energy =               -1754.4158384349887001
    Two-Electron Energy =                 708.4972478572143473
    Total Energy =                       -566.1887667170909708
  Basis Set: (AUG-CC-PVTZ AUX)
    Blend: AUG-CC-PVTZ-RI
    Molecular point group: c1

    Geometry (in Angstrom), charge = -2, multiplicity = 1:

       Center              X                  Y                   Z               Mass
    ------------   -----------------  -----------------  -----------------  -----------------
         O           -1.218329923014     1.738792650218    -0.220196582094    15.994914619570
         O            2.697402076986    -1.117730349782    -0.886361582094    15.994914619570
         O            3.718013076986     0.269574650218     0.611399417906    15.994914619570
         O           -3.272489923014    -0.293635349782    -0.896881582094    15.994914619570
         O           -2.579418923014    -0.909173349782     1.204004417906    15.994914619570
         C            0.134254076986    -0.243641349782     0.064006417906    12.000000000000
         C            1.418273276986     0.570808350218     0.152990817906    12.000000000000
         C           -1.180875923014     0.510398650218    -0.052053582094    12.000000000000
         C            2.726041076986    -0.164155349782    -0.050553582094    12.000000000000
         C           -2.479740923014    -0.317723349782     0.086081417906    12.000000000000
         H            0.039041076986    -0.916012349782     0.924732417906     1.007825032230
         H            0.231334076986    -0.905271349782    -0.808100582094     1.007825032230
         H            1.433275076986     1.149060650218     1.106499417906     1.007825032230
         H            1.331032076986     1.391511650218    -0.625844582094     1.007825032230

  Basis Set: AUG-CC-PVTZ
    Blend: AUG-CC-PVTZ
  Basis Set: (AUG-CC-PVTZ AUX)
    Blend: AUG-CC-PVTZ-JKFIT
	 Reference Energy          =    -566.1887667170909708 [Eh]
	 Singles Energy            =      -0.0000000000000000 [Eh]
	 Same-Spin Energy          =      -0.5585155284835281 [Eh]
	 Opposite-Spin Energy      =      -1.6362730875105247 [Eh]
	 Correlation Energy        =      -2.1947886159940531 [Eh]
	 Total Energy              =    -568.3835553330850416 [Eh]

	 ================> DF-SCS-MP2 Energies <==================
	-----------------------------------------------------------
	 SCS Same-Spin Scale       =       0.3333333333333333 [-]
	 SCS Opposite-Spin Scale   =       1.2000000000000000 [-]
	 SCS Same-Spin Energy      =      -0.1861718428278427 [Eh]
	 SCS Opposite-Spin Energy  =      -1.9635277050126296 [Eh]
	 SCS Correlation Energy    =      -2.1496995478404726 [Eh]
	 SCS Total Energy          =    -568.3384662649314123 [Eh]
	-----------------------------------------------------------

  Dipole Moment: [D]
     X:    -1.3639      Y:     1.9711      Z:     0.2748     Total:     2.4126

*** Psi4 exiting successfully. Buy a developer a beer!
