                               Psi4 1.4a3.dev225

  ==> Input File <==

--------------------------------------------------------------------------
#psi4
#
memory 32 gb

molecule  {
-2 1
  O        1.2418990     1.7387210     0.0152810
  O       -2.6413570    -1.2266940     0.7274850
  O       -3.7043420     0.3864070    -0.4664210
  O        3.4703830     0.1255600     0.5711880
  O        2.3854260    -1.4395470    -0.6909830
  C       -0.1276340    -0.2366180    -0.0826630
  C       -1.3618580     0.6471040    -0.0555340
  C        1.2037578     0.5144584    -0.0319245
  C       -2.6840850    -0.1418490     0.0703610
  C        2.4800850    -0.3523600    -0.0479140
  H       -0.1095280    -0.8768510    -0.9719090
  H       -0.1594520    -0.9384420     0.7596660
  H       -1.4090040     1.2787430    -0.9482840
  H       -1.2952160     1.3354770     0.7981610
units angstrom
no_reorient  #important for SAPT in psi4, default
symmetry c1  #important for SAPT in psi4, default
}

set PROPERTIES_ORIGIN ["COM"]
properties('MP2/aug-cc-pvtz', properties = ['dipole'])
--------------------------------------------------------------------------

    Molecular point group: c1
  Charge       = -2
  Multiplicity = 1
  Basis Set: AUG-CC-PVTZ
    Blend: AUG-CC-PVTZ
  Basis Set: (AUG-CC-PVTZ AUX)
    Blend: AUG-CC-PVTZ-JKFIT

    Orbital Energies [Eh]
    ---------------------

    Doubly Occupied:

       1A    -20.291223     2A    -20.227804     3A    -20.225138
       4A    -20.205713     5A    -20.204333     6A    -11.066849
       7A    -11.065050     8A    -11.047617     9A    -10.963927
      10A    -10.955011    11A     -1.126680    12A     -1.086579
      13A     -1.072796    14A     -0.995567    15A     -0.972093
      16A     -0.786097    17A     -0.659238    18A     -0.556178
      19A     -0.439680    20A     -0.419419    21A     -0.380639
      22A     -0.368653    23A     -0.367852    24A     -0.328068
      25A     -0.318327    26A     -0.300872    27A     -0.294211
      28A     -0.269403    29A     -0.239847    30A     -0.230939
      31A     -0.214684    32A     -0.204187    33A     -0.141874
      34A     -0.125699    35A     -0.120996    36A     -0.115232
      37A     -0.106481    38A     -0.100140

  @DF-RHF Final Energy:  -566.19040232013651

   => Energetics <=

    Nuclear Repulsion Energy =            481.7879235878477289
    One-Electron Energy =               -1758.7664616095000838
    Two-Electron Energy =                 710.7881357015158983
    Total Energy =                       -566.1904023201365135
  Basis Set: (AUG-CC-PVTZ AUX)
    Blend: AUG-CC-PVTZ-RI
    Molecular point group: c1

    Geometry (in Angstrom), charge = -2, multiplicity = 1:

       Center              X                  Y                   Z               Mass
    ------------   -----------------  -----------------  -----------------  -----------------
         O            1.219989866076     1.743392554780     0.012734518042    15.994914619570
         O           -2.663266133924    -1.222022445220     0.724938518042    15.994914619570
         O           -3.726251133924     0.391078554780    -0.468967481958    15.994914619570
         O            3.448473866076     0.130231554780     0.568641518042    15.994914619570
         O            2.363516866076    -1.434875445220    -0.693529481958    15.994914619570
         C           -0.149543133924    -0.231946445220    -0.085209481958    12.000000000000
         C           -1.383767133924     0.651775554780    -0.058080481958    12.000000000000
         C            1.181848666076     0.519129954780    -0.034470981958    12.000000000000
         C           -2.705994133924    -0.137177445220     0.067814518042    12.000000000000
         C            2.458175866076    -0.347688445220    -0.050460481958    12.000000000000
         H           -0.131437133924    -0.872179445220    -0.974455481958     1.007825032230
         H           -0.181361133924    -0.933770445220     0.757119518042     1.007825032230
         H           -1.430913133924     1.283414554780    -0.950830481958     1.007825032230
         H           -1.317125133924     1.340148554780     0.795614518042     1.007825032230

  Basis Set: AUG-CC-PVTZ
    Blend: AUG-CC-PVTZ
  Basis Set: (AUG-CC-PVTZ AUX)
    Blend: AUG-CC-PVTZ-JKFIT
	 Reference Energy          =    -566.1904023201365135 [Eh]
	 Singles Energy            =      -0.0000000000000000 [Eh]
	 Same-Spin Energy          =      -0.5580948564695123 [Eh]
	 Opposite-Spin Energy      =      -1.6353699771947896 [Eh]
	 Correlation Energy        =      -2.1934648336643017 [Eh]
	 Total Energy              =    -568.3838671538007929 [Eh]

	 ================> DF-SCS-MP2 Energies <==================
	-----------------------------------------------------------
	 SCS Same-Spin Scale       =       0.3333333333333333 [-]
	 SCS Opposite-Spin Scale   =       1.2000000000000000 [-]
	 SCS Same-Spin Energy      =      -0.1860316188231708 [Eh]
	 SCS Opposite-Spin Energy  =      -1.9624439726337475 [Eh]
	 SCS Correlation Energy    =      -2.1484755914569180 [Eh]
	 SCS Total Energy          =    -568.3388779115933858 [Eh]
	-----------------------------------------------------------

  Dipole Moment: [D]
     X:     1.4082      Y:     2.2249      Z:    -0.3820     Total:     2.6606

*** Psi4 exiting successfully. Buy a developer a beer!
