                               Psi4 1.3.2 release

  ==> Input File <==

--------------------------------------------------------------------------
#psi4
#
memory 32 gb

molecule  {
-2 1
  O       -1.3656670     1.7200987    -0.2201166
  O        2.6794370    -1.1261430    -0.8901160
  O        3.7000480     0.2611620     0.6076450
  O       -3.2904550    -0.3020480    -0.9006360
  O       -2.5973840    -0.9175860     1.2002500
  C        0.1162890    -0.2520540     0.0602520
  C        1.3712430     0.6068110     0.1462360
  C       -1.1988410     0.5019860    -0.0558080
  C        2.7080760    -0.1725680    -0.0543080
  C       -2.4977060    -0.3261360     0.0823270
  H        0.0210760    -0.9244250     0.9209780
  H        0.2133690    -0.9136840    -0.8118550
  H        1.4153100     1.1406480     1.1027450
  H        1.3130670     1.3830990    -0.6295990
units angstrom
no_reorient  #important for SAPT in psi4, default
symmetry c1  #important for SAPT in psi4, default
}

set PROPERTIES_ORIGIN ["COM"]
properties('MP2/aug-cc-pvtz', properties = ['dipole'])
--------------------------------------------------------------------------

    Molecular point group: c1
  Charge       = -2
  Multiplicity = 1
  Basis Set: AUG-CC-PVTZ
    Blend: AUG-CC-PVTZ
  Basis Set: (AUG-CC-PVTZ AUX)
    Blend: AUG-CC-PVTZ-JKFIT

    Orbital Energies [Eh]
    ---------------------

    Doubly Occupied:

       1A    -20.288854     2A    -20.227245     3A    -20.225511
       4A    -20.212308     5A    -20.211745     6A    -11.069729
       7A    -11.065989     8A    -11.055633     9A    -10.975728
      10A    -10.962045    11A     -1.119526    12A     -1.081284
      13A     -1.077921    14A     -0.995439    15A     -0.979578
      16A     -0.794329    17A     -0.662346    18A     -0.555602
      19A     -0.442490    20A     -0.421539    21A     -0.380442
      22A     -0.372418    23A     -0.363578    24A     -0.329905
      25A     -0.326670    26A     -0.307782    27A     -0.286231
      28A     -0.273162    29A     -0.249766    30A     -0.231976
      31A     -0.216930    32A     -0.209190    33A     -0.142547
      34A     -0.128903    35A     -0.124672    36A     -0.118719
      37A     -0.112919    38A     -0.095684

  @DF-RHF Final Energy:  -566.18970733066089

   => Energetics <=

    Nuclear Repulsion Energy =            479.0675071205274662
    One-Electron Energy =               -1753.1217627977555367
    Two-Electron Energy =                 707.8645483465670623
    Total Energy =                       -566.1897073306608945
  Basis Set: (AUG-CC-PVTZ AUX)
    Blend: AUG-CC-PVTZ-RI
    Molecular point group: c1

    Geometry (in Angstrom), charge = -2, multiplicity = 1:

       Center              X                  Y                   Z               Mass
    ------------   -----------------  -----------------  -----------------  -----------------
         O           -1.330910410002     1.725952183178    -0.216538050620    15.994914619570
         O            2.714193589998    -1.120289516822    -0.886537450620    15.994914619570
         O            3.734804589998     0.267015483178     0.611223549380    15.994914619570
         O           -3.255698410002    -0.296194516822    -0.897057450620    15.994914619570
         O           -2.562627410002    -0.911732516822     1.203828549380    15.994914619570
         C            0.151045589998    -0.246200516822     0.063830549380    12.000000000000
         C            1.405999589998     0.612664483178     0.149814549380    12.000000000000
         C           -1.164084410002     0.507839483178    -0.052229450620    12.000000000000
         C            2.742832589998    -0.166714516822    -0.050729450620    12.000000000000
         C           -2.462949410002    -0.320282516822     0.085905549380    12.000000000000
         H            0.055832589998    -0.918571516822     0.924556549380     1.007825032230
         H            0.248125589998    -0.907830516822    -0.808276450620     1.007825032230
         H            1.450066589998     1.146501483178     1.106323549380     1.007825032230
         H            1.347823589998     1.388952483178    -0.626020450620     1.007825032230

  Basis Set: AUG-CC-PVTZ
    Blend: AUG-CC-PVTZ
  Basis Set: (AUG-CC-PVTZ AUX)
    Blend: AUG-CC-PVTZ-JKFIT
	 Reference Energy          =    -566.1897073306608945 [Eh]
	 Singles Energy            =      -0.0000000000000000 [Eh]
	 Same-Spin Energy          =      -0.5581421736195938 [Eh]
	 Opposite-Spin Energy      =      -1.6356368596091349 [Eh]
	 Correlation Energy        =      -2.1937790332287288 [Eh]
	 Total Energy              =    -568.3834863638895740 [Eh]

	 ================> DF-SCS-MP2 Energies <==================
	-----------------------------------------------------------
	 SCS Same-Spin Scale       =       0.3333333333333333 [-]
	 SCS Opposite-Spin Scale   =       1.2000000000000000 [-]
	 SCS Same-Spin Energy      =      -0.1860473912065313 [Eh]
	 SCS Opposite-Spin Energy  =      -1.9627642315309617 [Eh]
	 SCS Correlation Energy    =      -2.1488116227374929 [Eh]
	 SCS Total Energy          =    -568.3385189533984203 [Eh]
	-----------------------------------------------------------

  Dipole Moment: [D]
     X:    -0.9973      Y:     2.0037      Z:     0.2348     Total:     2.2505

*** Psi4 exiting successfully. Buy a developer a beer!
