                               Psi4 1.3.2 release

  ==> Input File <==

--------------------------------------------------------------------------
#psi4
#
memory 32 gb

molecule  {
-2 1
  O       -1.2362950     1.7303800    -0.2239510
  O        2.6794370    -1.1261430    -0.8901160
  O        3.7000480     0.2611620     0.6076450
  O       -3.3042904    -0.3151495    -0.8895518
  O       -2.5973840    -0.9175860     1.2002500
  C        0.1162890    -0.2520540     0.0602520
  C        1.3712430     0.6068110     0.1462360
  C       -1.1988410     0.5019860    -0.0558080
  C        2.7080760    -0.1725680    -0.0543080
  C       -2.4977060    -0.3261360     0.0823270
  H        0.0210760    -0.9244250     0.9209780
  H        0.2133690    -0.9136840    -0.8118550
  H        1.4153100     1.1406480     1.1027450
  H        1.3130670     1.3830990    -0.6295990
units angstrom
no_reorient  #important for SAPT in psi4, default
symmetry c1  #important for SAPT in psi4, default
}

set PROPERTIES_ORIGIN ["COM"]
properties('MP2/aug-cc-pvtz', properties = ['dipole'])
--------------------------------------------------------------------------

    Molecular point group: c1
  Charge       = -2
  Multiplicity = 1
  Basis Set: AUG-CC-PVTZ
    Blend: AUG-CC-PVTZ
  Basis Set: (AUG-CC-PVTZ AUX)
    Blend: AUG-CC-PVTZ-JKFIT

    Orbital Energies [Eh]
    ---------------------

    Doubly Occupied:

       1A    -20.289594     2A    -20.230465     3A    -20.229849
       4A    -20.210332     5A    -20.209548     6A    -11.071968
       7A    -11.071214     8A    -11.053349     9A    -10.970826
      10A    -10.958784    11A     -1.119807    12A     -1.086679
      13A     -1.075827    14A     -0.998235    15A     -0.977501
      16A     -0.790080    17A     -0.662065    18A     -0.557706
      19A     -0.441003    20A     -0.421880    21A     -0.382007
      22A     -0.370734    23A     -0.364576    24A     -0.330755
      25A     -0.325354    26A     -0.306105    27A     -0.285131
      28A     -0.274261    29A     -0.249173    30A     -0.230086
      31A     -0.215634    32A     -0.207771    33A     -0.145464
      34A     -0.128278    35A     -0.126048    36A     -0.117487
      37A     -0.111003    38A     -0.100429

  @DF-RHF Final Energy:  -566.19178948084254

   => Energetics <=

    Nuclear Repulsion Energy =            479.2548598973718867
    One-Electron Energy =               -1753.4992870952323756
    Two-Electron Energy =                 708.0526377170178876
    Total Energy =                       -566.1917894808425444
  Basis Set: (AUG-CC-PVTZ AUX)
    Blend: AUG-CC-PVTZ-RI
    Molecular point group: c1

    Geometry (in Angstrom), charge = -2, multiplicity = 1:

       Center              X                  Y                   Z               Mass
    ------------   -----------------  -----------------  -----------------  -----------------
         O           -1.214371206408     1.736546726362    -0.221177695083    15.994914619570
         O            2.701360793592    -1.119976273638    -0.887342695083    15.994914619570
         O            3.721971793592     0.267328726362     0.610418304917    15.994914619570
         O           -3.282366606408    -0.308982773638    -0.886778495083    15.994914619570
         O           -2.575460206408    -0.911419273638     1.203023304917    15.994914619570
         C            0.138212793592    -0.245887273638     0.063025304917    12.000000000000
         C            1.393166793592     0.612977726362     0.149009304917    12.000000000000
         C           -1.176917206408     0.508152726362    -0.053034695083    12.000000000000
         C            2.729999793592    -0.166401273638    -0.051534695083    12.000000000000
         C           -2.475782206408    -0.319969273638     0.085100304917    12.000000000000
         H            0.042999793592    -0.918258273638     0.923751304917     1.007825032230
         H            0.235292793592    -0.907517273638    -0.809081695083     1.007825032230
         H            1.437233793592     1.146814726362     1.105518304917     1.007825032230
         H            1.334990793592     1.389265726362    -0.626825695083     1.007825032230

  Basis Set: AUG-CC-PVTZ
    Blend: AUG-CC-PVTZ
  Basis Set: (AUG-CC-PVTZ AUX)
    Blend: AUG-CC-PVTZ-JKFIT
	 Reference Energy          =    -566.1917894808425444 [Eh]
	 Singles Energy            =      -0.0000000000000000 [Eh]
	 Same-Spin Energy          =      -0.5582413758593012 [Eh]
	 Opposite-Spin Energy      =      -1.6357787541787032 [Eh]
	 Correlation Energy        =      -2.1940201300380044 [Eh]
	 Total Energy              =    -568.3858096108805285 [Eh]

	 ================> DF-SCS-MP2 Energies <==================
	-----------------------------------------------------------
	 SCS Same-Spin Scale       =       0.3333333333333333 [-]
	 SCS Opposite-Spin Scale   =       1.2000000000000000 [-]
	 SCS Same-Spin Energy      =      -0.1860804586197671 [Eh]
	 SCS Opposite-Spin Energy  =      -1.9629345050144438 [Eh]
	 SCS Correlation Energy    =      -2.1490149636342109 [Eh]
	 SCS Total Energy          =    -568.3408044444767029 [Eh]
	-----------------------------------------------------------

  Dipole Moment: [D]
     X:    -1.2470      Y:     2.0228      Z:     0.2416     Total:     2.3885

*** Psi4 exiting successfully. Buy a developer a beer!
