                               Psi4 1.4a3.dev225

  ==> Input File <==

--------------------------------------------------------------------------
#psi4
#
memory 32 gb

molecule  {
-2 1
  O        1.2418990     1.7387210     0.0152810
  O       -2.6413570    -1.2266940     0.7274850
  O       -3.7043420     0.3864070    -0.4664210
  O        3.4703830     0.1255600     0.5711880
  O        2.3854260    -1.4395470    -0.6909830
  C       -0.1276340    -0.2366180    -0.0826630
  C       -1.3618580     0.6471040    -0.0555340
  C        1.1863480     0.5046370    -0.0325880
  C       -2.6840850    -0.1418490     0.0703610
  C        2.4957804    -0.3447854    -0.0381018
  H       -0.1095280    -0.8768510    -0.9719090
  H       -0.1594520    -0.9384420     0.7596660
  H       -1.4090040     1.2787430    -0.9482840
  H       -1.2952160     1.3354770     0.7981610
units angstrom
no_reorient  #important for SAPT in psi4, default
symmetry c1  #important for SAPT in psi4, default
}

set PROPERTIES_ORIGIN ["COM"]
properties('MP2/aug-cc-pvtz', properties = ['dipole'])
--------------------------------------------------------------------------

    Molecular point group: c1
  Charge       = -2
  Multiplicity = 1
  Basis Set: AUG-CC-PVTZ
    Blend: AUG-CC-PVTZ
  Basis Set: (AUG-CC-PVTZ AUX)
    Blend: AUG-CC-PVTZ-JKFIT

    Orbital Energies [Eh]
    ---------------------

    Doubly Occupied:

       1A    -20.289042     2A    -20.229200     3A    -20.223437
       4A    -20.205829     5A    -20.204524     6A    -11.066861
       7A    -11.064656     8A    -11.047749     9A    -10.963906
      10A    -10.955278    11A     -1.121130    12A     -1.086818
      13A     -1.072945    14A     -0.997039    15A     -0.972250
      16A     -0.788832    17A     -0.659056    18A     -0.551895
      19A     -0.439604    20A     -0.418606    21A     -0.380434
      22A     -0.369033    23A     -0.366569    24A     -0.328152
      25A     -0.318763    26A     -0.300765    27A     -0.294474
      28A     -0.270065    29A     -0.240355    30A     -0.228673
      31A     -0.213855    32A     -0.204519    33A     -0.143104
      34A     -0.125070    35A     -0.121485    36A     -0.115019
      37A     -0.106582    38A     -0.099648

  @DF-RHF Final Energy:  -566.19001718063055

   => Energetics <=

    Nuclear Repulsion Energy =            481.7260231631578904
    One-Electron Energy =               -1758.6616342199929477
    Two-Electron Energy =                 710.7455938762045662
    Total Energy =                       -566.1900171806305480
  Basis Set: (AUG-CC-PVTZ AUX)
    Blend: AUG-CC-PVTZ-RI
    Molecular point group: c1

    Geometry (in Angstrom), charge = -2, multiplicity = 1:

       Center              X                  Y                   Z               Mass
    ------------   -----------------  -----------------  -----------------  -----------------
         O            1.220132726916     1.743579780477     0.011972157469    15.994914619570
         O           -2.663123273084    -1.221835219523     0.724176157469    15.994914619570
         O           -3.726108273084     0.391265780477    -0.469729842531    15.994914619570
         O            3.448616726916     0.130418780477     0.567879157469    15.994914619570
         O            2.363659726916    -1.434688219523    -0.694291842531    15.994914619570
         C           -0.149400273084    -0.231759219523    -0.085971842531    12.000000000000
         C           -1.383624273084     0.651962780477    -0.058842842531    12.000000000000
         C            1.164581726916     0.509495780477    -0.035896842531    12.000000000000
         C           -2.705851273084    -0.136990219523     0.067052157469    12.000000000000
         C            2.474014126916    -0.339926619523    -0.041410642531    12.000000000000
         H           -0.131294273084    -0.871992219523    -0.975217842531     1.007825032230
         H           -0.181218273084    -0.933583219523     0.756357157469     1.007825032230
         H           -1.430770273084     1.283601780477    -0.951592842531     1.007825032230
         H           -1.316982273084     1.340335780477     0.794852157469     1.007825032230

  Basis Set: AUG-CC-PVTZ
    Blend: AUG-CC-PVTZ
  Basis Set: (AUG-CC-PVTZ AUX)
    Blend: AUG-CC-PVTZ-JKFIT
	 Reference Energy          =    -566.1900171806305480 [Eh]
	 Singles Energy            =      -0.0000000000000000 [Eh]
	 Same-Spin Energy          =      -0.5582208554065416 [Eh]
	 Opposite-Spin Energy      =      -1.6354524745182064 [Eh]
	 Correlation Energy        =      -2.1936733299247480 [Eh]
	 Total Energy              =    -568.3836905105553114 [Eh]

	 ================> DF-SCS-MP2 Energies <==================
	-----------------------------------------------------------
	 SCS Same-Spin Scale       =       0.3333333333333333 [-]
	 SCS Opposite-Spin Scale   =       1.2000000000000000 [-]
	 SCS Same-Spin Energy      =      -0.1860736184688472 [Eh]
	 SCS Opposite-Spin Energy  =      -1.9625429694218477 [Eh]
	 SCS Correlation Energy    =      -2.1486165878906949 [Eh]
	 SCS Total Energy          =    -568.3386337685212766 [Eh]
	-----------------------------------------------------------

  Dipole Moment: [D]
     X:     1.4428      Y:     2.2638      Z:    -0.2649     Total:     2.6976

*** Psi4 exiting successfully. Buy a developer a beer!
