                               Psi4 1.3.2 release

  ==> Input File <==

--------------------------------------------------------------------------
#psi4
#
memory 32 gb

molecule  {
-2 1
  O       -1.2362950     1.7303800    -0.2239510
  O        2.6794370    -1.1261430    -0.8901160
  O        3.7000480     0.2611620     0.6076450
  O       -3.2765560    -0.2886439    -0.9112697
  O       -2.5973840    -0.9175860     1.2002500
  C        0.1162890    -0.2520540     0.0602520
  C        1.3712430     0.6068110     0.1462360
  C       -1.1988410     0.5019860    -0.0558080
  C        2.7080760    -0.1725680    -0.0543080
  C       -2.4977060    -0.3261360     0.0823270
  H        0.0210760    -0.9244250     0.9209780
  H        0.2133690    -0.9136840    -0.8118550
  H        1.4153100     1.1406480     1.1027450
  H        1.3130670     1.3830990    -0.6295990
units angstrom
no_reorient  #important for SAPT in psi4, default
symmetry c1  #important for SAPT in psi4, default
}

set PROPERTIES_ORIGIN ["COM"]
properties('MP2/aug-cc-pvtz', properties = ['dipole'])
--------------------------------------------------------------------------

    Molecular point group: c1
  Charge       = -2
  Multiplicity = 1
  Basis Set: AUG-CC-PVTZ
    Blend: AUG-CC-PVTZ
  Basis Set: (AUG-CC-PVTZ AUX)
    Blend: AUG-CC-PVTZ-JKFIT

    Orbital Energies [Eh]
    ---------------------

    Doubly Occupied:

       1A    -20.287597     2A    -20.232674     3A    -20.231247
       4A    -20.209844     5A    -20.209041     6A    -11.072710
       7A    -11.068756     8A    -11.052772     9A    -10.969731
      10A    -10.958010    11A     -1.118829    12A     -1.085966
      13A     -1.075319    14A     -1.001631    15A     -0.977001
      16A     -0.789063    17A     -0.660850    18A     -0.556490
      19A     -0.440004    20A     -0.421436    21A     -0.381988
      22A     -0.369859    23A     -0.363712    24A     -0.332148
      25A     -0.324907    26A     -0.305728    27A     -0.284879
      28A     -0.274183    29A     -0.248483    30A     -0.229415
      31A     -0.214858    32A     -0.206579    33A     -0.148589
      34A     -0.129368    35A     -0.126309    36A     -0.116733
      37A     -0.110531    38A     -0.098567

  @DF-RHF Final Energy:  -566.19157234692773

   => Energetics <=

    Nuclear Repulsion Energy =            479.5197317812755387
    One-Electron Energy =               -1754.0509968308522275
    Two-Electron Energy =                 708.3396927026489038
    Total Energy =                       -566.1915723469277282
  Basis Set: (AUG-CC-PVTZ AUX)
    Blend: AUG-CC-PVTZ-RI
    Molecular point group: c1

    Geometry (in Angstrom), charge = -2, multiplicity = 1:

       Center              X                  Y                   Z               Mass
    ------------   -----------------  -----------------  -----------------  -----------------
         O           -1.217451701322     1.733602715820    -0.218765460440    15.994914619570
         O            2.698280298678    -1.122920284180    -0.884930460440    15.994914619570
         O            3.718891298678     0.264384715820     0.612830539560    15.994914619570
         O           -3.257712701322    -0.285421184180    -0.906084160440    15.994914619570
         O           -2.578540701322    -0.914363284180     1.205435539560    15.994914619570
         C            0.135132298678    -0.248831284180     0.065437539560    12.000000000000
         C            1.390086298678     0.610033715820     0.151421539560    12.000000000000
         C           -1.179997701322     0.505208715820    -0.050622460440    12.000000000000
         C            2.726919298678    -0.169345284180    -0.049122460440    12.000000000000
         C           -2.478862701322    -0.322913284180     0.087512539560    12.000000000000
         H            0.039919298678    -0.921202284180     0.926163539560     1.007825032230
         H            0.232212298678    -0.910461284180    -0.806669460440     1.007825032230
         H            1.434153298678     1.143870715820     1.107930539560     1.007825032230
         H            1.331910298678     1.386321715820    -0.624413460440     1.007825032230

  Basis Set: AUG-CC-PVTZ
    Blend: AUG-CC-PVTZ
  Basis Set: (AUG-CC-PVTZ AUX)
    Blend: AUG-CC-PVTZ-JKFIT
	 Reference Energy          =    -566.1915723469277282 [Eh]
	 Singles Energy            =      -0.0000000000000000 [Eh]
	 Same-Spin Energy          =      -0.5582830099894593 [Eh]
	 Opposite-Spin Energy      =      -1.6358256645012834 [Eh]
	 Correlation Energy        =      -2.1941086744907428 [Eh]
	 Total Energy              =    -568.3856810214184634 [Eh]

	 ================> DF-SCS-MP2 Energies <==================
	-----------------------------------------------------------
	 SCS Same-Spin Scale       =       0.3333333333333333 [-]
	 SCS Opposite-Spin Scale   =       1.2000000000000000 [-]
	 SCS Same-Spin Energy      =      -0.1860943366631531 [Eh]
	 SCS Opposite-Spin Energy  =      -1.9629907974015399 [Eh]
	 SCS Correlation Energy    =      -2.1490851340646930 [Eh]
	 SCS Total Energy          =    -568.3406574809923768 [Eh]
	-----------------------------------------------------------

  Dipole Moment: [D]
     X:    -1.3374      Y:     1.9718      Z:     0.2687     Total:     2.3976

*** Psi4 exiting successfully. Buy a developer a beer!
