                               Psi4 1.4a3.dev225

  ==> Input File <==

--------------------------------------------------------------------------
#psi4
#
memory 32 gb

molecule  {
-2 1
  O        1.2418990     1.7387210     0.0152810
  O       -2.6413570    -1.2266940     0.7274850
  O       -3.7043420     0.3864070    -0.4664210
  O        3.4703830     0.1255600     0.5711880
  O        2.3854260    -1.4395470    -0.6909830
  C       -0.1276340    -0.2366180    -0.0826630
  C       -1.3618580     0.6471040    -0.0555340
  C        1.1863480     0.5046370    -0.0325880
  C       -2.6840850    -0.1418490     0.0703610
  C        2.4634122    -0.3413156    -0.0477165
  H       -0.1095280    -0.8768510    -0.9719090
  H       -0.1594520    -0.9384420     0.7596660
  H       -1.4090040     1.2787430    -0.9482840
  H       -1.2952160     1.3354770     0.7981610
units angstrom
no_reorient  #important for SAPT in psi4, default
symmetry c1  #important for SAPT in psi4, default
}

set PROPERTIES_ORIGIN ["COM"]
properties('MP2/aug-cc-pvtz', properties = ['dipole'])
--------------------------------------------------------------------------

    Molecular point group: c1
  Charge       = -2
  Multiplicity = 1
  Basis Set: AUG-CC-PVTZ
    Blend: AUG-CC-PVTZ
  Basis Set: (AUG-CC-PVTZ AUX)
    Blend: AUG-CC-PVTZ-JKFIT

    Orbital Energies [Eh]
    ---------------------

    Doubly Occupied:

       1A    -20.292022     2A    -20.227095     3A    -20.224437
       4A    -20.206678     5A    -20.205419     6A    -11.067992
       7A    -11.067396     8A    -11.048714     9A    -10.965756
      10A    -10.956581    11A     -1.121975    12A     -1.080777
      13A     -1.073833    14A     -0.988805    15A     -0.973128
      16A     -0.791242    17A     -0.664955    18A     -0.559962
      19A     -0.441478    20A     -0.419348    21A     -0.379797
      22A     -0.370968    23A     -0.367441    24A     -0.326828
      25A     -0.317899    26A     -0.300631    27A     -0.292914
      28A     -0.268420    29A     -0.239832    30A     -0.229256
      31A     -0.215255    32A     -0.204747    33A     -0.138767
      34A     -0.127002    35A     -0.119253    36A     -0.116198
      37A     -0.107583    38A     -0.103683

  @DF-RHF Final Energy:  -566.18753804942276

   => Energetics <=

    Nuclear Repulsion Energy =            481.8774660650186661
    One-Electron Energy =               -1758.9218807561792346
    Two-Electron Energy =                 710.8568766417376992
    Total Energy =                       -566.1875380494227556
  Basis Set: (AUG-CC-PVTZ AUX)
    Blend: AUG-CC-PVTZ-RI
    Molecular point group: c1

    Geometry (in Angstrom), charge = -2, multiplicity = 1:

       Center              X                  Y                   Z               Mass
    ------------   -----------------  -----------------  -----------------  -----------------
         O            1.222829966906     1.743290642270     0.012773349791    15.994914619570
         O           -2.660426033094    -1.222124357730     0.724977349791    15.994914619570
         O           -3.723411033094     0.390976642270    -0.468928650209    15.994914619570
         O            3.451313966906     0.130129642270     0.568680349791    15.994914619570
         O            2.366356966906    -1.434977357730    -0.693490650209    15.994914619570
         C           -0.146703033094    -0.232048357730    -0.085170650209    12.000000000000
         C           -1.380927033094     0.651673642270    -0.058041650209    12.000000000000
         C            1.167278966906     0.509206642270    -0.035095650209    12.000000000000
         C           -2.703154033094    -0.137279357730     0.067853349791    12.000000000000
         C            2.444343166906    -0.336745957730    -0.050224150209    12.000000000000
         H           -0.128597033094    -0.872281357730    -0.974416650209     1.007825032230
         H           -0.178521033094    -0.933872357730     0.757158349791     1.007825032230
         H           -1.428073033094     1.283312642270    -0.950791650209     1.007825032230
         H           -1.314285033094     1.340046642270     0.795653349791     1.007825032230

  Basis Set: AUG-CC-PVTZ
    Blend: AUG-CC-PVTZ
  Basis Set: (AUG-CC-PVTZ AUX)
    Blend: AUG-CC-PVTZ-JKFIT
	 Reference Energy          =    -566.1875380494227556 [Eh]
	 Singles Energy            =      -0.0000000000000000 [Eh]
	 Same-Spin Energy          =      -0.5588465560027545 [Eh]
	 Opposite-Spin Energy      =      -1.6369621472471252 [Eh]
	 Correlation Energy        =      -2.1958087032498796 [Eh]
	 Total Energy              =    -568.3833467526726508 [Eh]

	 ================> DF-SCS-MP2 Energies <==================
	-----------------------------------------------------------
	 SCS Same-Spin Scale       =       0.3333333333333333 [-]
	 SCS Opposite-Spin Scale   =       1.2000000000000000 [-]
	 SCS Same-Spin Energy      =      -0.1862821853342515 [Eh]
	 SCS Opposite-Spin Energy  =      -1.9643545766965502 [Eh]
	 SCS Correlation Energy    =      -2.1506367620308016 [Eh]
	 SCS Total Energy          =    -568.3381748114535412 [Eh]
	-----------------------------------------------------------

  Dipole Moment: [D]
     X:     1.2186      Y:     2.2091      Z:    -0.3798     Total:     2.5514

*** Psi4 exiting successfully. Buy a developer a beer!
