                               Psi4 1.3.2 release

  ==> Input File <==

--------------------------------------------------------------------------
#psi4
#
memory 32 gb

molecule  {
-2 1
  O       -1.1497205     1.7300917    -0.2230509
  O        2.6794370    -1.1261430    -0.8901160
  O        3.7000480     0.2611620     0.6076450
  O       -3.2904550    -0.3020480    -0.9006360
  O       -2.5973840    -0.9175860     1.2002500
  C        0.1162890    -0.2520540     0.0602520
  C        1.3712430     0.6068110     0.1462360
  C       -1.1988410     0.5019860    -0.0558080
  C        2.7080760    -0.1725680    -0.0543080
  C       -2.4977060    -0.3261360     0.0823270
  H        0.0210760    -0.9244250     0.9209780
  H        0.2133690    -0.9136840    -0.8118550
  H        1.4153100     1.1406480     1.1027450
  H        1.3130670     1.3830990    -0.6295990
units angstrom
no_reorient  #important for SAPT in psi4, default
symmetry c1  #important for SAPT in psi4, default
}

set PROPERTIES_ORIGIN ["COM"]
properties('MP2/aug-cc-pvtz', properties = ['dipole'])
--------------------------------------------------------------------------

    Molecular point group: c1
  Charge       = -2
  Multiplicity = 1
  Basis Set: AUG-CC-PVTZ
    Blend: AUG-CC-PVTZ
  Basis Set: (AUG-CC-PVTZ AUX)
    Blend: AUG-CC-PVTZ-JKFIT

    Orbital Energies [Eh]
    ---------------------

    Doubly Occupied:

       1A    -20.288182     2A    -20.234318     3A    -20.233652
       4A    -20.208502     5A    -20.207543     6A    -11.076457
       7A    -11.070186     8A    -11.051190     9A    -10.966618
      10A    -10.955765    11A     -1.119605    12A     -1.089493
      13A     -1.073886    14A     -1.002791    15A     -0.975588
      16A     -0.786109    17A     -0.660926    18A     -0.557847
      19A     -0.439166    20A     -0.421736    21A     -0.383241
      22A     -0.369049    23A     -0.364163    24A     -0.333133
      25A     -0.323406    26A     -0.304434    27A     -0.284457
      28A     -0.274731    29A     -0.248033    30A     -0.228290
      31A     -0.213395    32A     -0.205030    33A     -0.149848
      34A     -0.130417    35A     -0.125630    36A     -0.115623
      37A     -0.109230    38A     -0.101163

  @DF-RHF Final Energy:  -566.18994711842367

   => Energetics <=

    Nuclear Repulsion Energy =            479.7471533649464845
    One-Electron Energy =               -1754.5085335604578631
    Two-Electron Energy =                 708.5714330770875904
    Total Energy =                       -566.1899471184236745
  Basis Set: (AUG-CC-PVTZ AUX)
    Blend: AUG-CC-PVTZ-RI
    Molecular point group: c1

    Geometry (in Angstrom), charge = -2, multiplicity = 1:

       Center              X                  Y                   Z               Mass
    ------------   -----------------  -----------------  -----------------  -----------------
         O           -1.138949361098     1.734835248019    -0.219146434205    15.994914619570
         O            2.690208138902    -1.121399451981    -0.886211534205    15.994914619570
         O            3.710819138902     0.265905548019     0.611549465795    15.994914619570
         O           -3.279683861098    -0.297304451981    -0.896731534205    15.994914619570
         O           -2.586612861098    -0.912842451981     1.204154465795    15.994914619570
         C            0.127060138902    -0.247310451981     0.064156465795    12.000000000000
         C            1.382014138902     0.611554548019     0.150140465795    12.000000000000
         C           -1.188069861098     0.506729548019    -0.051903534205    12.000000000000
         C            2.718847138902    -0.167824451981    -0.050403534205    12.000000000000
         C           -2.486934861098    -0.321392451981     0.086231465795    12.000000000000
         H            0.031847138902    -0.919681451981     0.924882465795     1.007825032230
         H            0.224140138902    -0.908940451981    -0.807950534205     1.007825032230
         H            1.426081138902     1.145391548019     1.106649465795     1.007825032230
         H            1.323838138902     1.387842548019    -0.625694534205     1.007825032230

  Basis Set: AUG-CC-PVTZ
    Blend: AUG-CC-PVTZ
  Basis Set: (AUG-CC-PVTZ AUX)
    Blend: AUG-CC-PVTZ-JKFIT
	 Reference Energy          =    -566.1899471184236745 [Eh]
	 Singles Energy            =      -0.0000000000000000 [Eh]
	 Same-Spin Energy          =      -0.5584711935113988 [Eh]
	 Opposite-Spin Energy      =      -1.6361619423446223 [Eh]
	 Correlation Energy        =      -2.1946331358560212 [Eh]
	 Total Energy              =    -568.3845802542797401 [Eh]

	 ================> DF-SCS-MP2 Energies <==================
	-----------------------------------------------------------
	 SCS Same-Spin Scale       =       0.3333333333333333 [-]
	 SCS Opposite-Spin Scale   =       1.2000000000000000 [-]
	 SCS Same-Spin Energy      =      -0.1861570645037996 [Eh]
	 SCS Opposite-Spin Energy  =      -1.9633943308135466 [Eh]
	 SCS Correlation Energy    =      -2.1495513953173462 [Eh]
	 SCS Total Energy          =    -568.3394985137409776 [Eh]
	-----------------------------------------------------------

  Dipole Moment: [D]
     X:    -1.4920      Y:     2.0079      Z:     0.2661     Total:     2.5157

*** Psi4 exiting successfully. Buy a developer a beer!
