                               Psi4 1.4a3.dev225

  ==> Input File <==

--------------------------------------------------------------------------
#psi4
#
memory 32 gb

molecule  {
-2 1
  O        1.2418990     1.7387210     0.0152810
  O       -2.6413570    -1.2266940     0.7274850
  O       -3.7043420     0.3864070    -0.4664210
  O        3.4703830     0.1255600     0.5711880
  O        2.3854260    -1.4395470    -0.6909830
  C       -0.1276340    -0.2366180    -0.0826630
  C       -1.3618580     0.6471040    -0.0555340
  C        1.1863480     0.5046370    -0.0325880
  C       -2.6840850    -0.1418490     0.0703610
  C        2.4643896    -0.3599346    -0.0577262
  H       -0.1095280    -0.8768510    -0.9719090
  H       -0.1594520    -0.9384420     0.7596660
  H       -1.4090040     1.2787430    -0.9482840
  H       -1.2952160     1.3354770     0.7981610
units angstrom
no_reorient  #important for SAPT in psi4, default
symmetry c1  #important for SAPT in psi4, default
}

set PROPERTIES_ORIGIN ["COM"]
properties('MP2/aug-cc-pvtz', properties = ['dipole'])
--------------------------------------------------------------------------

    Molecular point group: c1
  Charge       = -2
  Multiplicity = 1
  Basis Set: AUG-CC-PVTZ
    Blend: AUG-CC-PVTZ
  Basis Set: (AUG-CC-PVTZ AUX)
    Blend: AUG-CC-PVTZ-JKFIT

    Orbital Energies [Eh]
    ---------------------

    Doubly Occupied:

       1A    -20.290932     2A    -20.231284     3A    -20.220673
       4A    -20.206578     5A    -20.205353     6A    -11.067485
       7A    -11.066613     8A    -11.048562     9A    -10.965358
      10A    -10.956322    11A     -1.120897    12A     -1.085393
      13A     -1.073747    14A     -0.990237    15A     -0.973045
      16A     -0.790961    17A     -0.663571    18A     -0.556437
      19A     -0.440950    20A     -0.419266    21A     -0.380866
      22A     -0.370749    23A     -0.366843    24A     -0.327354
      25A     -0.318166    26A     -0.301027    27A     -0.293359
      28A     -0.269719    29A     -0.240102    30A     -0.229310
      31A     -0.215738    32A     -0.205219    33A     -0.139212
      34A     -0.126498    35A     -0.119842    36A     -0.116057
      37A     -0.107396    38A     -0.101951

  @DF-RHF Final Energy:  -566.18824811858053

   => Energetics <=

    Nuclear Repulsion Energy =            481.8603374748846591
    One-Electron Energy =               -1758.8910318429650488
    Two-Electron Energy =                 710.8424462494997442
    Total Energy =                       -566.1882481185805318
  Basis Set: (AUG-CC-PVTZ AUX)
    Blend: AUG-CC-PVTZ-RI
    Molecular point group: c1

    Geometry (in Angstrom), charge = -2, multiplicity = 1:

       Center              X                  Y                   Z               Mass
    ------------   -----------------  -----------------  -----------------  -----------------
         O            1.222748520228     1.744842162322     0.013607457438    15.994914619570
         O           -2.660507479772    -1.220572837678     0.725811457438    15.994914619570
         O           -3.723492479772     0.392528162322    -0.468094542562    15.994914619570
         O            3.451232520228     0.131681162322     0.569514457438    15.994914619570
         O            2.366275520228    -1.433425837678    -0.692656542562    15.994914619570
         C           -0.146784479772    -0.230496837678    -0.084336542562    12.000000000000
         C           -1.381008479772     0.653225162322    -0.057207542562    12.000000000000
         C            1.167197520228     0.510758162322    -0.034261542562    12.000000000000
         C           -2.703235479772    -0.135727837678     0.068687457438    12.000000000000
         C            2.445239120228    -0.353813437678    -0.059399742562    12.000000000000
         H           -0.128678479772    -0.870729837678    -0.973582542562     1.007825032230
         H           -0.178602479772    -0.932320837678     0.757992457438     1.007825032230
         H           -1.428154479772     1.284864162322    -0.949957542562     1.007825032230
         H           -1.314366479772     1.341598162322     0.796487457438     1.007825032230

  Basis Set: AUG-CC-PVTZ
    Blend: AUG-CC-PVTZ
  Basis Set: (AUG-CC-PVTZ AUX)
    Blend: AUG-CC-PVTZ-JKFIT
	 Reference Energy          =    -566.1882481185805318 [Eh]
	 Singles Energy            =      -0.0000000000000000 [Eh]
	 Same-Spin Energy          =      -0.5586253341367886 [Eh]
	 Opposite-Spin Energy      =      -1.6364194440584818 [Eh]
	 Correlation Energy        =      -2.1950447781952702 [Eh]
	 Total Energy              =    -568.3832928967758562 [Eh]

	 ================> DF-SCS-MP2 Energies <==================
	-----------------------------------------------------------
	 SCS Same-Spin Scale       =       0.3333333333333333 [-]
	 SCS Opposite-Spin Scale   =       1.2000000000000000 [-]
	 SCS Same-Spin Energy      =      -0.1862084447122629 [Eh]
	 SCS Opposite-Spin Energy  =      -1.9637033328701781 [Eh]
	 SCS Correlation Energy    =      -2.1499117775824410 [Eh]
	 SCS Total Energy          =    -568.3381598961630061 [Eh]
	-----------------------------------------------------------

  Dipole Moment: [D]
     X:     1.1764      Y:     2.0678      Z:    -0.4899     Total:     2.4289

*** Psi4 exiting successfully. Buy a developer a beer!
