                               Psi4 1.3.2 release

  ==> Input File <==

--------------------------------------------------------------------------
#psi4
#
memory 32 gb

molecule  {
-2 1
  O       -1.2362950     1.7303800    -0.2239510
  O        2.6794370    -1.1261430    -0.8901160
  O        3.7000480     0.2611620     0.6076450
  O       -3.2904550    -0.3020480    -0.9006360
  O       -2.5973840    -0.9175860     1.2002500
  C        0.1663024    -0.1596723     0.0452114
  C        1.3712430     0.6068110     0.1462360
  C       -1.1988410     0.5019860    -0.0558080
  C        2.7080760    -0.1725680    -0.0543080
  C       -2.4977060    -0.3261360     0.0823270
  H        0.0210760    -0.9244250     0.9209780
  H        0.2133690    -0.9136840    -0.8118550
  H        1.4153100     1.1406480     1.1027450
  H        1.3130670     1.3830990    -0.6295990
units angstrom
no_reorient  #important for SAPT in psi4, default
symmetry c1  #important for SAPT in psi4, default
}

set PROPERTIES_ORIGIN ["COM"]
properties('MP2/aug-cc-pvtz', properties = ['dipole'])
--------------------------------------------------------------------------

    Molecular point group: c1
  Charge       = -2
  Multiplicity = 1
  Basis Set: AUG-CC-PVTZ
    Blend: AUG-CC-PVTZ
  Basis Set: (AUG-CC-PVTZ AUX)
    Blend: AUG-CC-PVTZ-JKFIT

    Orbital Energies [Eh]
    ---------------------

    Doubly Occupied:

       1A    -20.285280     2A    -20.232662     3A    -20.232059
       4A    -20.211494     5A    -20.210513     6A    -11.075729
       7A    -11.069893     8A    -11.055373     9A    -10.975881
      10A    -10.954506    11A     -1.119313    12A     -1.087075
      13A     -1.077006    14A     -1.001182    15A     -0.978540
      16A     -0.802885    17A     -0.660958    18A     -0.554532
      19A     -0.439527    20A     -0.426387    21A     -0.383026
      22A     -0.369669    23A     -0.363918    24A     -0.336841
      25A     -0.332083    26A     -0.304958    27A     -0.284375
      28A     -0.269044    29A     -0.256289    30A     -0.231982
      31A     -0.205049    32A     -0.192470    33A     -0.147807
      34A     -0.129871    35A     -0.127459    36A     -0.119851
      37A     -0.111812    38A     -0.101489

  @DF-RHF Final Energy:  -566.17751674429883

   => Energetics <=

    Nuclear Repulsion Energy =            480.1162623221900958
    One-Electron Energy =               -1755.1499787671482409
    Two-Electron Energy =                 708.8561997006593174
    Total Energy =                       -566.1775167442988277
  Basis Set: (AUG-CC-PVTZ AUX)
    Blend: AUG-CC-PVTZ-RI
    Molecular point group: c1

    Geometry (in Angstrom), charge = -2, multiplicity = 1:

       Center              X                  Y                   Z               Mass
    ------------   -----------------  -----------------  -----------------  -----------------
         O           -1.220075535151     1.727393365153    -0.218693226744    15.994914619570
         O            2.695656464849    -1.129129634847    -0.884858226744    15.994914619570
         O            3.716267464849     0.258175365153     0.612902773256    15.994914619570
         O           -3.274235535151    -0.305034634847    -0.895378226744    15.994914619570
         O           -2.581164535151    -0.920572634847     1.205507773256    15.994914619570
         C            0.182521864849    -0.162658934847     0.050469173256    12.000000000000
         C            1.387462464849     0.603824365153     0.151493773256    12.000000000000
         C           -1.182621535151     0.498999365153    -0.050550226744    12.000000000000
         C            2.724295464849    -0.175554634847    -0.049050226744    12.000000000000
         C           -2.481486535151    -0.329122634847     0.087584773256    12.000000000000
         H            0.037295464849    -0.927411634847     0.926235773256     1.007825032230
         H            0.229588464849    -0.916670634847    -0.806597226744     1.007825032230
         H            1.431529464849     1.137661365153     1.108002773256     1.007825032230
         H            1.329286464849     1.380112365153    -0.624341226744     1.007825032230

  Basis Set: AUG-CC-PVTZ
    Blend: AUG-CC-PVTZ
  Basis Set: (AUG-CC-PVTZ AUX)
    Blend: AUG-CC-PVTZ-JKFIT
	 Reference Energy          =    -566.1775167442988277 [Eh]
	 Singles Energy            =      -0.0000000000000000 [Eh]
	 Same-Spin Energy          =      -0.5596229248640046 [Eh]
	 Opposite-Spin Energy      =      -1.6376773933952118 [Eh]
	 Correlation Energy        =      -2.1973003182592166 [Eh]
	 Total Energy              =    -568.3748170625580087 [Eh]

	 ================> DF-SCS-MP2 Energies <==================
	-----------------------------------------------------------
	 SCS Same-Spin Scale       =       0.3333333333333333 [-]
	 SCS Opposite-Spin Scale   =       1.2000000000000000 [-]
	 SCS Same-Spin Energy      =      -0.1865409749546682 [Eh]
	 SCS Opposite-Spin Energy  =      -1.9652128720742541 [Eh]
	 SCS Correlation Energy    =      -2.1517538470289224 [Eh]
	 SCS Total Energy          =    -568.3292705913277132 [Eh]
	-----------------------------------------------------------

  Dipole Moment: [D]
     X:    -1.1957      Y:     2.0334      Z:     0.2273     Total:     2.3699

*** Psi4 exiting successfully. Buy a developer a beer!
