                               Psi4 1.3.2 release

  ==> Input File <==

--------------------------------------------------------------------------
#psi4
#
memory 32 gb

molecule  {
-2 1
  O       -1.3226870     1.7246837    -0.2240319
  O        2.6794370    -1.1261430    -0.8901160
  O        3.7000480     0.2611620     0.6076450
  O       -3.2904550    -0.3020480    -0.9006360
  O       -2.5973840    -0.9175860     1.2002500
  C        0.1162890    -0.2520540     0.0602520
  C        1.3712430     0.6068110     0.1462360
  C       -1.1988410     0.5019860    -0.0558080
  C        2.7080760    -0.1725680    -0.0543080
  C       -2.4977060    -0.3261360     0.0823270
  H        0.0210760    -0.9244250     0.9209780
  H        0.2133690    -0.9136840    -0.8118550
  H        1.4153100     1.1406480     1.1027450
  H        1.3130670     1.3830990    -0.6295990
units angstrom
no_reorient  #important for SAPT in psi4, default
symmetry c1  #important for SAPT in psi4, default
}

set PROPERTIES_ORIGIN ["COM"]
properties('MP2/aug-cc-pvtz', properties = ['dipole'])
--------------------------------------------------------------------------

    Molecular point group: c1
  Charge       = -2
  Multiplicity = 1
  Basis Set: AUG-CC-PVTZ
    Blend: AUG-CC-PVTZ
  Basis Set: (AUG-CC-PVTZ AUX)
    Blend: AUG-CC-PVTZ-JKFIT

    Orbital Energies [Eh]
    ---------------------

    Doubly Occupied:

       1A    -20.288816     2A    -20.228708     3A    -20.227243
       4A    -20.211592     5A    -20.210955     6A    -11.069884
       7A    -11.068033     8A    -11.054809     9A    -10.973926
      10A    -10.960875    11A     -1.119354    12A     -1.083000
      13A     -1.077168    14A     -0.996965    15A     -0.978827
      16A     -0.792805    17A     -0.662045    18A     -0.556149
      19A     -0.441828    20A     -0.421577    21A     -0.380912
      22A     -0.371704    23A     -0.363840    24A     -0.330106
      25A     -0.326471    26A     -0.307217    27A     -0.285786
      28A     -0.273521    29A     -0.249493    30A     -0.231220
      31A     -0.216500    32A     -0.208711    33A     -0.144084
      34A     -0.128502    35A     -0.125480    36A     -0.118309
      37A     -0.112225    38A     -0.097143

  @DF-RHF Final Energy:  -566.19101202092281

   => Energetics <=

    Nuclear Repulsion Energy =            479.1431937924334079
    One-Electron Energy =               -1753.2768476607275261
    Two-Electron Energy =                 707.9426418473711919
    Total Energy =                       -566.1910120209228126
  Basis Set: (AUG-CC-PVTZ AUX)
    Blend: AUG-CC-PVTZ-RI
    Molecular point group: c1

    Geometry (in Angstrom), charge = -2, multiplicity = 1:

       Center              X                  Y                   Z               Mass
    ------------   -----------------  -----------------  -----------------  -----------------
         O           -1.292704253005     1.730027921425    -0.220018473293    15.994914619570
         O            2.709419746995    -1.120798778575    -0.886102573293    15.994914619570
         O            3.730030746995     0.266506221425     0.611658426707    15.994914619570
         O           -3.260472253005    -0.296703778575    -0.896622573293    15.994914619570
         O           -2.567401253005    -0.912241778575     1.204263426707    15.994914619570
         C            0.146271746995    -0.246709778575     0.064265426707    12.000000000000
         C            1.401225746995     0.612155221425     0.150249426707    12.000000000000
         C           -1.168858253005     0.507330221425    -0.051794573293    12.000000000000
         C            2.738058746995    -0.167223778575    -0.050294573293    12.000000000000
         C           -2.467723253005    -0.320791778575     0.086340426707    12.000000000000
         H            0.051058746995    -0.919080778575     0.924991426707     1.007825032230
         H            0.243351746995    -0.908339778575    -0.807841573293     1.007825032230
         H            1.445292746995     1.145992221425     1.106758426707     1.007825032230
         H            1.343049746995     1.388443221425    -0.625585573293     1.007825032230

  Basis Set: AUG-CC-PVTZ
    Blend: AUG-CC-PVTZ
  Basis Set: (AUG-CC-PVTZ AUX)
    Blend: AUG-CC-PVTZ-JKFIT
	 Reference Energy          =    -566.1910120209228126 [Eh]
	 Singles Energy            =      -0.0000000000000000 [Eh]
	 Same-Spin Energy          =      -0.5581547712080006 [Eh]
	 Opposite-Spin Energy      =      -1.6356395932706969 [Eh]
	 Correlation Energy        =      -2.1937943644786975 [Eh]
	 Total Energy              =    -568.3848063854014754 [Eh]

	 ================> DF-SCS-MP2 Energies <==================
	-----------------------------------------------------------
	 SCS Same-Spin Scale       =       0.3333333333333333 [-]
	 SCS Opposite-Spin Scale   =       1.2000000000000000 [-]
	 SCS Same-Spin Energy      =      -0.1860515904026669 [Eh]
	 SCS Opposite-Spin Energy  =      -1.9627675119248362 [Eh]
	 SCS Correlation Energy    =      -2.1488191023275030 [Eh]
	 SCS Total Energy          =    -568.3398311232502920 [Eh]
	-----------------------------------------------------------

  Dipole Moment: [D]
     X:    -1.0945      Y:     1.9992      Z:     0.2431     Total:     2.2921

*** Psi4 exiting successfully. Buy a developer a beer!
