                               Psi4 1.3.2 release

  ==> Input File <==

--------------------------------------------------------------------------
#psi4
#
memory 32 gb

molecule  {
-2 1
  O       -1.2146520     1.7308694    -0.2238027
  O        2.6794370    -1.1261430    -0.8901160
  O        3.7000480     0.2611620     0.6076450
  O       -3.2904550    -0.3020480    -0.9006360
  O       -2.5973840    -0.9175860     1.2002500
  C        0.1162890    -0.2520540     0.0602520
  C        1.3712430     0.6068110     0.1462360
  C       -1.1988410     0.5019860    -0.0558080
  C        2.7080760    -0.1725680    -0.0543080
  C       -2.4977060    -0.3261360     0.0823270
  H        0.0210760    -0.9244250     0.9209780
  H        0.2133690    -0.9136840    -0.8118550
  H        1.4153100     1.1406480     1.1027450
  H        1.3130670     1.3830990    -0.6295990
units angstrom
no_reorient  #important for SAPT in psi4, default
symmetry c1  #important for SAPT in psi4, default
}

set PROPERTIES_ORIGIN ["COM"]
properties('MP2/aug-cc-pvtz', properties = ['dipole'])
--------------------------------------------------------------------------

    Molecular point group: c1
  Charge       = -2
  Multiplicity = 1
  Basis Set: AUG-CC-PVTZ
    Blend: AUG-CC-PVTZ
  Basis Set: (AUG-CC-PVTZ AUX)
    Blend: AUG-CC-PVTZ-JKFIT

    Orbital Energies [Eh]
    ---------------------

    Doubly Occupied:

       1A    -20.288522     2A    -20.232272     3A    -20.231348
       4A    -20.209701     5A    -20.208867     6A    -11.073337
       7A    -11.070080     8A    -11.052606     9A    -10.969367
      10A    -10.957756    11A     -1.119351    12A     -1.087134
      13A     -1.075161    14A     -1.000670    15A     -0.976845
      16A     -0.788731    17A     -0.661322    18A     -0.557307
      19A     -0.440174    20A     -0.421677    21A     -0.382296
      22A     -0.369964    23A     -0.364182    24A     -0.331860
      25A     -0.324723    26A     -0.305566    27A     -0.284837
      28A     -0.274385    29A     -0.248647    30A     -0.229387
      31A     -0.214841    32A     -0.206698    33A     -0.147770
      34A     -0.129018    35A     -0.126247    36A     -0.116770
      37A     -0.110391    38A     -0.099998

  @DF-RHF Final Energy:  -566.19155643918566

   => Energetics <=

    Nuclear Repulsion Energy =            479.4637468968696226
    One-Electron Energy =               -1753.9309940850796465
    Two-Electron Energy =                 708.2756907490243066
    Total Energy =                       -566.1915564391856606
  Basis Set: (AUG-CC-PVTZ AUX)
    Blend: AUG-CC-PVTZ-RI
    Molecular point group: c1

    Geometry (in Angstrom), charge = -2, multiplicity = 1:

       Center              X                  Y                   Z               Mass
    ------------   -----------------  -----------------  -----------------  -----------------
         O           -1.196668837204     1.735526567896    -0.219814730827    15.994914619570
         O            2.697420162796    -1.121485832104    -0.886128030827    15.994914619570
         O            3.718031162796     0.265819167896     0.611632969173    15.994914619570
         O           -3.272471837204    -0.297390832104    -0.896648030827    15.994914619570
         O           -2.579400837204    -0.912928832104     1.204237969173    15.994914619570
         C            0.134272162796    -0.247396832104     0.064239969173    12.000000000000
         C            1.389226162796     0.611468167896     0.150223969173    12.000000000000
         C           -1.180857837204     0.506643167896    -0.051820030827    12.000000000000
         C            2.726059162796    -0.167910832104    -0.050320030827    12.000000000000
         C           -2.479722837204    -0.321478832104     0.086314969173    12.000000000000
         H            0.039059162796    -0.919767832104     0.924965969173     1.007825032230
         H            0.231352162796    -0.909026832104    -0.807867030827     1.007825032230
         H            1.433293162796     1.145305167896     1.106732969173     1.007825032230
         H            1.331050162796     1.387756167896    -0.625611030827     1.007825032230

  Basis Set: AUG-CC-PVTZ
    Blend: AUG-CC-PVTZ
  Basis Set: (AUG-CC-PVTZ AUX)
    Blend: AUG-CC-PVTZ-JKFIT
	 Reference Energy          =    -566.1915564391856606 [Eh]
	 Singles Energy            =      -0.0000000000000000 [Eh]
	 Same-Spin Energy          =      -0.5583008257483995 [Eh]
	 Opposite-Spin Energy      =      -1.6358666038289937 [Eh]
	 Correlation Energy        =      -2.1941674295773934 [Eh]
	 Total Energy              =    -568.3857238687630797 [Eh]

	 ================> DF-SCS-MP2 Energies <==================
	-----------------------------------------------------------
	 SCS Same-Spin Scale       =       0.3333333333333333 [-]
	 SCS Opposite-Spin Scale   =       1.2000000000000000 [-]
	 SCS Same-Spin Energy      =      -0.1861002752494665 [Eh]
	 SCS Opposite-Spin Energy  =      -1.9630399245947925 [Eh]
	 SCS Correlation Energy    =      -2.1491401998442590 [Eh]
	 SCS Total Energy          =    -568.3406966390299431 [Eh]
	-----------------------------------------------------------

  Dipole Moment: [D]
     X:    -1.3417      Y:     1.9990      Z:     0.2583     Total:     2.4214

*** Psi4 exiting successfully. Buy a developer a beer!
