                               Psi4 1.3.2 release

  ==> Input File <==

--------------------------------------------------------------------------
#psi4
#
memory 32 gb

molecule  {
-2 1
  O       -1.2362950     1.7303800    -0.2239510
  O        2.6794370    -1.1261430    -0.8901160
  O        3.7000480     0.2611620     0.6076450
  O       -3.2904550    -0.3020480    -0.9006360
  O       -2.5973840    -0.9175860     1.2002500
  C        0.1162890    -0.2520540     0.0602520
  C        1.3712430     0.6068110     0.1462360
  C       -1.2018605     0.6010170    -0.0693634
  C        2.7080760    -0.1725680    -0.0543080
  C       -2.4977060    -0.3261360     0.0823270
  H        0.0210760    -0.9244250     0.9209780
  H        0.2133690    -0.9136840    -0.8118550
  H        1.4153100     1.1406480     1.1027450
  H        1.3130670     1.3830990    -0.6295990
units angstrom
no_reorient  #important for SAPT in psi4, default
symmetry c1  #important for SAPT in psi4, default
}

set PROPERTIES_ORIGIN ["COM"]
properties('MP2/aug-cc-pvtz', properties = ['dipole'])
--------------------------------------------------------------------------

    Molecular point group: c1
  Charge       = -2
  Multiplicity = 1
  Basis Set: AUG-CC-PVTZ
    Blend: AUG-CC-PVTZ
  Basis Set: (AUG-CC-PVTZ AUX)
    Blend: AUG-CC-PVTZ-JKFIT

    Orbital Energies [Eh]
    ---------------------

    Doubly Occupied:

       1A    -20.296623     2A    -20.227111     3A    -20.226348
       4A    -20.208048     5A    -20.207111     6A    -11.065947
       7A    -11.059275     8A    -11.050541     9A    -10.963826
      10A    -10.955115    11A     -1.184296    12A     -1.087525
      13A     -1.073432    14A     -0.994688    15A     -0.975117
      16A     -0.779042    17A     -0.643275    18A     -0.542905
      19A     -0.450491    20A     -0.424568    21A     -0.388781
      22A     -0.377291    23A     -0.366726    24A     -0.328977
      25A     -0.324004    26A     -0.306970    27A     -0.295462
      28A     -0.276379    29A     -0.259290    30A     -0.233975
      31A     -0.220146    32A     -0.209931    33A     -0.143587
      34A     -0.124553    35A     -0.123631    36A     -0.113922
      37A     -0.108781    38A     -0.078145

  @DF-RHF Final Energy:  -566.18526584043536

   => Energetics <=

    Nuclear Repulsion Energy =            479.7374517906253573
    One-Electron Energy =               -1754.4537677288608393
    Two-Electron Energy =                 708.5310500978001755
    Total Energy =                       -566.1852658404353633
  Basis Set: (AUG-CC-PVTZ AUX)
    Blend: AUG-CC-PVTZ-RI
    Molecular point group: c1

    Geometry (in Angstrom), charge = -2, multiplicity = 1:

       Center              X                  Y                   Z               Mass
    ------------   -----------------  -----------------  -----------------  -----------------
         O           -1.215656307061     1.726839279419    -0.218816988363    15.994914619570
         O            2.700075692939    -1.129683720581    -0.884981988363    15.994914619570
         O            3.720686692939     0.257621279419     0.612779011637    15.994914619570
         O           -3.269816307061    -0.305588720581    -0.895501988363    15.994914619570
         O           -2.576745307061    -0.921126720581     1.205384011637    15.994914619570
         C            0.136927692939    -0.255594720581     0.065386011637    12.000000000000
         C            1.391881692939     0.603270279419     0.151370011637    12.000000000000
         C           -1.181221807061     0.597476279419    -0.064229388363    12.000000000000
         C            2.728714692939    -0.176108720581    -0.049173988363    12.000000000000
         C           -2.477067307061    -0.329676720581     0.087461011637    12.000000000000
         H            0.041714692939    -0.927965720581     0.926112011637     1.007825032230
         H            0.234007692939    -0.917224720581    -0.806720988363     1.007825032230
         H            1.435948692939     1.137107279419     1.107879011637     1.007825032230
         H            1.333705692939     1.379558279419    -0.624464988363     1.007825032230

  Basis Set: AUG-CC-PVTZ
    Blend: AUG-CC-PVTZ
  Basis Set: (AUG-CC-PVTZ AUX)
    Blend: AUG-CC-PVTZ-JKFIT
	 Reference Energy          =    -566.1852658404353633 [Eh]
	 Singles Energy            =      -0.0000000000000000 [Eh]
	 Same-Spin Energy          =      -0.5557546020306672 [Eh]
	 Opposite-Spin Energy      =      -1.6305297888715162 [Eh]
	 Correlation Energy        =      -2.1862843909021832 [Eh]
	 Total Energy              =    -568.3715502313375509 [Eh]

	 ================> DF-SCS-MP2 Energies <==================
	-----------------------------------------------------------
	 SCS Same-Spin Scale       =       0.3333333333333333 [-]
	 SCS Opposite-Spin Scale   =       1.2000000000000000 [-]
	 SCS Same-Spin Energy      =      -0.1852515340102224 [Eh]
	 SCS Opposite-Spin Energy  =      -1.9566357466458193 [Eh]
	 SCS Correlation Energy    =      -2.1418872806560416 [Eh]
	 SCS Total Energy          =    -568.3271531210914418 [Eh]
	-----------------------------------------------------------

  Dipole Moment: [D]
     X:    -1.4180      Y:     2.6203      Z:     0.1980     Total:     2.9860

*** Psi4 exiting successfully. Buy a developer a beer!
