                               Psi4 1.4a3.dev225

  ==> Input File <==

--------------------------------------------------------------------------
#psi4
#
memory 32 gb

molecule  {
-2 1
  O        1.2418990     1.7387210     0.0152810
  O       -2.6413570    -1.2266940     0.7274850
  O       -3.7043420     0.3864070    -0.4664210
  O        3.4703830     0.1255600     0.5711880
  O        2.3854260    -1.4395470    -0.6909830
  C       -0.1276340    -0.2366180    -0.0826630
  C       -1.3618580     0.6471040    -0.0555340
  C        1.1863480     0.5046370    -0.0325880
  C       -2.6840850    -0.1418490     0.0703610
  C        2.4408465    -0.3712966    -0.0724446
  H       -0.1095280    -0.8768510    -0.9719090
  H       -0.1594520    -0.9384420     0.7596660
  H       -1.4090040     1.2787430    -0.9482840
  H       -1.2952160     1.3354770     0.7981610
units angstrom
no_reorient  #important for SAPT in psi4, default
symmetry c1  #important for SAPT in psi4, default
}

set PROPERTIES_ORIGIN ["COM"]
properties('MP2/aug-cc-pvtz', properties = ['dipole'])
--------------------------------------------------------------------------

    Molecular point group: c1
  Charge       = -2
  Multiplicity = 1
  Basis Set: AUG-CC-PVTZ
    Blend: AUG-CC-PVTZ
  Basis Set: (AUG-CC-PVTZ AUX)
    Blend: AUG-CC-PVTZ-JKFIT

    Orbital Energies [Eh]
    ---------------------

    Doubly Occupied:

       1A    -20.292297     2A    -20.237193     3A    -20.214429
       4A    -20.207115     5A    -20.205948     6A    -11.068257
       7A    -11.067426     8A    -11.049140     9A    -10.966384
      10A    -10.957059    11A     -1.122127    12A     -1.090842
      13A     -1.074322    14A     -0.978686    15A     -0.973614
      16A     -0.792579    17A     -0.667086    18A     -0.559688
      19A     -0.441994    20A     -0.420147    21A     -0.382865
      22A     -0.372079    23A     -0.367735    24A     -0.327036
      25A     -0.317699    26A     -0.301186    27A     -0.292964
      28A     -0.270527    29A     -0.240445    30A     -0.230002
      31A     -0.217049    32A     -0.205996    33A     -0.134933
      34A     -0.127498    35A     -0.118461    36A     -0.115107
      37A     -0.107938    38A     -0.102835

  @DF-RHF Final Energy:  -566.18406271977699

   => Energetics <=

    Nuclear Repulsion Energy =            481.9863019600378493
    One-Electron Energy =               -1759.1033529854796598
    Two-Electron Energy =                 710.9329883056649351
    Total Energy =                       -566.1840627197769891
  Basis Set: (AUG-CC-PVTZ AUX)
    Blend: AUG-CC-PVTZ-RI
    Molecular point group: c1

    Geometry (in Angstrom), charge = -2, multiplicity = 1:

       Center              X                  Y                   Z               Mass
    ------------   -----------------  -----------------  -----------------  -----------------
         O            1.224710365211     1.745788957039     0.014833940747    15.994914619570
         O           -2.658545634789    -1.219626042961     0.727037940747    15.994914619570
         O           -3.721530634789     0.393474957039    -0.466868059253    15.994914619570
         O            3.453194365211     0.132627957039     0.570740940747    15.994914619570
         O            2.368237365211    -1.432479042961    -0.691430059253    15.994914619570
         C           -0.144822634789    -0.229550042961    -0.083110059253    12.000000000000
         C           -1.379046634789     0.654171957039    -0.055981059253    12.000000000000
         C            1.169159365211     0.511704957039    -0.033035059253    12.000000000000
         C           -2.701273634789    -0.134781042961     0.069913940747    12.000000000000
         C            2.423657865211    -0.364228642961    -0.072891659253    12.000000000000
         H           -0.126716634789    -0.869783042961    -0.972356059253     1.007825032230
         H           -0.176640634789    -0.931374042961     0.759218940747     1.007825032230
         H           -1.426192634789     1.285810957039    -0.948731059253     1.007825032230
         H           -1.312404634789     1.342544957039     0.797713940747     1.007825032230

  Basis Set: AUG-CC-PVTZ
    Blend: AUG-CC-PVTZ
  Basis Set: (AUG-CC-PVTZ AUX)
    Blend: AUG-CC-PVTZ-JKFIT
	 Reference Energy          =    -566.1840627197769891 [Eh]
	 Singles Energy            =      -0.0000000000000000 [Eh]
	 Same-Spin Energy          =      -0.5589459344076689 [Eh]
	 Opposite-Spin Energy      =      -1.6371932146113815 [Eh]
	 Correlation Energy        =      -2.1961391490190505 [Eh]
	 Total Energy              =    -568.3802018687960071 [Eh]

	 ================> DF-SCS-MP2 Energies <==================
	-----------------------------------------------------------
	 SCS Same-Spin Scale       =       0.3333333333333333 [-]
	 SCS Opposite-Spin Scale   =       1.2000000000000000 [-]
	 SCS Same-Spin Energy      =      -0.1863153114692230 [Eh]
	 SCS Opposite-Spin Energy  =      -1.9646318575336577 [Eh]
	 SCS Correlation Energy    =      -2.1509471690028805 [Eh]
	 SCS Total Energy          =    -568.3350098887798367 [Eh]
	-----------------------------------------------------------

  Dipole Moment: [D]
     X:     0.9809      Y:     1.9254      Z:    -0.6553     Total:     2.2580

*** Psi4 exiting successfully. Buy a developer a beer!
