                               Psi4 1.3.2 release

  ==> Input File <==

--------------------------------------------------------------------------
#psi4
#
memory 32 gb

molecule  {
-2 1
  O       -1.2362950     1.7303800    -0.2239510
  O        2.6794370    -1.1261430    -0.8901160
  O        3.7000480     0.2611620     0.6076450
  O       -3.2904550    -0.3020480    -0.9006360
  O       -2.5973840    -0.9175860     1.2002500
  C        0.1421126    -0.2062946     0.0527979
  C        1.3712430     0.6068110     0.1462360
  C       -1.1988410     0.5019860    -0.0558080
  C        2.7080760    -0.1725680    -0.0543080
  C       -2.4977060    -0.3261360     0.0823270
  H        0.0210760    -0.9244250     0.9209780
  H        0.2133690    -0.9136840    -0.8118550
  H        1.4153100     1.1406480     1.1027450
  H        1.3130670     1.3830990    -0.6295990
units angstrom
no_reorient  #important for SAPT in psi4, default
symmetry c1  #important for SAPT in psi4, default
}

set PROPERTIES_ORIGIN ["COM"]
properties('MP2/aug-cc-pvtz', properties = ['dipole'])
--------------------------------------------------------------------------

    Molecular point group: c1
  Charge       = -2
  Multiplicity = 1
  Basis Set: AUG-CC-PVTZ
    Blend: AUG-CC-PVTZ
  Basis Set: (AUG-CC-PVTZ AUX)
    Blend: AUG-CC-PVTZ-JKFIT

    Orbital Energies [Eh]
    ---------------------

    Doubly Occupied:

       1A    -20.286948     2A    -20.232124     3A    -20.231299
       4A    -20.210727     5A    -20.209860     6A    -11.073992
       7A    -11.069816     8A    -11.054119     9A    -10.972756
      10A    -10.956433    11A     -1.119261    12A     -1.086684
      13A     -1.076240    14A     -1.000560    15A     -0.977849
      16A     -0.795516    17A     -0.661295    18A     -0.555687
      19A     -0.439986    20A     -0.423750    21A     -0.382311
      22A     -0.369571    23A     -0.363618    24A     -0.332736
      25A     -0.329666    26A     -0.305295    27A     -0.284339
      28A     -0.271682    29A     -0.253182    30A     -0.231145
      31A     -0.209389    32A     -0.201826    33A     -0.147478
      34A     -0.129210    35A     -0.126924    36A     -0.118451
      37A     -0.111248    38A     -0.100682

  @DF-RHF Final Energy:  -566.18779156206813

   => Energetics <=

    Nuclear Repulsion Energy =            479.7447174877582370
    One-Electron Energy =               -1754.4577112117135584
    Two-Electron Energy =                 708.5252021618872504
    Total Energy =                       -566.1877915620681279
  Basis Set: (AUG-CC-PVTZ AUX)
    Blend: AUG-CC-PVTZ-RI
    Molecular point group: c1

    Geometry (in Angstrom), charge = -2, multiplicity = 1:

       Center              X                  Y                   Z               Mass
    ------------   -----------------  -----------------  -----------------  -----------------
         O           -1.218059800698     1.731278398363    -0.219325409293    15.994914619570
         O            2.697672199302    -1.125244601637    -0.885490409293    15.994914619570
         O            3.718283199302     0.262060398363     0.612270590707    15.994914619570
         O           -3.272219800698    -0.301149601637    -0.896010409293    15.994914619570
         O           -2.579148800698    -0.916687601637     1.204875590707    15.994914619570
         C            0.160347799302    -0.205396201637     0.057423490707    12.000000000000
         C            1.389478199302     0.607709398363     0.150861590707    12.000000000000
         C           -1.180605800698     0.502884398363    -0.051182409293    12.000000000000
         C            2.726311199302    -0.171669601637    -0.049682409293    12.000000000000
         C           -2.479470800698    -0.325237601637     0.086952590707    12.000000000000
         H            0.039311199302    -0.923526601637     0.925603590707     1.007825032230
         H            0.231604199302    -0.912785601637    -0.807229409293     1.007825032230
         H            1.433545199302     1.141546398363     1.107370590707     1.007825032230
         H            1.331302199302     1.383997398363    -0.624973409293     1.007825032230

  Basis Set: AUG-CC-PVTZ
    Blend: AUG-CC-PVTZ
  Basis Set: (AUG-CC-PVTZ AUX)
    Blend: AUG-CC-PVTZ-JKFIT
	 Reference Energy          =    -566.1877915620681279 [Eh]
	 Singles Energy            =      -0.0000000000000000 [Eh]
	 Same-Spin Energy          =      -0.5588257516061796 [Eh]
	 Opposite-Spin Energy      =      -1.6365197852680626 [Eh]
	 Correlation Energy        =      -2.1953455368742425 [Eh]
	 Total Energy              =    -568.3831370989423704 [Eh]

	 ================> DF-SCS-MP2 Energies <==================
	-----------------------------------------------------------
	 SCS Same-Spin Scale       =       0.3333333333333333 [-]
	 SCS Opposite-Spin Scale   =       1.2000000000000000 [-]
	 SCS Same-Spin Energy      =      -0.1862752505353932 [Eh]
	 SCS Opposite-Spin Energy  =      -1.9638237423216751 [Eh]
	 SCS Correlation Energy    =      -2.1500989928570684 [Eh]
	 SCS Total Energy          =    -568.3378905549252522 [Eh]
	-----------------------------------------------------------

  Dipole Moment: [D]
     X:    -1.2479      Y:     2.0124      Z:     0.2423     Total:     2.3803

*** Psi4 exiting successfully. Buy a developer a beer!
