                               Psi4 1.3.2 release

  ==> Input File <==

--------------------------------------------------------------------------
#psi4
#
memory 32 gb

molecule  {
-2 1
  O       -1.2362950     1.7303800    -0.2239510
  O        2.6794370    -1.1261430    -0.8901160
  O        3.7000480     0.2611620     0.6076450
  O       -3.2904550    -0.3020480    -0.9006360
  O       -2.5973840    -0.9175860     1.2002500
  C        0.1162890    -0.2520540     0.0602520
  C        1.3712430     0.6068110     0.1462360
  C       -1.1988410     0.5019860    -0.0558080
  C        2.7080760    -0.1725680    -0.0543080
  C       -2.6656718    -0.4332266     0.1001903
  H        0.0210760    -0.9244250     0.9209780
  H        0.2133690    -0.9136840    -0.8118550
  H        1.4153100     1.1406480     1.1027450
  H        1.3130670     1.3830990    -0.6295990
units angstrom
no_reorient  #important for SAPT in psi4, default
symmetry c1  #important for SAPT in psi4, default
}

set PROPERTIES_ORIGIN ["COM"]
properties('MP2/aug-cc-pvtz', properties = ['dipole'])
--------------------------------------------------------------------------

    Molecular point group: c1
  Charge       = -2
  Multiplicity = 1
  Basis Set: AUG-CC-PVTZ
    Blend: AUG-CC-PVTZ
  Basis Set: (AUG-CC-PVTZ AUX)
    Blend: AUG-CC-PVTZ-JKFIT

    Orbital Energies [Eh]
    ---------------------

    Doubly Occupied:

       1A    -20.263969     2A    -20.247075     3A    -20.245117
       4A    -20.203241     5A    -20.202347     6A    -11.080402
       7A    -11.044986     8A    -11.033428     9A    -10.953927
      10A    -10.946982    11A     -1.146610    12A     -1.081469
      13A     -1.068515    14A     -1.067567    15A     -0.970314
      16A     -0.772786    17A     -0.632117    18A     -0.504685
      19A     -0.430052    20A     -0.421963    21A     -0.386725
      22A     -0.368725    23A     -0.354072    24A     -0.349662
      25A     -0.327173    26A     -0.309110    27A     -0.293958
      28A     -0.272263    29A     -0.244590    30A     -0.221773
      31A     -0.205995    32A     -0.199385    33A     -0.178186
      34A     -0.159380    35A     -0.118728    36A     -0.106388
      37A     -0.104285    38A     -0.046009

  @DF-RHF Final Energy:  -566.16775724380420

   => Energetics <=

    Nuclear Repulsion Energy =            478.4144179778481885
    One-Electron Energy =               -1752.0364286723313398
    Two-Electron Energy =                 707.4542534506789480
    Total Energy =                       -566.1677572438042034
  Basis Set: (AUG-CC-PVTZ AUX)
    Blend: AUG-CC-PVTZ-RI
    Molecular point group: c1

    Geometry (in Angstrom), charge = -2, multiplicity = 1:

       Center              X                  Y                   Z               Mass
    ------------   -----------------  -----------------  -----------------  -----------------
         O           -1.201911342667     1.744015378869    -0.221435106580    15.994914619570
         O            2.713820657333    -1.112507621131    -0.887600106580    15.994914619570
         O            3.734431657333     0.274797378869     0.610160893420    15.994914619570
         O           -3.256071342667    -0.288412621131    -0.898120106580    15.994914619570
         O           -2.563000342667    -0.903950621131     1.202765893420    15.994914619570
         C            0.150672657333    -0.238418621131     0.062767893420    12.000000000000
         C            1.405626657333     0.620446378869     0.148751893420    12.000000000000
         C           -1.164457342667     0.515621378869    -0.053292106580    12.000000000000
         C            2.742459657333    -0.158932621131    -0.051792106580    12.000000000000
         C           -2.631288142667    -0.419591221131     0.102706193420    12.000000000000
         H            0.055459657333    -0.910789621131     0.923493893420     1.007825032230
         H            0.247752657333    -0.900048621131    -0.809339106580     1.007825032230
         H            1.449693657333     1.154283378869     1.105260893420     1.007825032230
         H            1.347450657333     1.396734378869    -0.627083106580     1.007825032230

  Basis Set: AUG-CC-PVTZ
    Blend: AUG-CC-PVTZ
  Basis Set: (AUG-CC-PVTZ AUX)
    Blend: AUG-CC-PVTZ-JKFIT
	 Reference Energy          =    -566.1677572438042034 [Eh]
	 Singles Energy            =      -0.0000000000000000 [Eh]
	 Same-Spin Energy          =      -0.5566831949687880 [Eh]
	 Opposite-Spin Energy      =      -1.6313573496507998 [Eh]
	 Correlation Energy        =      -2.1880405446195876 [Eh]
	 Total Energy              =    -568.3557977884238426 [Eh]

	 ================> DF-SCS-MP2 Energies <==================
	-----------------------------------------------------------
	 SCS Same-Spin Scale       =       0.3333333333333333 [-]
	 SCS Opposite-Spin Scale   =       1.2000000000000000 [-]
	 SCS Same-Spin Energy      =      -0.1855610649895960 [Eh]
	 SCS Opposite-Spin Energy  =      -1.9576288195809597 [Eh]
	 SCS Correlation Energy    =      -2.1431898845705559 [Eh]
	 SCS Total Energy          =    -568.3109471283747780 [Eh]
	-----------------------------------------------------------

  Dipole Moment: [D]
     X:    -2.6216      Y:     1.3769      Z:     0.3020     Total:     2.9765

*** Psi4 exiting successfully. Buy a developer a beer!
