                               Psi4 1.3.2 release

  ==> Input File <==

--------------------------------------------------------------------------
#psi4
#
memory 32 gb

molecule  {
-2 1
  O       -1.2362950     1.7303800    -0.2239510
  O        2.6794370    -1.1261430    -0.8901160
  O        3.7000480     0.2611620     0.6076450
  O       -3.2904550    -0.3020480    -0.9006360
  O       -2.5973840    -0.9175860     1.2002500
  C        0.1162890    -0.2520540     0.0602520
  C        1.3712430     0.6068110     0.1462360
  C       -1.3718390     0.6011758    -0.0710750
  C        2.7080760    -0.1725680    -0.0543080
  C       -2.4977060    -0.3261360     0.0823270
  H        0.0210760    -0.9244250     0.9209780
  H        0.2133690    -0.9136840    -0.8118550
  H        1.4153100     1.1406480     1.1027450
  H        1.3130670     1.3830990    -0.6295990
units angstrom
no_reorient  #important for SAPT in psi4, default
symmetry c1  #important for SAPT in psi4, default
}

set PROPERTIES_ORIGIN ["COM"]
properties('MP2/aug-cc-pvtz', properties = ['dipole'])
--------------------------------------------------------------------------

    Molecular point group: c1
  Charge       = -2
  Multiplicity = 1
  Basis Set: AUG-CC-PVTZ
    Blend: AUG-CC-PVTZ
  Basis Set: (AUG-CC-PVTZ AUX)
    Blend: AUG-CC-PVTZ-JKFIT

    Orbital Energies [Eh]
    ---------------------

    Doubly Occupied:

       1A    -20.301351     2A    -20.235692     3A    -20.235363
       4A    -20.205067     5A    -20.203039     6A    -11.072743
       7A    -11.066935     8A    -11.047436     9A    -10.958196
      10A    -10.950814    11A     -1.183159    12A     -1.100900
      13A     -1.069858    14A     -1.005483    15A     -0.971548
      16A     -0.759560    17A     -0.653955    18A     -0.566703
      19A     -0.447825    20A     -0.422395    21A     -0.388711
      22A     -0.380254    23A     -0.360319    24A     -0.337019
      25A     -0.323639    26A     -0.304192    27A     -0.295937
      28A     -0.277417    29A     -0.258903    30A     -0.226372
      31A     -0.206933    32A     -0.193738    33A     -0.152576
      34A     -0.131411    35A     -0.122901    36A     -0.112365
      37A     -0.105322    38A     -0.082029

  @DF-RHF Final Energy:  -566.16309409615030

   => Energetics <=

    Nuclear Repulsion Energy =            479.4862028039043480
    One-Electron Energy =               -1753.8624743161030892
    Two-Electron Energy =                 708.2131774160485520
    Total Energy =                       -566.1630940961503029
  Basis Set: (AUG-CC-PVTZ AUX)
    Blend: AUG-CC-PVTZ-RI
    Molecular point group: c1

    Geometry (in Angstrom), charge = -2, multiplicity = 1:

       Center              X                  Y                   Z               Mass
    ------------   -----------------  -----------------  -----------------  -----------------
         O           -1.201492009770     1.726826046625    -0.218674360847    15.994914619570
         O            2.714239990230    -1.129696953375    -0.884839360847    15.994914619570
         O            3.734850990230     0.257608046625     0.612921639153    15.994914619570
         O           -3.255652009770    -0.305601953375    -0.895359360847    15.994914619570
         O           -2.562581009770    -0.921139953375     1.205526639153    15.994914619570
         C            0.151091990230    -0.255607953375     0.065528639153    12.000000000000
         C            1.406045990230     0.603257046625     0.151512639153    12.000000000000
         C           -1.337036009770     0.597621846625    -0.065798360847    12.000000000000
         C            2.742878990230    -0.176121953375    -0.049031360847    12.000000000000
         C           -2.462903009770    -0.329689953375     0.087603639153    12.000000000000
         H            0.055878990230    -0.927978953375     0.926254639153     1.007825032230
         H            0.248171990230    -0.917237953375    -0.806578360847     1.007825032230
         H            1.450112990230     1.137094046625     1.108021639153     1.007825032230
         H            1.347869990230     1.379545046625    -0.624322360847     1.007825032230

  Basis Set: AUG-CC-PVTZ
    Blend: AUG-CC-PVTZ
  Basis Set: (AUG-CC-PVTZ AUX)
    Blend: AUG-CC-PVTZ-JKFIT
	 Reference Energy          =    -566.1630940961503029 [Eh]
	 Singles Energy            =      -0.0000000000000000 [Eh]
	 Same-Spin Energy          =      -0.5572327148879371 [Eh]
	 Opposite-Spin Energy      =      -1.6338672585627216 [Eh]
	 Correlation Energy        =      -2.1910999734506587 [Eh]
	 Total Energy              =    -568.3541940696009078 [Eh]

	 ================> DF-SCS-MP2 Energies <==================
	-----------------------------------------------------------
	 SCS Same-Spin Scale       =       0.3333333333333333 [-]
	 SCS Opposite-Spin Scale   =       1.2000000000000000 [-]
	 SCS Same-Spin Energy      =      -0.1857442382959790 [Eh]
	 SCS Opposite-Spin Energy  =      -1.9606407102752659 [Eh]
	 SCS Correlation Energy    =      -2.1463849485712450 [Eh]
	 SCS Total Energy          =    -568.3094790447215701 [Eh]
	-----------------------------------------------------------

  Dipole Moment: [D]
     X:    -2.4157      Y:     2.7100      Z:     0.2141     Total:     3.6367

*** Psi4 exiting successfully. Buy a developer a beer!
