                               Psi4 1.3.2 release

  ==> Input File <==

--------------------------------------------------------------------------
#psi4
#
memory 32 gb

molecule  {
-2 1
  O       -1.2579239     1.7295998    -0.2234390
  O        2.6794370    -1.1261430    -0.8901160
  O        3.7000480     0.2611620     0.6076450
  O       -3.2904550    -0.3020480    -0.9006360
  O       -2.5973840    -0.9175860     1.2002500
  C        0.1162890    -0.2520540     0.0602520
  C        1.3712430     0.6068110     0.1462360
  C       -1.1988410     0.5019860    -0.0558080
  C        2.7080760    -0.1725680    -0.0543080
  C       -2.4977060    -0.3261360     0.0823270
  H        0.0210760    -0.9244250     0.9209780
  H        0.2133690    -0.9136840    -0.8118550
  H        1.4153100     1.1406480     1.1027450
  H        1.3130670     1.3830990    -0.6295990
units angstrom
no_reorient  #important for SAPT in psi4, default
symmetry c1  #important for SAPT in psi4, default
}

set PROPERTIES_ORIGIN ["COM"]
properties('MP2/aug-cc-pvtz', properties = ['dipole'])
--------------------------------------------------------------------------

    Molecular point group: c1
  Charge       = -2
  Multiplicity = 1
  Basis Set: AUG-CC-PVTZ
    Blend: AUG-CC-PVTZ
  Basis Set: (AUG-CC-PVTZ AUX)
    Blend: AUG-CC-PVTZ-JKFIT

    Orbital Energies [Eh]
    ---------------------

    Doubly Occupied:

       1A    -20.288679     2A    -20.230872     3A    -20.229748
       4A    -20.210473     5A    -20.209719     6A    -11.071283
       7A    -11.069953     8A    -11.053510     9A    -10.971196
      10A    -10.959034    11A     -1.119287    12A     -1.085515
      13A     -1.075982    14A     -0.999215    15A     -0.977655
      16A     -0.790404    17A     -0.661605    18A     -0.556883
      19A     -0.440839    20A     -0.421639    21A     -0.381708
      22A     -0.370636    23A     -0.364110    24A     -0.331058
      25A     -0.325533    26A     -0.306268    27A     -0.285179
      28A     -0.274059    29A     -0.249012    30A     -0.230118
      31A     -0.215622    32A     -0.207631    33A     -0.146331
      34A     -0.128409    35A     -0.126328    36A     -0.117450
      37A     -0.111140    38A     -0.098991

  @DF-RHF Final Energy:  -566.19181594374436

   => Energetics <=

    Nuclear Repulsion Energy =            479.3127470938784995
    One-Electron Energy =               -1753.6229831771122463
    Two-Electron Energy =                 708.1184201394894444
    Total Energy =                       -566.1918159437443592
  Basis Set: (AUG-CC-PVTZ AUX)
    Blend: AUG-CC-PVTZ-RI
    Molecular point group: c1

    Geometry (in Angstrom), charge = -2, multiplicity = 1:

       Center              X                  Y                   Z               Mass
    ------------   -----------------  -----------------  -----------------  -----------------
         O           -1.235134472498     1.734397983975    -0.219491427447    15.994914619570
         O            2.702226427502    -1.121344816025    -0.886168427447    15.994914619570
         O            3.722837427502     0.265960183975     0.611592572553    15.994914619570
         O           -3.267665572498    -0.297249816025    -0.896688427447    15.994914619570
         O           -2.574594572498    -0.912787816025     1.204197572553    15.994914619570
         C            0.139078427502    -0.247255816025     0.064199572553    12.000000000000
         C            1.394032427502     0.611609183975     0.150183572553    12.000000000000
         C           -1.176051572498     0.506784183975    -0.051860427447    12.000000000000
         C            2.730865427502    -0.167769816025    -0.050360427447    12.000000000000
         C           -2.474916572498    -0.321337816025     0.086274572553    12.000000000000
         H            0.043865427502    -0.919626816025     0.924925572553     1.007825032230
         H            0.236158427502    -0.908885816025    -0.807907427447     1.007825032230
         H            1.438099427502     1.145446183975     1.106692572553     1.007825032230
         H            1.335856427502     1.387897183975    -0.625651427447     1.007825032230

  Basis Set: AUG-CC-PVTZ
    Blend: AUG-CC-PVTZ
  Basis Set: (AUG-CC-PVTZ AUX)
    Blend: AUG-CC-PVTZ-JKFIT
	 Reference Energy          =    -566.1918159437443592 [Eh]
	 Singles Energy            =      -0.0000000000000000 [Eh]
	 Same-Spin Energy          =      -0.5582219726280815 [Eh]
	 Opposite-Spin Energy      =      -1.6357359762038262 [Eh]
	 Correlation Energy        =      -2.1939579488319074 [Eh]
	 Total Energy              =    -568.3857738925762533 [Eh]

	 ================> DF-SCS-MP2 Energies <==================
	-----------------------------------------------------------
	 SCS Same-Spin Scale       =       0.3333333333333333 [-]
	 SCS Opposite-Spin Scale   =       1.2000000000000000 [-]
	 SCS Same-Spin Energy      =      -0.1860739908760272 [Eh]
	 SCS Opposite-Spin Energy  =      -1.9628831714445913 [Eh]
	 SCS Correlation Energy    =      -2.1489571623206185 [Eh]
	 SCS Total Energy          =    -568.3407731060649439 [Eh]
	-----------------------------------------------------------

  Dipole Moment: [D]
     X:    -1.2422      Y:     1.9967      Z:     0.2523     Total:     2.3651

*** Psi4 exiting successfully. Buy a developer a beer!
