                               Psi4 1.3.2 release

  ==> Input File <==

--------------------------------------------------------------------------
#psi4
#
memory 32 gb

molecule  {
-2 1
  O       -1.2362950     1.7303800    -0.2239510
  O        2.6794370    -1.1261430    -0.8901160
  O        3.7000480     0.2611620     0.6076450
  O       -3.2025241    -0.2237325    -0.9607418
  O       -2.5973840    -0.9175860     1.2002500
  C        0.1162890    -0.2520540     0.0602520
  C        1.3712430     0.6068110     0.1462360
  C       -1.1988410     0.5019860    -0.0558080
  C        2.7080760    -0.1725680    -0.0543080
  C       -2.4977060    -0.3261360     0.0823270
  H        0.0210760    -0.9244250     0.9209780
  H        0.2133690    -0.9136840    -0.8118550
  H        1.4153100     1.1406480     1.1027450
  H        1.3130670     1.3830990    -0.6295990
units angstrom
no_reorient  #important for SAPT in psi4, default
symmetry c1  #important for SAPT in psi4, default
}

set PROPERTIES_ORIGIN ["COM"]
properties('MP2/aug-cc-pvtz', properties = ['dipole'])
--------------------------------------------------------------------------

    Molecular point group: c1
  Charge       = -2
  Multiplicity = 1
  Basis Set: AUG-CC-PVTZ
    Blend: AUG-CC-PVTZ
  Basis Set: (AUG-CC-PVTZ AUX)
    Blend: AUG-CC-PVTZ-JKFIT

    Orbital Energies [Eh]
    ---------------------

    Doubly Occupied:

       1A    -20.282160     2A    -20.237996     3A    -20.234629
       4A    -20.208554     5A    -20.207701     6A    -11.074867
       7A    -11.062233     8A    -11.051250     9A    -10.966864
      10A    -10.955970    11A     -1.116825    12A     -1.083897
      13A     -1.073975    14A     -1.009719    15A     -0.975680
      16A     -0.786385    17A     -0.657661    18A     -0.553351
      19A     -0.437393    20A     -0.420339    21A     -0.381936
      22A     -0.367700    23A     -0.361241    24A     -0.335548
      25A     -0.323647    26A     -0.304627    27A     -0.284397
      28A     -0.273710    29A     -0.246574    30A     -0.227765
      31A     -0.212786    32A     -0.203392    33A     -0.155367
      34A     -0.134067    35A     -0.124919    36A     -0.114647
      37A     -0.109284    38A     -0.093189

  @DF-RHF Final Energy:  -566.18809265686036

   => Energetics <=

    Nuclear Repulsion Energy =            480.2893952674982074
    One-Electron Energy =               -1755.6504873634314663
    Two-Electron Energy =                 709.1729994390727825
    Total Energy =                       -566.1880926568603627
  Basis Set: (AUG-CC-PVTZ AUX)
    Blend: AUG-CC-PVTZ-RI
    Molecular point group: c1

    Geometry (in Angstrom), charge = -2, multiplicity = 1:

       Center              X                  Y                   Z               Mass
    ------------   -----------------  -----------------  -----------------  -----------------
         O           -1.225674518163     1.726392924458    -0.213270531672    15.994914619570
         O            2.690057481837    -1.130130075542    -0.879435531672    15.994914619570
         O            3.710668481837     0.257174924458     0.618325468328    15.994914619570
         O           -3.191903618163    -0.227719575542    -0.950061331672    15.994914619570
         O           -2.586763518163    -0.921573075542     1.210930468328    15.994914619570
         C            0.126909481837    -0.256041075542     0.070932468328    12.000000000000
         C            1.381863481837     0.602823924458     0.156916468328    12.000000000000
         C           -1.188220518163     0.497998924458    -0.045127531672    12.000000000000
         C            2.718696481837    -0.176555075542    -0.043627531672    12.000000000000
         C           -2.487085518163    -0.330123075542     0.093007468328    12.000000000000
         H            0.031696481837    -0.928412075542     0.931658468328     1.007825032230
         H            0.223989481837    -0.917671075542    -0.801174531672     1.007825032230
         H            1.425930481837     1.136660924458     1.113425468328     1.007825032230
         H            1.323687481837     1.379111924458    -0.618918531672     1.007825032230

  Basis Set: AUG-CC-PVTZ
    Blend: AUG-CC-PVTZ
  Basis Set: (AUG-CC-PVTZ AUX)
    Blend: AUG-CC-PVTZ-JKFIT
	 Reference Energy          =    -566.1880926568603627 [Eh]
	 Singles Energy            =      -0.0000000000000000 [Eh]
	 Same-Spin Energy          =      -0.5585290343555944 [Eh]
	 Opposite-Spin Energy      =      -1.6361873060133818 [Eh]
	 Correlation Energy        =      -2.1947163403689762 [Eh]
	 Total Energy              =    -568.3828089972292901 [Eh]

	 ================> DF-SCS-MP2 Energies <==================
	-----------------------------------------------------------
	 SCS Same-Spin Scale       =       0.3333333333333333 [-]
	 SCS Opposite-Spin Scale   =       1.2000000000000000 [-]
	 SCS Same-Spin Energy      =      -0.1861763447851981 [Eh]
	 SCS Opposite-Spin Energy  =      -1.9634247672160581 [Eh]
	 SCS Correlation Energy    =      -2.1496011120012564 [Eh]
	 SCS Total Energy          =    -568.3376937688616408 [Eh]
	-----------------------------------------------------------

  Dipole Moment: [D]
     X:    -1.5778      Y:     1.8422      Z:     0.3270     Total:     2.4474

*** Psi4 exiting successfully. Buy a developer a beer!
