                               Psi4 1.3.2 release

  ==> Input File <==

--------------------------------------------------------------------------
#psi4
#
memory 32 gb

molecule  {
-2 1
  O       -1.2362950     1.7303800    -0.2239510
  O        2.6794370    -1.1261430    -0.8901160
  O        3.7000480     0.2611620     0.6076450
  O       -3.2904550    -0.3020480    -0.9006360
  O       -2.5973840    -0.9175860     1.2002500
  C        0.1162890    -0.2520540     0.0602520
  C        1.3712430     0.6068110     0.1462360
  C       -1.1988410     0.5019860    -0.0558080
  C        2.7080760    -0.1725680    -0.0543080
  C       -2.4137231    -0.2725907     0.0733954
  H        0.0210760    -0.9244250     0.9209780
  H        0.2133690    -0.9136840    -0.8118550
  H        1.4153100     1.1406480     1.1027450
  H        1.3130670     1.3830990    -0.6295990
units angstrom
no_reorient  #important for SAPT in psi4, default
symmetry c1  #important for SAPT in psi4, default
}

set PROPERTIES_ORIGIN ["COM"]
properties('MP2/aug-cc-pvtz', properties = ['dipole'])
--------------------------------------------------------------------------

    Molecular point group: c1
  Charge       = -2
  Multiplicity = 1
  Basis Set: AUG-CC-PVTZ
    Blend: AUG-CC-PVTZ
  Basis Set: (AUG-CC-PVTZ AUX)
    Blend: AUG-CC-PVTZ-JKFIT

    Orbital Energies [Eh]
    ---------------------

    Doubly Occupied:

       1A    -20.298051     2A    -20.231510     3A    -20.229359
       4A    -20.212446     5A    -20.211680     6A    -11.078271
       7A    -11.075882     8A    -11.055836     9A    -10.975836
      10A    -10.962307    11A     -1.126827    12A     -1.078006
      13A     -1.066194    14A     -0.979634    15A     -0.969691
      16A     -0.797030    17A     -0.684256    18A     -0.584273
      19A     -0.446173    20A     -0.424260    21A     -0.381267
      22A     -0.376775    23A     -0.366095    24A     -0.329005
      25A     -0.323051    26A     -0.305090    27A     -0.283848
      28A     -0.265752    29A     -0.242436    30A     -0.231932
      31A     -0.217872    32A     -0.206642    33A     -0.135634
      34A     -0.133620    35A     -0.125119    36A     -0.114824
      37A     -0.113026    38A     -0.110592

  @DF-RHF Final Energy:  -566.17230027865139

   => Energetics <=

    Nuclear Repulsion Energy =            479.8854677261373354
    One-Electron Energy =               -1754.6153313160987182
    Two-Electron Energy =                 708.5575633113101048
    Total Energy =                       -566.1723002786513916
  Basis Set: (AUG-CC-PVTZ AUX)
    Blend: AUG-CC-PVTZ-RI
    Molecular point group: c1

    Geometry (in Angstrom), charge = -2, multiplicity = 1:

       Center              X                  Y                   Z               Mass
    ------------   -----------------  -----------------  -----------------  -----------------
         O           -1.222906211364     1.730629599825    -0.219202289315    15.994914619570
         O            2.692825788636    -1.125893400175    -0.885367289315    15.994914619570
         O            3.713436788636     0.261411599825     0.612393710685    15.994914619570
         O           -3.277066211364    -0.301798400175    -0.895887289315    15.994914619570
         O           -2.583995211364    -0.917336400175     1.204998710685    15.994914619570
         C            0.129677788636    -0.251804400175     0.065000710685    12.000000000000
         C            1.384631788636     0.607060599825     0.150984710685    12.000000000000
         C           -1.185452211364     0.502235599825    -0.051059289315    12.000000000000
         C            2.721464788636    -0.172318400175    -0.049559289315    12.000000000000
         C           -2.400334311364    -0.272341100175     0.078144110685    12.000000000000
         H            0.034464788636    -0.924175400175     0.925726710685     1.007825032230
         H            0.226757788636    -0.913434400175    -0.807106289315     1.007825032230
         H            1.428698788636     1.140897599825     1.107493710685     1.007825032230
         H            1.326455788636     1.383348599825    -0.624850289315     1.007825032230

  Basis Set: AUG-CC-PVTZ
    Blend: AUG-CC-PVTZ
  Basis Set: (AUG-CC-PVTZ AUX)
    Blend: AUG-CC-PVTZ-JKFIT
	 Reference Energy          =    -566.1723002786513916 [Eh]
	 Singles Energy            =      -0.0000000000000000 [Eh]
	 Same-Spin Energy          =      -0.5609781041114921 [Eh]
	 Opposite-Spin Energy      =      -1.6417363562062177 [Eh]
	 Correlation Energy        =      -2.2027144603177096 [Eh]
	 Total Energy              =    -568.3750147389690710 [Eh]

	 ================> DF-SCS-MP2 Energies <==================
	-----------------------------------------------------------
	 SCS Same-Spin Scale       =       0.3333333333333333 [-]
	 SCS Opposite-Spin Scale   =       1.2000000000000000 [-]
	 SCS Same-Spin Energy      =      -0.1869927013704973 [Eh]
	 SCS Opposite-Spin Energy  =      -1.9700836274474611 [Eh]
	 SCS Correlation Energy    =      -2.1570763288179586 [Eh]
	 SCS Total Energy          =    -568.3293766074693849 [Eh]
	-----------------------------------------------------------

  Dipole Moment: [D]
     X:    -0.8801      Y:     2.1896      Z:     0.2488     Total:     2.3730

*** Psi4 exiting successfully. Buy a developer a beer!
