                               Psi4 1.3.2 release

  ==> Input File <==

--------------------------------------------------------------------------
#psi4
#
memory 32 gb

molecule  {
-2 1
  O       -1.2362950     1.7303800    -0.2239510
  O        2.6794370    -1.1261430    -0.8901160
  O        3.7000480     0.2611620     0.6076450
  O       -3.2904550    -0.3020480    -0.9006360
  O       -2.5973840    -0.9175860     1.2002500
  C        0.1162890    -0.2520540     0.0602520
  C        1.3712430     0.6068110     0.1462360
  C       -1.1935078     0.5143409    -0.0329376
  C        2.7080760    -0.1725680    -0.0543080
  C       -2.4977060    -0.3261360     0.0823270
  H        0.0210760    -0.9244250     0.9209780
  H        0.2133690    -0.9136840    -0.8118550
  H        1.4153100     1.1406480     1.1027450
  H        1.3130670     1.3830990    -0.6295990
units angstrom
no_reorient  #important for SAPT in psi4, default
symmetry c1  #important for SAPT in psi4, default
}

set PROPERTIES_ORIGIN ["COM"]
properties('MP2/aug-cc-pvtz', properties = ['dipole'])
--------------------------------------------------------------------------

    Molecular point group: c1
  Charge       = -2
  Multiplicity = 1
  Basis Set: AUG-CC-PVTZ
    Blend: AUG-CC-PVTZ
  Basis Set: (AUG-CC-PVTZ AUX)
    Blend: AUG-CC-PVTZ-JKFIT

    Orbital Energies [Eh]
    ---------------------

    Doubly Occupied:

       1A    -20.289144     2A    -20.230527     3A    -20.230366
       4A    -20.210031     5A    -20.209303     6A    -11.071633
       7A    -11.068926     8A    -11.052976     9A    -10.969958
      10A    -10.958245    11A     -1.123132    12A     -1.087227
      13A     -1.075549    14A     -0.999224    15A     -0.977226
      16A     -0.789576    17A     -0.659873    18A     -0.554575
      19A     -0.441530    20A     -0.421709    21A     -0.381768
      22A     -0.371661    23A     -0.364521    24A     -0.330807
      25A     -0.324957    26A     -0.306311    27A     -0.285263
      28A     -0.274462    29A     -0.249315    30A     -0.231072
      31A     -0.215573    32A     -0.208867    33A     -0.146565
      34A     -0.128052    35A     -0.126136    36A     -0.116774
      37A     -0.110755    38A     -0.097527

  @DF-RHF Final Energy:  -566.19238535417867

   => Energetics <=

    Nuclear Repulsion Energy =            479.4178706531178591
    One-Electron Energy =               -1753.8382792339980369
    Two-Electron Energy =                 708.2280232267014526
    Total Energy =                       -566.1923853541786684
  Basis Set: (AUG-CC-PVTZ AUX)
    Blend: AUG-CC-PVTZ-RI
    Molecular point group: c1

    Geometry (in Angstrom), charge = -2, multiplicity = 1:

       Center              X                  Y                   Z               Mass
    ------------   -----------------  -----------------  -----------------  -----------------
         O           -1.216352337006     1.734061993164    -0.221852347895    15.994914619570
         O            2.699379662994    -1.122461006836    -0.888017347895    15.994914619570
         O            3.719990662994     0.264843993164     0.609743652105    15.994914619570
         O           -3.270512337006    -0.298366006836    -0.898537347895    15.994914619570
         O           -2.577441337006    -0.913904006836     1.202348652105    15.994914619570
         C            0.136231662994    -0.248372006836     0.062350652105    12.000000000000
         C            1.391185662994     0.610492993164     0.148334652105    12.000000000000
         C           -1.173565137006     0.518022893164    -0.030838947895    12.000000000000
         C            2.728018662994    -0.168886006836    -0.052209347895    12.000000000000
         C           -2.477763337006    -0.322454006836     0.084425652105    12.000000000000
         H            0.041018662994    -0.920743006836     0.923076652105     1.007825032230
         H            0.233311662994    -0.910002006836    -0.809756347895     1.007825032230
         H            1.435252662994     1.144329993164     1.104843652105     1.007825032230
         H            1.333009662994     1.386780993164    -0.627500347895     1.007825032230

  Basis Set: AUG-CC-PVTZ
    Blend: AUG-CC-PVTZ
  Basis Set: (AUG-CC-PVTZ AUX)
    Blend: AUG-CC-PVTZ-JKFIT
	 Reference Energy          =    -566.1923853541786684 [Eh]
	 Singles Energy            =      -0.0000000000000000 [Eh]
	 Same-Spin Energy          =      -0.5580101155830423 [Eh]
	 Opposite-Spin Energy      =      -1.6352850979725448 [Eh]
	 Correlation Energy        =      -2.1932952135555870 [Eh]
	 Total Energy              =    -568.3856805677343118 [Eh]

	 ================> DF-SCS-MP2 Energies <==================
	-----------------------------------------------------------
	 SCS Same-Spin Scale       =       0.3333333333333333 [-]
	 SCS Opposite-Spin Scale   =       1.2000000000000000 [-]
	 SCS Same-Spin Energy      =      -0.1860033718610141 [Eh]
	 SCS Opposite-Spin Energy  =      -1.9623421175670537 [Eh]
	 SCS Correlation Energy    =      -2.1483454894280678 [Eh]
	 SCS Total Energy          =    -568.3407308436067069 [Eh]
	-----------------------------------------------------------

  Dipole Moment: [D]
     X:    -1.2763      Y:     2.0547      Z:     0.2765     Total:     2.4345

*** Psi4 exiting successfully. Buy a developer a beer!
