                               Psi4 1.3.2 release

  ==> Input File <==

--------------------------------------------------------------------------
#psi4
#
memory 32 gb

molecule  {
-2 1
  O       -1.1065127     1.7272028    -0.2259432
  O        2.6794370    -1.1261430    -0.8901160
  O        3.7000480     0.2611620     0.6076450
  O       -3.2904550    -0.3020480    -0.9006360
  O       -2.5973840    -0.9175860     1.2002500
  C        0.1162890    -0.2520540     0.0602520
  C        1.3712430     0.6068110     0.1462360
  C       -1.1988410     0.5019860    -0.0558080
  C        2.7080760    -0.1725680    -0.0543080
  C       -2.4977060    -0.3261360     0.0823270
  H        0.0210760    -0.9244250     0.9209780
  H        0.2133690    -0.9136840    -0.8118550
  H        1.4153100     1.1406480     1.1027450
  H        1.3130670     1.3830990    -0.6295990
units angstrom
no_reorient  #important for SAPT in psi4, default
symmetry c1  #important for SAPT in psi4, default
}

set PROPERTIES_ORIGIN ["COM"]
properties('MP2/aug-cc-pvtz', properties = ['dipole'])
--------------------------------------------------------------------------

    Molecular point group: c1
  Charge       = -2
  Multiplicity = 1
  Basis Set: AUG-CC-PVTZ
    Blend: AUG-CC-PVTZ
  Basis Set: (AUG-CC-PVTZ AUX)
    Blend: AUG-CC-PVTZ-JKFIT

    Orbital Energies [Eh]
    ---------------------

    Doubly Occupied:

       1A    -20.287881     2A    -20.235631     3A    -20.235122
       4A    -20.207679     5A    -20.206636     6A    -11.078516
       7A    -11.070222     8A    -11.050210     9A    -10.964790
      10A    -10.954394    11A     -1.119870    12A     -1.091014
      13A     -1.073010    14A     -1.004152    15A     -0.974725
      16A     -0.784290    17A     -0.660688    18A     -0.558142
      19A     -0.438482    20A     -0.421781    21A     -0.383912
      22A     -0.368539    23A     -0.364049    24A     -0.333969
      25A     -0.322506    26A     -0.303627    27A     -0.284324
      28A     -0.274819    29A     -0.247595    30A     -0.227532
      31A     -0.212254    32A     -0.203746    33A     -0.151169
      34A     -0.131421    35A     -0.125103    36A     -0.114796
      37A     -0.108431    38A     -0.101706

  @DF-RHF Final Energy:  -566.18803050303768

   => Energetics <=

    Nuclear Repulsion Energy =            479.9741046001115592
    One-Electron Energy =               -1754.9708028740667487
    Two-Electron Energy =                 708.8086677709175092
    Total Energy =                       -566.1880305030376803
  Basis Set: (AUG-CC-PVTZ AUX)
    Blend: AUG-CC-PVTZ-RI
    Molecular point group: c1

    Geometry (in Angstrom), charge = -2, multiplicity = 1:

       Center              X                  Y                   Z               Mass
    ------------   -----------------  -----------------  -----------------  -----------------
         O           -1.100540706136     1.732267221799    -0.221717482783    15.994914619570
         O            2.685408993864    -1.121078578201    -0.885890282783    15.994914619570
         O            3.706019993864     0.266226421799     0.611870717217    15.994914619570
         O           -3.284483006136    -0.296983578201    -0.896410282783    15.994914619570
         O           -2.591412006136    -0.912521578201     1.204475717217    15.994914619570
         C            0.122260993864    -0.246989578201     0.064477717217    12.000000000000
         C            1.377214993864     0.611875421799     0.150461717217    12.000000000000
         C           -1.192869006136     0.507050421799    -0.051582282783    12.000000000000
         C            2.714047993864    -0.167503578201    -0.050082282783    12.000000000000
         C           -2.491734006136    -0.321071578201     0.086552717217    12.000000000000
         H            0.027047993864    -0.919360578201     0.925203717217     1.007825032230
         H            0.219340993864    -0.908619578201    -0.807629282783     1.007825032230
         H            1.421281993864     1.145712421799     1.106970717217     1.007825032230
         H            1.319038993864     1.388163421799    -0.625373282783     1.007825032230

  Basis Set: AUG-CC-PVTZ
    Blend: AUG-CC-PVTZ
  Basis Set: (AUG-CC-PVTZ AUX)
    Blend: AUG-CC-PVTZ-JKFIT
	 Reference Energy          =    -566.1880305030376803 [Eh]
	 Singles Energy            =      -0.0000000000000000 [Eh]
	 Same-Spin Energy          =      -0.5586214670712712 [Eh]
	 Opposite-Spin Energy      =      -1.6364271761989846 [Eh]
	 Correlation Energy        =      -2.1950486432702556 [Eh]
	 Total Energy              =    -568.3830791463079777 [Eh]

	 ================> DF-SCS-MP2 Energies <==================
	-----------------------------------------------------------
	 SCS Same-Spin Scale       =       0.3333333333333333 [-]
	 SCS Opposite-Spin Scale   =       1.2000000000000000 [-]
	 SCS Same-Spin Energy      =      -0.1862071556904237 [Eh]
	 SCS Opposite-Spin Energy  =      -1.9637126114387815 [Eh]
	 SCS Correlation Energy    =      -2.1499197671292052 [Eh]
	 SCS Total Energy          =    -568.3379502701668571 [Eh]
	-----------------------------------------------------------

  Dipole Moment: [D]
     X:    -1.5927      Y:     2.0183      Z:     0.2720     Total:     2.5854

*** Psi4 exiting successfully. Buy a developer a beer!
