                               Psi4 1.3.2 release

  ==> Input File <==

--------------------------------------------------------------------------
#psi4
#
memory 32 gb

molecule  {
-2 1
  O       -1.2362950     1.7303800    -0.2239510
  O        2.6794370    -1.1261430    -0.8901160
  O        3.7000480     0.2611620     0.6076450
  O       -3.2904550    -0.3020480    -0.9006360
  O       -2.5973840    -0.9175860     1.2002500
  C        0.1162890    -0.2520540     0.0602520
  C        1.3712430     0.6068110     0.1462360
  C       -1.2853400     0.5515809    -0.0634415
  C        2.7080760    -0.1725680    -0.0543080
  C       -2.4977060    -0.3261360     0.0823270
  H        0.0210760    -0.9244250     0.9209780
  H        0.2133690    -0.9136840    -0.8118550
  H        1.4153100     1.1406480     1.1027450
  H        1.3130670     1.3830990    -0.6295990
units angstrom
no_reorient  #important for SAPT in psi4, default
symmetry c1  #important for SAPT in psi4, default
}

set PROPERTIES_ORIGIN ["COM"]
properties('MP2/aug-cc-pvtz', properties = ['dipole'])
--------------------------------------------------------------------------

    Molecular point group: c1
  Charge       = -2
  Multiplicity = 1
  Basis Set: AUG-CC-PVTZ
    Blend: AUG-CC-PVTZ
  Basis Set: (AUG-CC-PVTZ AUX)
    Blend: AUG-CC-PVTZ-JKFIT

    Orbital Energies [Eh]
    ---------------------

    Doubly Occupied:

       1A    -20.294447     2A    -20.233377     3A    -20.232418
       4A    -20.207731     5A    -20.206340     6A    -11.071156
       7A    -11.067227     8A    -11.050453     9A    -10.965915
      10A    -10.954788    11A     -1.149943    12A     -1.094790
      13A     -1.072894    14A     -1.002267    15A     -0.974569
      16A     -0.772787    17A     -0.654415    18A     -0.564845
      19A     -0.440198    20A     -0.423267    21A     -0.384158
      22A     -0.374283    23A     -0.362288    24A     -0.334404
      25A     -0.324074    26A     -0.304671    27A     -0.287388
      28A     -0.275616    29A     -0.253484    30A     -0.231888
      31A     -0.212100    32A     -0.202275    33A     -0.149457
      34A     -0.129580    35A     -0.125033    36A     -0.115325
      37A     -0.108210    38A     -0.093789

  @DF-RHF Final Energy:  -566.18653699475556

   => Energetics <=

    Nuclear Repulsion Energy =            479.4236480437734826
    One-Electron Energy =               -1753.8166678498575948
    Two-Electron Energy =                 708.2064828113285557
    Total Energy =                       -566.1865369947555564
  Basis Set: (AUG-CC-PVTZ AUX)
    Blend: AUG-CC-PVTZ-RI
    Molecular point group: c1

    Geometry (in Angstrom), charge = -2, multiplicity = 1:

       Center              X                  Y                   Z               Mass
    ------------   -----------------  -----------------  -----------------  -----------------
         O           -1.208699965785     1.730958786399    -0.219310459903    15.994914619570
         O            2.707032034215    -1.125564213601    -0.885475459903    15.994914619570
         O            3.727643034215     0.261740786399     0.612285540097    15.994914619570
         O           -3.262859965785    -0.301469213601    -0.895995459903    15.994914619570
         O           -2.569788965785    -0.917007213601     1.204890540097    15.994914619570
         C            0.143884034215    -0.251475213601     0.064892540097    12.000000000000
         C            1.398838034215     0.607389786399     0.150876540097    12.000000000000
         C           -1.257744965785     0.552159686399    -0.058800959903    12.000000000000
         C            2.735671034215    -0.171989213601    -0.049667459903    12.000000000000
         C           -2.470110965785    -0.325557213601     0.086967540097    12.000000000000
         H            0.048671034215    -0.923846213601     0.925618540097     1.007825032230
         H            0.240964034215    -0.913105213601    -0.807214459903     1.007825032230
         H            1.442905034215     1.141226786399     1.107385540097     1.007825032230
         H            1.340662034215     1.383677786399    -0.624958459903     1.007825032230

  Basis Set: AUG-CC-PVTZ
    Blend: AUG-CC-PVTZ
  Basis Set: (AUG-CC-PVTZ AUX)
    Blend: AUG-CC-PVTZ-JKFIT
	 Reference Energy          =    -566.1865369947555564 [Eh]
	 Singles Energy            =      -0.0000000000000000 [Eh]
	 Same-Spin Energy          =      -0.5572102019099663 [Eh]
	 Opposite-Spin Energy      =      -1.6339339807630924 [Eh]
	 Correlation Energy        =      -2.1911441826730584 [Eh]
	 Total Energy              =    -568.3776811774285989 [Eh]

	 ================> DF-SCS-MP2 Energies <==================
	-----------------------------------------------------------
	 SCS Same-Spin Scale       =       0.3333333333333333 [-]
	 SCS Opposite-Spin Scale   =       1.2000000000000000 [-]
	 SCS Same-Spin Energy      =      -0.1857367339699887 [Eh]
	 SCS Opposite-Spin Energy  =      -1.9607207769157107 [Eh]
	 SCS Correlation Energy    =      -2.1464575108856994 [Eh]
	 SCS Total Energy          =    -568.3329945056412953 [Eh]
	-----------------------------------------------------------

  Dipole Moment: [D]
     X:    -1.8142      Y:     2.3437      Z:     0.2389     Total:     2.9734

*** Psi4 exiting successfully. Buy a developer a beer!
