                               Psi4 1.3.2 release

  ==> Input File <==

--------------------------------------------------------------------------
#psi4
#
memory 32 gb

molecule  {
-2 1
  O       -1.2362950     1.7303800    -0.2239510
  O        2.6794370    -1.1261430    -0.8901160
  O        3.7000480     0.2611620     0.6076450
  O       -3.2904550    -0.3020480    -0.9006360
  O       -2.5973840    -0.9175860     1.2002500
  C        0.1162890    -0.2520540     0.0602520
  C        1.3859690     0.5847308     0.1477495
  C       -1.1988410     0.5019860    -0.0558080
  C        2.7080760    -0.1725680    -0.0543080
  C       -2.4977060    -0.3261360     0.0823270
  H        0.0210760    -0.9244250     0.9209780
  H        0.2133690    -0.9136840    -0.8118550
  H        1.4153100     1.1406480     1.1027450
  H        1.3130670     1.3830990    -0.6295990
units angstrom
no_reorient  #important for SAPT in psi4, default
symmetry c1  #important for SAPT in psi4, default
}

set PROPERTIES_ORIGIN ["COM"]
properties('MP2/aug-cc-pvtz', properties = ['dipole'])
--------------------------------------------------------------------------

    Molecular point group: c1
  Charge       = -2
  Multiplicity = 1
  Basis Set: AUG-CC-PVTZ
    Blend: AUG-CC-PVTZ
  Basis Set: (AUG-CC-PVTZ AUX)
    Blend: AUG-CC-PVTZ-JKFIT

    Orbital Energies [Eh]
    ---------------------

    Doubly Occupied:

       1A    -20.289100     2A    -20.231891     3A    -20.230913
       4A    -20.209724     5A    -20.208757     6A    -11.072847
       7A    -11.070868     8A    -11.052041     9A    -10.970653
      10A    -10.960212    11A     -1.119714    12A     -1.086688
      13A     -1.076112    14A     -1.000282    15A     -0.977280
      16A     -0.790065    17A     -0.662890    18A     -0.558352
      19A     -0.440764    20A     -0.423025    21A     -0.382041
      22A     -0.370561    23A     -0.363488    24A     -0.332350
      25A     -0.326643    26A     -0.306655    27A     -0.285214
      28A     -0.274301    29A     -0.247621    30A     -0.228427
      31A     -0.212643    32A     -0.205618    33A     -0.147323
      34A     -0.128966    35A     -0.126241    36A     -0.118794
      37A     -0.110625    38A     -0.101134

  @DF-RHF Final Energy:  -566.19095037612135

   => Energetics <=

    Nuclear Repulsion Energy =            479.5540012505246068
    One-Electron Energy =               -1754.0882560720376659
    Two-Electron Energy =                 708.3433044453917091
    Total Energy =                       -566.1909503761213500
  Basis Set: (AUG-CC-PVTZ AUX)
    Blend: AUG-CC-PVTZ-RI
    Molecular point group: c1

    Geometry (in Angstrom), charge = -2, multiplicity = 1:

       Center              X                  Y                   Z               Mass
    ------------   -----------------  -----------------  -----------------  -----------------
         O           -1.217135038416     1.736931467796    -0.220072678815    15.994914619570
         O            2.698596961584    -1.119591532204    -0.886237678815    15.994914619570
         O            3.719207961584     0.267713467796     0.611523321185    15.994914619570
         O           -3.271295038416    -0.295496532204    -0.896757678815    15.994914619570
         O           -2.578224038416    -0.911034532204     1.204128321185    15.994914619570
         C            0.135448961584    -0.245502532204     0.064130321185    12.000000000000
         C            1.405128961584     0.591282267796     0.151627821185    12.000000000000
         C           -1.179681038416     0.508537467796    -0.051929678815    12.000000000000
         C            2.727235961584    -0.166016532204    -0.050429678815    12.000000000000
         C           -2.478546038416    -0.319584532204     0.086205321185    12.000000000000
         H            0.040235961584    -0.917873532204     0.924856321185     1.007825032230
         H            0.232528961584    -0.907132532204    -0.807976678815     1.007825032230
         H            1.434469961584     1.147199467796     1.106623321185     1.007825032230
         H            1.332226961584     1.389650467796    -0.625720678815     1.007825032230

  Basis Set: AUG-CC-PVTZ
    Blend: AUG-CC-PVTZ
  Basis Set: (AUG-CC-PVTZ AUX)
    Blend: AUG-CC-PVTZ-JKFIT
	 Reference Energy          =    -566.1909503761213500 [Eh]
	 Singles Energy            =      -0.0000000000000000 [Eh]
	 Same-Spin Energy          =      -0.5583564806532090 [Eh]
	 Opposite-Spin Energy      =      -1.6359773210856319 [Eh]
	 Correlation Energy        =      -2.1943338017388410 [Eh]
	 Total Energy              =    -568.3852841778601714 [Eh]

	 ================> DF-SCS-MP2 Energies <==================
	-----------------------------------------------------------
	 SCS Same-Spin Scale       =       0.3333333333333333 [-]
	 SCS Opposite-Spin Scale   =       1.2000000000000000 [-]
	 SCS Same-Spin Energy      =      -0.1861188268844030 [Eh]
	 SCS Opposite-Spin Energy  =      -1.9631727853027581 [Eh]
	 SCS Correlation Energy    =      -2.1492916121871612 [Eh]
	 SCS Total Energy          =    -568.3402419883085486 [Eh]
	-----------------------------------------------------------

  Dipole Moment: [D]
     X:    -1.3278      Y:     1.9854      Z:     0.2654     Total:     2.4032

*** Psi4 exiting successfully. Buy a developer a beer!
