                               Psi4 1.4a3.dev225

  ==> Input File <==

--------------------------------------------------------------------------
#psi4
#
memory 32 gb

molecule  {
-2 1
  O        1.2418990     1.7387210     0.0152810
  O       -2.6413570    -1.2266940     0.7274850
  O       -3.7043420     0.3864070    -0.4664210
  O        3.4703830     0.1255600     0.5711880
  O        2.3854260    -1.4395470    -0.6909830
  C       -0.1276340    -0.2366180    -0.0826630
  C       -1.3618580     0.6471040    -0.0555340
  C        1.1863480     0.5046370    -0.0325880
  C       -2.6840850    -0.1418490     0.0703610
  C        2.4384030    -0.3247490    -0.0474202
  H       -0.1095280    -0.8768510    -0.9719090
  H       -0.1594520    -0.9384420     0.7596660
  H       -1.4090040     1.2787430    -0.9482840
  H       -1.2952160     1.3354770     0.7981610
units angstrom
no_reorient  #important for SAPT in psi4, default
symmetry c1  #important for SAPT in psi4, default
}

set PROPERTIES_ORIGIN ["COM"]
properties('MP2/aug-cc-pvtz', properties = ['dipole'])
--------------------------------------------------------------------------

    Molecular point group: c1
  Charge       = -2
  Multiplicity = 1
  Basis Set: AUG-CC-PVTZ
    Blend: AUG-CC-PVTZ
  Basis Set: (AUG-CC-PVTZ AUX)
    Blend: AUG-CC-PVTZ-JKFIT

    Orbital Energies [Eh]
    ---------------------

    Doubly Occupied:

       1A    -20.294947     2A    -20.226995     3A    -20.224027
       4A    -20.207336     5A    -20.206084     6A    -11.070336
       7A    -11.068580     8A    -11.049487     9A    -10.967303
      10A    -10.957660    11A     -1.124350    12A     -1.074694
      13A     -1.074291    14A     -0.979534    15A     -0.973790
      16A     -0.793237    17A     -0.671016    18A     -0.568447
      19A     -0.443236    20A     -0.420150    21A     -0.379693
      22A     -0.372650    23A     -0.367925    24A     -0.326434
      25A     -0.316953    26A     -0.300008    27A     -0.291326
      28A     -0.266661    29A     -0.239179    30A     -0.229207
      31A     -0.215913    32A     -0.204500    33A     -0.135192
      34A     -0.129724    35A     -0.118989    36A     -0.114478
      37A     -0.108604    38A     -0.106307

  @DF-RHF Final Energy:  -566.18247755017467

   => Energetics <=

    Nuclear Repulsion Energy =            482.0157822437115556
    One-Electron Energy =               -1759.1580362896097540
    Two-Electron Energy =                 710.9597764957235313
    Total Energy =                       -566.1824775501746672
  Basis Set: (AUG-CC-PVTZ AUX)
    Blend: AUG-CC-PVTZ-RI
    Molecular point group: c1

    Geometry (in Angstrom), charge = -2, multiplicity = 1:

       Center              X                  Y                   Z               Mass
    ------------   -----------------  -----------------  -----------------  -----------------
         O            1.224913981907     1.741910148575     0.012748659132    15.994914619570
         O           -2.658342018093    -1.223504851425     0.724952659132    15.994914619570
         O           -3.721327018093     0.389596148575    -0.468953340868    15.994914619570
         O            3.453397981907     0.128749148575     0.568655659132    15.994914619570
         O            2.368440981907    -1.436357851425    -0.693515340868    15.994914619570
         C           -0.144619018093    -0.233428851425    -0.085195340868    12.000000000000
         C           -1.378843018093     0.650293148575    -0.058066340868    12.000000000000
         C            1.169362981907     0.507826148575    -0.035120340868    12.000000000000
         C           -2.701070018093    -0.138659851425     0.067828659132    12.000000000000
         C            2.421417981907    -0.321559851425    -0.049952540868    12.000000000000
         H           -0.126513018093    -0.873661851425    -0.974441340868     1.007825032230
         H           -0.176437018093    -0.935252851425     0.757133659132     1.007825032230
         H           -1.425989018093     1.281932148575    -0.950816340868     1.007825032230
         H           -1.312201018093     1.338666148575     0.795628659132     1.007825032230

  Basis Set: AUG-CC-PVTZ
    Blend: AUG-CC-PVTZ
  Basis Set: (AUG-CC-PVTZ AUX)
    Blend: AUG-CC-PVTZ-JKFIT
	 Reference Energy          =    -566.1824775501746672 [Eh]
	 Singles Energy            =      -0.0000000000000000 [Eh]
	 Same-Spin Energy          =      -0.5595948942184834 [Eh]
	 Opposite-Spin Energy      =      -1.6387305472905824 [Eh]
	 Correlation Energy        =      -2.1983254415090658 [Eh]
	 Total Energy              =    -568.3808029916837086 [Eh]

	 ================> DF-SCS-MP2 Energies <==================
	-----------------------------------------------------------
	 SCS Same-Spin Scale       =       0.3333333333333333 [-]
	 SCS Opposite-Spin Scale   =       1.2000000000000000 [-]
	 SCS Same-Spin Energy      =      -0.1865316314061611 [Eh]
	 SCS Opposite-Spin Energy  =      -1.9664766567486989 [Eh]
	 SCS Correlation Energy    =      -2.1530082881548598 [Eh]
	 SCS Total Energy          =    -568.3354858383295323 [Eh]
	-----------------------------------------------------------

  Dipole Moment: [D]
     X:     1.0966      Y:     2.2686      Z:    -0.3823     Total:     2.5486

*** Psi4 exiting successfully. Buy a developer a beer!
