                               Psi4 1.3.2 release

  ==> Input File <==

--------------------------------------------------------------------------
#psi4
#
memory 32 gb

molecule  {
-2 1
  O       -1.2362950     1.7303800    -0.2239510
  O        2.6794370    -1.1261430    -0.8901160
  O        3.7000480     0.2611620     0.6076450
  O       -3.3443060    -0.3544581    -0.8545368
  O       -2.5973840    -0.9175860     1.2002500
  C        0.1162890    -0.2520540     0.0602520
  C        1.3712430     0.6068110     0.1462360
  C       -1.1988410     0.5019860    -0.0558080
  C        2.7080760    -0.1725680    -0.0543080
  C       -2.4977060    -0.3261360     0.0823270
  H        0.0210760    -0.9244250     0.9209780
  H        0.2133690    -0.9136840    -0.8118550
  H        1.4153100     1.1406480     1.1027450
  H        1.3130670     1.3830990    -0.6295990
units angstrom
no_reorient  #important for SAPT in psi4, default
symmetry c1  #important for SAPT in psi4, default
}

set PROPERTIES_ORIGIN ["COM"]
properties('MP2/aug-cc-pvtz', properties = ['dipole'])
--------------------------------------------------------------------------

    Molecular point group: c1
  Charge       = -2
  Multiplicity = 1
  Basis Set: AUG-CC-PVTZ
    Blend: AUG-CC-PVTZ
  Basis Set: (AUG-CC-PVTZ AUX)
    Blend: AUG-CC-PVTZ-JKFIT

    Orbital Energies [Eh]
    ---------------------

    Doubly Occupied:

       1A    -20.292419     2A    -20.227681     3A    -20.227067
       4A    -20.211035     5A    -20.210279     6A    -11.075134
       7A    -11.070573     8A    -11.054180     9A    -10.972408
      10A    -10.959897    11A     -1.121398    12A     -1.087687
      13A     -1.076559    14A     -0.992950    15A     -0.978221
      16A     -0.791545    17A     -0.663822    18A     -0.559481
      19A     -0.442453    20A     -0.422545    21A     -0.382032
      22A     -0.372052    23A     -0.365732    24A     -0.328847
      25A     -0.325781    26A     -0.306560    27A     -0.285550
      28A     -0.274287    29A     -0.250116    30A     -0.231092
      31A     -0.216739    32A     -0.209447    33A     -0.140363
      34A     -0.128688    35A     -0.123792    36A     -0.118314
      37A     -0.111683    38A     -0.102933

  @DF-RHF Final Energy:  -566.19084781888932

   => Energetics <=

    Nuclear Repulsion Energy =            478.9016854411686381
    One-Electron Energy =               -1752.7623801933632421
    Two-Electron Energy =                 707.6698469333052799
    Total Energy =                       -566.1908478188893241
  Basis Set: (AUG-CC-PVTZ AUX)
    Blend: AUG-CC-PVTZ-RI
    Molecular point group: c1

    Geometry (in Angstrom), charge = -2, multiplicity = 1:

       Center              X                  Y                   Z               Mass
    ------------   -----------------  -----------------  -----------------  -----------------
         O           -1.209926623065     1.740912782320    -0.225066855454    15.994914619570
         O            2.705805376935    -1.115610217680    -0.891231855454    15.994914619570
         O            3.726416376935     0.271694782320     0.606529144546    15.994914619570
         O           -3.317937623065    -0.343925317680    -0.855652655454    15.994914619570
         O           -2.571015623065    -0.907053217680     1.199134144546    15.994914619570
         C            0.142657376935    -0.241521217680     0.059136144546    12.000000000000
         C            1.397611376935     0.617343782320     0.145120144546    12.000000000000
         C           -1.172472623065     0.512518782320    -0.056923855454    12.000000000000
         C            2.734444376935    -0.162035217680    -0.055423855454    12.000000000000
         C           -2.471337623065    -0.315603217680     0.081211144546    12.000000000000
         H            0.047444376935    -0.913892217680     0.919862144546     1.007825032230
         H            0.239737376935    -0.903151217680    -0.812970855454     1.007825032230
         H            1.441678376935     1.151180782320     1.101629144546     1.007825032230
         H            1.339435376935     1.393631782320    -0.630714855454     1.007825032230

  Basis Set: AUG-CC-PVTZ
    Blend: AUG-CC-PVTZ
  Basis Set: (AUG-CC-PVTZ AUX)
    Blend: AUG-CC-PVTZ-JKFIT
	 Reference Energy          =    -566.1908478188893241 [Eh]
	 Singles Energy            =      -0.0000000000000000 [Eh]
	 Same-Spin Energy          =      -0.5582390167962805 [Eh]
	 Opposite-Spin Energy      =      -1.6358154136389529 [Eh]
	 Correlation Energy        =      -2.1940544304352336 [Eh]
	 Total Energy              =    -568.3849022493245684 [Eh]

	 ================> DF-SCS-MP2 Energies <==================
	-----------------------------------------------------------
	 SCS Same-Spin Scale       =       0.3333333333333333 [-]
	 SCS Opposite-Spin Scale   =       1.2000000000000000 [-]
	 SCS Same-Spin Energy      =      -0.1860796722654268 [Eh]
	 SCS Opposite-Spin Energy  =      -1.9629784963667434 [Eh]
	 SCS Correlation Energy    =      -2.1490581686321701 [Eh]
	 SCS Total Energy          =    -568.3399059875215471 [Eh]
	-----------------------------------------------------------

  Dipole Moment: [D]
     X:    -1.1172      Y:     2.0972      Z:     0.1970     Total:     2.3844

*** Psi4 exiting successfully. Buy a developer a beer!
