                               Psi4 1.3.2 release

  ==> Input File <==

--------------------------------------------------------------------------
#psi4
#
memory 32 gb

molecule  {
-2 1
  O       -1.2362950     1.7303800    -0.2239510
  O        2.6794370    -1.1261430    -0.8901160
  O        3.7000480     0.2611620     0.6076450
  O       -3.3697004    -0.3806274    -0.8297607
  O       -2.5973840    -0.9175860     1.2002500
  C        0.1162890    -0.2520540     0.0602520
  C        1.3712430     0.6068110     0.1462360
  C       -1.1988410     0.5019860    -0.0558080
  C        2.7080760    -0.1725680    -0.0543080
  C       -2.4977060    -0.3261360     0.0823270
  H        0.0210760    -0.9244250     0.9209780
  H        0.2133690    -0.9136840    -0.8118550
  H        1.4153100     1.1406480     1.1027450
  H        1.3130670     1.3830990    -0.6295990
units angstrom
no_reorient  #important for SAPT in psi4, default
symmetry c1  #important for SAPT in psi4, default
}

set PROPERTIES_ORIGIN ["COM"]
properties('MP2/aug-cc-pvtz', properties = ['dipole'])
--------------------------------------------------------------------------

    Molecular point group: c1
  Charge       = -2
  Multiplicity = 1
  Basis Set: AUG-CC-PVTZ
    Blend: AUG-CC-PVTZ
  Basis Set: (AUG-CC-PVTZ AUX)
    Blend: AUG-CC-PVTZ-JKFIT

    Orbital Energies [Eh]
    ---------------------

    Doubly Occupied:

       1A    -20.294197     2A    -20.226182     3A    -20.224743
       4A    -20.211484     5A    -20.210746     6A    -11.077598
       7A    -11.069758     8A    -11.054711     9A    -10.973422
      10A    -10.960608    11A     -1.122517    12A     -1.088353
      13A     -1.077026    14A     -0.989292    15A     -0.978681
      16A     -0.792482    17A     -0.664949    18A     -0.560631
      19A     -0.443386    20A     -0.422984    21A     -0.382049
      22A     -0.372925    23A     -0.366404    24A     -0.328094
      25A     -0.325537    26A     -0.306765    27A     -0.285837
      28A     -0.274260    29A     -0.250679    30A     -0.231759
      31A     -0.217440    32A     -0.210491    33A     -0.136719
      34A     -0.129245    35A     -0.122544    36A     -0.118217
      37A     -0.112115    38A     -0.104414

  @DF-RHF Final Energy:  -566.18936798024367

   => Energetics <=

    Nuclear Repulsion Energy =            478.6957021270920336
    One-Electron Energy =               -1752.3316486600233475
    Two-Electron Energy =                 707.4465785526875834
    Total Energy =                       -566.1893679802436736
  Basis Set: (AUG-CC-PVTZ AUX)
    Blend: AUG-CC-PVTZ-RI
    Molecular point group: c1

    Geometry (in Angstrom), charge = -2, multiplicity = 1:

       Center              X                  Y                   Z               Mass
    ------------   -----------------  -----------------  -----------------  -----------------
         O           -1.207106034913     1.743819439596    -0.227818768242    15.994914619570
         O            2.708625965087    -1.112703560404    -0.893983768242    15.994914619570
         O            3.729236965087     0.274601439596     0.603777231758    15.994914619570
         O           -3.340511434913    -0.367187960404    -0.833628468242    15.994914619570
         O           -2.568195034913    -0.904146560404     1.196382231758    15.994914619570
         C            0.145477965087    -0.238614560404     0.056384231758    12.000000000000
         C            1.400431965087     0.620250439596     0.142368231758    12.000000000000
         C           -1.169652034913     0.515425439596    -0.059675768242    12.000000000000
         C            2.737264965087    -0.159128560404    -0.058175768242    12.000000000000
         C           -2.468517034913    -0.312696560404     0.078459231758    12.000000000000
         H            0.050264965087    -0.910985560404     0.917110231758     1.007825032230
         H            0.242557965087    -0.900244560404    -0.815722768242     1.007825032230
         H            1.444498965087     1.154087439596     1.098877231758     1.007825032230
         H            1.342255965087     1.396538439596    -0.633466768242     1.007825032230

  Basis Set: AUG-CC-PVTZ
    Blend: AUG-CC-PVTZ
  Basis Set: (AUG-CC-PVTZ AUX)
    Blend: AUG-CC-PVTZ-JKFIT
	 Reference Energy          =    -566.1893679802436736 [Eh]
	 Singles Energy            =      -0.0000000000000000 [Eh]
	 Same-Spin Energy          =      -0.5582769399495692 [Eh]
	 Opposite-Spin Energy      =      -1.6359108996094105 [Eh]
	 Correlation Energy        =      -2.1941878395589796 [Eh]
	 Total Energy              =    -568.3835558198026092 [Eh]

	 ================> DF-SCS-MP2 Energies <==================
	-----------------------------------------------------------
	 SCS Same-Spin Scale       =       0.3333333333333333 [-]
	 SCS Opposite-Spin Scale   =       1.2000000000000000 [-]
	 SCS Same-Spin Energy      =      -0.1860923133165230 [Eh]
	 SCS Opposite-Spin Energy  =      -1.9630930795312924 [Eh]
	 SCS Correlation Energy    =      -2.1491853928478153 [Eh]
	 SCS Total Energy          =    -568.3385533730914858 [Eh]
	-----------------------------------------------------------

  Dipole Moment: [D]
     X:    -1.0348      Y:     2.1457      Z:     0.1649     Total:     2.3879

*** Psi4 exiting successfully. Buy a developer a beer!
