                               Psi4 1.3.2 release

  ==> Input File <==

--------------------------------------------------------------------------
#psi4
#
memory 32 gb

molecule  {
-2 1
  O       -1.2362950     1.7303800    -0.2239510
  O        2.6794370    -1.1261430    -0.8901160
  O        3.7000480     0.2611620     0.6076450
  O       -3.2904550    -0.3020480    -0.9006360
  O       -2.5973840    -0.9175860     1.2002500
  C        0.1162890    -0.2520540     0.0602520
  C        1.3712430     0.6068110     0.1462360
  C       -1.1751216     0.5499900     0.0358160
  C        2.7080760    -0.1725680    -0.0543080
  C       -2.4977060    -0.3261360     0.0823270
  H        0.0210760    -0.9244250     0.9209780
  H        0.2133690    -0.9136840    -0.8118550
  H        1.4153100     1.1406480     1.1027450
  H        1.3130670     1.3830990    -0.6295990
units angstrom
no_reorient  #important for SAPT in psi4, default
symmetry c1  #important for SAPT in psi4, default
}

set PROPERTIES_ORIGIN ["COM"]
properties('MP2/aug-cc-pvtz', properties = ['dipole'])
--------------------------------------------------------------------------

    Molecular point group: c1
  Charge       = -2
  Multiplicity = 1
  Basis Set: AUG-CC-PVTZ
    Blend: AUG-CC-PVTZ
  Basis Set: (AUG-CC-PVTZ AUX)
    Blend: AUG-CC-PVTZ-JKFIT

    Orbital Energies [Eh]
    ---------------------

    Doubly Occupied:

       1A    -20.291117     2A    -20.229934     3A    -20.227220
       4A    -20.209887     5A    -20.209368     6A    -11.069767
       7A    -11.066534     8A    -11.052736     9A    -10.969456
      10A    -10.957850    11A     -1.134820    12A     -1.087369
      13A     -1.075500    14A     -0.997049    15A     -0.977185
      16A     -0.789785    17A     -0.655285    18A     -0.546233
      19A     -0.444565    20A     -0.421806    21A     -0.381190
      22A     -0.375804    23A     -0.364614    24A     -0.328746
      25A     -0.324390    26A     -0.307368    27A     -0.286207
      28A     -0.274687    29A     -0.251269    30A     -0.233724
      31A     -0.216736    32A     -0.212694    33A     -0.145025
      34A     -0.126547    35A     -0.125371    36A     -0.115837
      37A     -0.110759    38A     -0.090323

  @DF-RHF Final Energy:  -566.18849847537933

   => Energetics <=

    Nuclear Repulsion Energy =            479.4247555544524744
    One-Electron Energy =               -1753.8569898810749237
    Two-Electron Energy =                 708.2437358512430592
    Total Energy =                       -566.1884984753793333
  Basis Set: (AUG-CC-PVTZ AUX)
    Blend: AUG-CC-PVTZ-RI
    Molecular point group: c1

    Geometry (in Angstrom), charge = -2, multiplicity = 1:

       Center              X                  Y                   Z               Mass
    ------------   -----------------  -----------------  -----------------  -----------------
         O           -1.217884457850     1.731091355992    -0.227581580888    15.994914619570
         O            2.697847542150    -1.125431644008    -0.893746580888    15.994914619570
         O            3.718458542150     0.261873355992     0.604014419112    15.994914619570
         O           -3.272044457850    -0.301336644008    -0.904266580888    15.994914619570
         O           -2.578973457850    -0.916874644008     1.196619419112    15.994914619570
         C            0.134699542150    -0.251342644008     0.056621419112    12.000000000000
         C            1.389653542150     0.607522355992     0.142605419112    12.000000000000
         C           -1.156711057850     0.550701355992     0.032185419112    12.000000000000
         C            2.726486542150    -0.171856644008    -0.057938580888    12.000000000000
         C           -2.479295457850    -0.325424644008     0.078696419112    12.000000000000
         H            0.039486542150    -0.923713644008     0.917347419112     1.007825032230
         H            0.231779542150    -0.912972644008    -0.815485580888     1.007825032230
         H            1.433720542150     1.141359355992     1.099114419112     1.007825032230
         H            1.331477542150     1.383810355992    -0.633229580888     1.007825032230

  Basis Set: AUG-CC-PVTZ
    Blend: AUG-CC-PVTZ
  Basis Set: (AUG-CC-PVTZ AUX)
    Blend: AUG-CC-PVTZ-JKFIT
	 Reference Energy          =    -566.1884984753793333 [Eh]
	 Singles Energy            =      -0.0000000000000000 [Eh]
	 Same-Spin Energy          =      -0.5576133115854698 [Eh]
	 Opposite-Spin Energy      =      -1.6345869285283443 [Eh]
	 Correlation Energy        =      -2.1922002401138139 [Eh]
	 Total Energy              =    -568.3806987154931676 [Eh]

	 ================> DF-SCS-MP2 Energies <==================
	-----------------------------------------------------------
	 SCS Same-Spin Scale       =       0.3333333333333333 [-]
	 SCS Opposite-Spin Scale   =       1.2000000000000000 [-]
	 SCS Same-Spin Energy      =      -0.1858711038618233 [Eh]
	 SCS Opposite-Spin Energy  =      -1.9615043142340132 [Eh]
	 SCS Correlation Energy    =      -2.1473754180958364 [Eh]
	 SCS Total Energy          =    -568.3358738934751955 [Eh]
	-----------------------------------------------------------

  Dipole Moment: [D]
     X:    -1.2213      Y:     2.2262      Z:     0.3388     Total:     2.5617

*** Psi4 exiting successfully. Buy a developer a beer!
