                               Psi4 1.3.2 release

  ==> Input File <==

--------------------------------------------------------------------------
#psi4
#
memory 32 gb

molecule  {
-2 1
  O       -1.2795402     1.7282789    -0.2240940
  O        2.6794370    -1.1261430    -0.8901160
  O        3.7000480     0.2611620     0.6076450
  O       -3.2904550    -0.3020480    -0.9006360
  O       -2.5973840    -0.9175860     1.2002500
  C        0.1162890    -0.2520540     0.0602520
  C        1.3712430     0.6068110     0.1462360
  C       -1.1988410     0.5019860    -0.0558080
  C        2.7080760    -0.1725680    -0.0543080
  C       -2.4977060    -0.3261360     0.0823270
  H        0.0210760    -0.9244250     0.9209780
  H        0.2133690    -0.9136840    -0.8118550
  H        1.4153100     1.1406480     1.1027450
  H        1.3130670     1.3830990    -0.6295990
units angstrom
no_reorient  #important for SAPT in psi4, default
symmetry c1  #important for SAPT in psi4, default
}

set PROPERTIES_ORIGIN ["COM"]
properties('MP2/aug-cc-pvtz', properties = ['dipole'])
--------------------------------------------------------------------------

    Molecular point group: c1
  Charge       = -2
  Multiplicity = 1
  Basis Set: AUG-CC-PVTZ
    Blend: AUG-CC-PVTZ
  Basis Set: (AUG-CC-PVTZ AUX)
    Blend: AUG-CC-PVTZ-JKFIT

    Orbital Energies [Eh]
    ---------------------

    Doubly Occupied:

       1A    -20.288736     2A    -20.230157     3A    -20.228926
       4A    -20.210852     5A    -20.210138     6A    -11.070366
       7A    -11.069766     8A    -11.053952     9A    -10.972109
      10A    -10.959658    11A     -1.119286    12A     -1.084686
      13A     -1.076384    14A     -0.998472    15A     -0.978052
      16A     -0.791219    17A     -0.661750    18A     -0.556650
      19A     -0.441169    20A     -0.421619    21A     -0.381432
      22A     -0.370988    23A     -0.364038    24A     -0.330689
      25A     -0.325898    26A     -0.306598    27A     -0.285371
      28A     -0.273883    29A     -0.249182    30A     -0.230482
      31A     -0.215951    32A     -0.208035    33A     -0.145592
      34A     -0.128318    35A     -0.126157    36A     -0.117762
      37A     -0.111507    38A     -0.098420

  @DF-RHF Final Energy:  -566.19170459487123

   => Energetics <=

    Nuclear Repulsion Energy =            479.2486775925599432
    One-Electron Energy =               -1753.4922706032250517
    Two-Electron Energy =                 708.0518884157938828
    Total Energy =                       -566.1917045948712257
  Basis Set: (AUG-CC-PVTZ AUX)
    Blend: AUG-CC-PVTZ-RI
    Molecular point group: c1

    Geometry (in Angstrom), charge = -2, multiplicity = 1:

       Center              X                  Y                   Z               Mass
    ------------   -----------------  -----------------  -----------------  -----------------
         O           -1.254349822696     1.733223798010    -0.220073675768    15.994914619570
         O            2.704627377304    -1.121198101990    -0.886095675768    15.994914619570
         O            3.725238377304     0.266106898010     0.611665324232    15.994914619570
         O           -3.265264622696    -0.297103101990    -0.896615675768    15.994914619570
         O           -2.572193622696    -0.912641101990     1.204270324232    15.994914619570
         C            0.141479377304    -0.247109101990     0.064272324232    12.000000000000
         C            1.396433377304     0.611755898010     0.150256324232    12.000000000000
         C           -1.173650622696     0.506930898010    -0.051787675768    12.000000000000
         C            2.733266377304    -0.167623101990    -0.050287675768    12.000000000000
         C           -2.472515622696    -0.321191101990     0.086347324232    12.000000000000
         H            0.046266377304    -0.919480101990     0.924998324232     1.007825032230
         H            0.238559377304    -0.908739101990    -0.807834675768     1.007825032230
         H            1.440500377304     1.145592898010     1.106765324232     1.007825032230
         H            1.338257377304     1.388043898010    -0.625578675768     1.007825032230

  Basis Set: AUG-CC-PVTZ
    Blend: AUG-CC-PVTZ
  Basis Set: (AUG-CC-PVTZ AUX)
    Blend: AUG-CC-PVTZ-JKFIT
	 Reference Energy          =    -566.1917045948712257 [Eh]
	 Singles Energy            =      -0.0000000000000000 [Eh]
	 Same-Spin Energy          =      -0.5581929542081092 [Eh]
	 Opposite-Spin Energy      =      -1.6356910192372098 [Eh]
	 Correlation Energy        =      -2.1938839734453190 [Eh]
	 Total Energy              =    -568.3855885683165070 [Eh]

	 ================> DF-SCS-MP2 Energies <==================
	-----------------------------------------------------------
	 SCS Same-Spin Scale       =       0.3333333333333333 [-]
	 SCS Opposite-Spin Scale   =       1.2000000000000000 [-]
	 SCS Same-Spin Energy      =      -0.1860643180693697 [Eh]
	 SCS Opposite-Spin Energy  =      -1.9628292230846518 [Eh]
	 SCS Correlation Energy    =      -2.1488935411540213 [Eh]
	 SCS Total Energy          =    -568.3405981360252781 [Eh]
	-----------------------------------------------------------

  Dipole Moment: [D]
     X:    -1.1928      Y:     1.9968      Z:     0.2495     Total:     2.3393

*** Psi4 exiting successfully. Buy a developer a beer!
