                               Psi4 1.3.2 release

  ==> Input File <==

--------------------------------------------------------------------------
#psi4
#
memory 32 gb

molecule  {
-2 1
  O       -1.3656830     1.7195988    -0.2237649
  O        2.6794370    -1.1261430    -0.8901160
  O        3.7000480     0.2611620     0.6076450
  O       -3.2904550    -0.3020480    -0.9006360
  O       -2.5973840    -0.9175860     1.2002500
  C        0.1162890    -0.2520540     0.0602520
  C        1.3712430     0.6068110     0.1462360
  C       -1.1988410     0.5019860    -0.0558080
  C        2.7080760    -0.1725680    -0.0543080
  C       -2.4977060    -0.3261360     0.0823270
  H        0.0210760    -0.9244250     0.9209780
  H        0.2133690    -0.9136840    -0.8118550
  H        1.4153100     1.1406480     1.1027450
  H        1.3130670     1.3830990    -0.6295990
units angstrom
no_reorient  #important for SAPT in psi4, default
symmetry c1  #important for SAPT in psi4, default
}

set PROPERTIES_ORIGIN ["COM"]
properties('MP2/aug-cc-pvtz', properties = ['dipole'])
--------------------------------------------------------------------------

    Molecular point group: c1
  Charge       = -2
  Multiplicity = 1
  Basis Set: AUG-CC-PVTZ
    Blend: AUG-CC-PVTZ
  Basis Set: (AUG-CC-PVTZ AUX)
    Blend: AUG-CC-PVTZ-JKFIT

    Orbital Energies [Eh]
    ---------------------

    Doubly Occupied:

       1A    -20.288848     2A    -20.227231     3A    -20.225502
       4A    -20.212310     5A    -20.211748     6A    -11.069720
       7A    -11.065969     8A    -11.055636     9A    -10.975730
      10A    -10.962049    11A     -1.119516    12A     -1.081271
      13A     -1.077923    14A     -0.995425    15A     -0.979580
      16A     -0.794331    17A     -0.662344    18A     -0.555598
      19A     -0.442486    20A     -0.421536    21A     -0.380444
      22A     -0.372430    23A     -0.363554    24A     -0.329901
      25A     -0.326665    26A     -0.307773    27A     -0.286228
      28A     -0.273175    29A     -0.249766    30A     -0.231965
      31A     -0.216918    32A     -0.209174    33A     -0.142532
      34A     -0.128905    35A     -0.124666    36A     -0.118715
      37A     -0.112921    38A     -0.095690

  @DF-RHF Final Energy:  -566.18969469486331

   => Energetics <=

    Nuclear Repulsion Energy =            479.0680406469174955
    One-Electron Energy =               -1753.1231197973390863
    Two-Electron Energy =                 707.8653844555582282
    Total Energy =                       -566.1896946948633058
  Basis Set: (AUG-CC-PVTZ AUX)
    Blend: AUG-CC-PVTZ-RI
    Molecular point group: c1

    Geometry (in Angstrom), charge = -2, multiplicity = 1:

       Center              X                  Y                   Z               Mass
    ------------   -----------------  -----------------  -----------------  -----------------
         O           -1.330924632862     1.725507807704    -0.219781129321    15.994914619570
         O            2.714195367138    -1.120233992296    -0.886132229321    15.994914619570
         O            3.734806367138     0.267071007704     0.611628770679    15.994914619570
         O           -3.255696632862    -0.296138992296    -0.896652229321    15.994914619570
         O           -2.562625632862    -0.911676992296     1.204233770679    15.994914619570
         C            0.151047367138    -0.246144992296     0.064235770679    12.000000000000
         C            1.406001367138     0.612720007704     0.150219770679    12.000000000000
         C           -1.164082632862     0.507895007704    -0.051824229321    12.000000000000
         C            2.742834367138    -0.166658992296    -0.050324229321    12.000000000000
         C           -2.462947632862    -0.320226992296     0.086310770679    12.000000000000
         H            0.055834367138    -0.918515992296     0.924961770679     1.007825032230
         H            0.248127367138    -0.907774992296    -0.807871229321     1.007825032230
         H            1.450068367138     1.146557007704     1.106728770679     1.007825032230
         H            1.347825367138     1.389008007704    -0.625615229321     1.007825032230

  Basis Set: AUG-CC-PVTZ
    Blend: AUG-CC-PVTZ
  Basis Set: (AUG-CC-PVTZ AUX)
    Blend: AUG-CC-PVTZ-JKFIT
	 Reference Energy          =    -566.1896946948633058 [Eh]
	 Singles Energy            =      -0.0000000000000000 [Eh]
	 Same-Spin Energy          =      -0.5581432554770678 [Eh]
	 Opposite-Spin Energy      =      -1.6356393491766603 [Eh]
	 Correlation Energy        =      -2.1937826046537281 [Eh]
	 Total Energy              =    -568.3834772995170397 [Eh]

	 ================> DF-SCS-MP2 Energies <==================
	-----------------------------------------------------------
	 SCS Same-Spin Scale       =       0.3333333333333333 [-]
	 SCS Opposite-Spin Scale   =       1.2000000000000000 [-]
	 SCS Same-Spin Energy      =      -0.1860477518256893 [Eh]
	 SCS Opposite-Spin Energy  =      -1.9627672190119922 [Eh]
	 SCS Correlation Energy    =      -2.1488149708376816 [Eh]
	 SCS Total Energy          =    -568.3385096657009399 [Eh]
	-----------------------------------------------------------

  Dipole Moment: [D]
     X:    -0.9972      Y:     2.0046      Z:     0.2362     Total:     2.2513

*** Psi4 exiting successfully. Buy a developer a beer!
