                               Psi4 1.3.2 release

  ==> Input File <==

--------------------------------------------------------------------------
#psi4
#
memory 32 gb

molecule  {
-2 1
  O       -1.1064967     1.7277027    -0.2222949
  O        2.6794370    -1.1261430    -0.8901160
  O        3.7000480     0.2611620     0.6076450
  O       -3.2904550    -0.3020480    -0.9006360
  O       -2.5973840    -0.9175860     1.2002500
  C        0.1162890    -0.2520540     0.0602520
  C        1.3712430     0.6068110     0.1462360
  C       -1.1988410     0.5019860    -0.0558080
  C        2.7080760    -0.1725680    -0.0543080
  C       -2.4977060    -0.3261360     0.0823270
  H        0.0210760    -0.9244250     0.9209780
  H        0.2133690    -0.9136840    -0.8118550
  H        1.4153100     1.1406480     1.1027450
  H        1.3130670     1.3830990    -0.6295990
units angstrom
no_reorient  #important for SAPT in psi4, default
symmetry c1  #important for SAPT in psi4, default
}

set PROPERTIES_ORIGIN ["COM"]
properties('MP2/aug-cc-pvtz', properties = ['dipole'])
--------------------------------------------------------------------------

    Molecular point group: c1
  Charge       = -2
  Multiplicity = 1
  Basis Set: AUG-CC-PVTZ
    Blend: AUG-CC-PVTZ
  Basis Set: (AUG-CC-PVTZ AUX)
    Blend: AUG-CC-PVTZ-JKFIT

    Orbital Energies [Eh]
    ---------------------

    Doubly Occupied:

       1A    -20.287881     2A    -20.235643     3A    -20.235126
       4A    -20.207677     5A    -20.206633     6A    -11.078529
       7A    -11.070226     8A    -11.050206     9A    -10.964789
      10A    -10.954392    11A     -1.119876    12A     -1.091022
      13A     -1.073008    14A     -1.004162    15A     -0.974723
      16A     -0.784287    17A     -0.660690    18A     -0.558143
      19A     -0.438485    20A     -0.421781    21A     -0.383905
      22A     -0.368528    23A     -0.364072    24A     -0.333982
      25A     -0.322502    26A     -0.303635    27A     -0.284310
      28A     -0.274822    29A     -0.247584    30A     -0.227548
      31A     -0.212271    32A     -0.203748    33A     -0.151178
      34A     -0.131429    35A     -0.125106    36A     -0.114785
      37A     -0.108428    38A     -0.101705

  @DF-RHF Final Energy:  -566.18803287548531

   => Energetics <=

    Nuclear Repulsion Energy =            479.9742204406668975
    One-Electron Energy =               -1754.9708775836436416
    Two-Electron Energy =                 708.8086242674914956
    Total Energy =                       -566.1880328754853053
  Basis Set: (AUG-CC-PVTZ AUX)
    Blend: AUG-CC-PVTZ-RI
    Molecular point group: c1

    Geometry (in Angstrom), charge = -2, multiplicity = 1:

       Center              X                  Y                   Z               Mass
    ------------   -----------------  -----------------  -----------------  -----------------
         O           -1.100526483276     1.732711597273    -0.218474404082    15.994914619570
         O            2.685407216724    -1.121134102727    -0.886295504082    15.994914619570
         O            3.706018216724     0.266170897273     0.611465495918    15.994914619570
         O           -3.284484783276    -0.297039102727    -0.896815504082    15.994914619570
         O           -2.591413783276    -0.912577102727     1.204070495918    15.994914619570
         C            0.122259216724    -0.247045102727     0.064072495918    12.000000000000
         C            1.377213216724     0.611819897273     0.150056495918    12.000000000000
         C           -1.192870783276     0.506994897273    -0.051987504082    12.000000000000
         C            2.714046216724    -0.167559102727    -0.050487504082    12.000000000000
         C           -2.491735783276    -0.321127102727     0.086147495918    12.000000000000
         H            0.027046216724    -0.919416102727     0.924798495918     1.007825032230
         H            0.219339216724    -0.908675102727    -0.808034504082     1.007825032230
         H            1.421280216724     1.145656897273     1.106565495918     1.007825032230
         H            1.319037216724     1.388107897273    -0.625778504082     1.007825032230

  Basis Set: AUG-CC-PVTZ
    Blend: AUG-CC-PVTZ
  Basis Set: (AUG-CC-PVTZ AUX)
    Blend: AUG-CC-PVTZ-JKFIT
	 Reference Energy          =    -566.1880328754853053 [Eh]
	 Singles Energy            =      -0.0000000000000000 [Eh]
	 Same-Spin Energy          =      -0.5586209616035046 [Eh]
	 Opposite-Spin Energy      =      -1.6364255385169677 [Eh]
	 Correlation Energy        =      -2.1950465001204722 [Eh]
	 Total Energy              =    -568.3830793756058029 [Eh]

	 ================> DF-SCS-MP2 Energies <==================
	-----------------------------------------------------------
	 SCS Same-Spin Scale       =       0.3333333333333333 [-]
	 SCS Opposite-Spin Scale   =       1.2000000000000000 [-]
	 SCS Same-Spin Energy      =      -0.1862069872011682 [Eh]
	 SCS Opposite-Spin Energy  =      -1.9637106462203611 [Eh]
	 SCS Correlation Energy    =      -2.1499176334215293 [Eh]
	 SCS Total Energy          =    -568.3379505089068289 [Eh]
	-----------------------------------------------------------

  Dipole Moment: [D]
     X:    -1.5928      Y:     2.0175      Z:     0.2707     Total:     2.5847

*** Psi4 exiting successfully. Buy a developer a beer!
