                               Psi4 1.4a3.dev225

  ==> Input File <==

--------------------------------------------------------------------------
#psi4
#
memory 32 gb

molecule  {
-2 1
  O        1.2418990     1.7387210     0.0152810
  O       -2.6413570    -1.2266940     0.7274850
  O       -3.7043420     0.3864070    -0.4664210
  O        3.4703830     0.1255600     0.5711880
  O        2.3854260    -1.4395470    -0.6909830
  C       -0.1276340    -0.2366180    -0.0826630
  C       -1.3618580     0.6471040    -0.0555340
  C        1.1689382     0.4948156    -0.0332515
  C       -2.6840850    -0.1418490     0.0703610
  C        2.4800850    -0.3523600    -0.0479140
  H       -0.1095280    -0.8768510    -0.9719090
  H       -0.1594520    -0.9384420     0.7596660
  H       -1.4090040     1.2787430    -0.9482840
  H       -1.2952160     1.3354770     0.7981610
units angstrom
no_reorient  #important for SAPT in psi4, default
symmetry c1  #important for SAPT in psi4, default
}

set PROPERTIES_ORIGIN ["COM"]
properties('MP2/aug-cc-pvtz', properties = ['dipole'])
--------------------------------------------------------------------------

    Molecular point group: c1
  Charge       = -2
  Multiplicity = 1
  Basis Set: AUG-CC-PVTZ
    Blend: AUG-CC-PVTZ
  Basis Set: (AUG-CC-PVTZ AUX)
    Blend: AUG-CC-PVTZ-JKFIT

    Orbital Energies [Eh]
    ---------------------

    Doubly Occupied:

       1A    -20.288734     2A    -20.226925     3A    -20.224732
       4A    -20.206699     5A    -20.205548     6A    -11.067639
       7A    -11.066320     8A    -11.048698     9A    -10.965238
      10A    -10.956601    11A     -1.115100    12A     -1.082331
      13A     -1.073892    14A     -0.994758    15A     -0.973205
      16A     -0.793908    17A     -0.663497    18A     -0.552034
      19A     -0.441042    20A     -0.418397    21A     -0.379993
      22A     -0.371303    23A     -0.365122    24A     -0.327362
      25A     -0.318729    26A     -0.301053    27A     -0.293479
      28A     -0.269935    29A     -0.240746    30A     -0.226996
      31A     -0.214354    32A     -0.205131    33A     -0.141100
      34A     -0.125730    35A     -0.120975    36A     -0.116021
      37A     -0.107505    38A     -0.101596

  @DF-RHF Final Energy:  -566.18805720931152

   => Energetics <=

    Nuclear Repulsion Energy =            481.7923065257098187
    One-Electron Energy =               -1758.7758771567971507
    Two-Electron Energy =                 710.7955134217758086
    Total Energy =                       -566.1880572093115234
  Basis Set: (AUG-CC-PVTZ AUX)
    Blend: AUG-CC-PVTZ-RI
    Molecular point group: c1

    Geometry (in Angstrom), charge = -2, multiplicity = 1:

       Center              X                  Y                   Z               Mass
    ------------   -----------------  -----------------  -----------------  -----------------
         O            1.222891381068     1.745029388019     0.012845096865    15.994914619570
         O           -2.660364618932    -1.220385611981     0.725049096865    15.994914619570
         O           -3.723349618932     0.392715388019    -0.468856903135    15.994914619570
         O            3.451375381068     0.131868388019     0.568752096865    15.994914619570
         O            2.366418381068    -1.433238611981    -0.693418903135    15.994914619570
         C           -0.146641618932    -0.230309611981    -0.085098903135    12.000000000000
         C           -1.380865618932     0.653412388019    -0.057969903135    12.000000000000
         C            1.149930581068     0.501123988019    -0.035687403135    12.000000000000
         C           -2.703092618932    -0.135540611981     0.067925096865    12.000000000000
         C            2.461077381068    -0.346051611981    -0.050349903135    12.000000000000
         H           -0.128535618932    -0.870542611981    -0.974344903135     1.007825032230
         H           -0.178459618932    -0.932133611981     0.757230096865     1.007825032230
         H           -1.428011618932     1.285051388019    -0.950719903135     1.007825032230
         H           -1.314223618932     1.341785388019     0.795725096865     1.007825032230

  Basis Set: AUG-CC-PVTZ
    Blend: AUG-CC-PVTZ
  Basis Set: (AUG-CC-PVTZ AUX)
    Blend: AUG-CC-PVTZ-JKFIT
	 Reference Energy          =    -566.1880572093115234 [Eh]
	 Singles Energy            =      -0.0000000000000000 [Eh]
	 Same-Spin Energy          =      -0.5587934590616808 [Eh]
	 Opposite-Spin Energy      =      -1.6365661565419227 [Eh]
	 Correlation Energy        =      -2.1953596156036035 [Eh]
	 Total Energy              =    -568.3834168249151162 [Eh]

	 ================> DF-SCS-MP2 Energies <==================
	-----------------------------------------------------------
	 SCS Same-Spin Scale       =       0.3333333333333333 [-]
	 SCS Opposite-Spin Scale   =       1.2000000000000000 [-]
	 SCS Same-Spin Energy      =      -0.1862644863538936 [Eh]
	 SCS Opposite-Spin Energy  =      -1.9638793878503071 [Eh]
	 SCS Correlation Energy    =      -2.1501438742042005 [Eh]
	 SCS Total Energy          =    -568.3382010835157416 [Eh]
	-----------------------------------------------------------

  Dipole Moment: [D]
     X:     1.2120      Y:     2.1046      Z:    -0.3742     Total:     2.4573

*** Psi4 exiting successfully. Buy a developer a beer!
