                               Psi4 1.3.2 release

  ==> Input File <==

--------------------------------------------------------------------------
#psi4
#
memory 32 gb

molecule  {
-2 1
  O       -1.2362950     1.7303800    -0.2239510
  O        2.6794370    -1.1261430    -0.8901160
  O        3.7000480     0.2611620     0.6076450
  O       -3.2904550    -0.3020480    -0.9006360
  O       -2.5973840    -0.9175860     1.2002500
  C        0.1162890    -0.2520540     0.0602520
  C        1.3712430     0.6068110     0.1462360
  C       -1.1988410     0.5019860    -0.0558080
  C        2.7080760    -0.1725680    -0.0543080
  C       -2.4349404    -0.3280432     0.1601527
  H        0.0210760    -0.9244250     0.9209780
  H        0.2133690    -0.9136840    -0.8118550
  H        1.4153100     1.1406480     1.1027450
  H        1.3130670     1.3830990    -0.6295990
units angstrom
no_reorient  #important for SAPT in psi4, default
symmetry c1  #important for SAPT in psi4, default
}

set PROPERTIES_ORIGIN ["COM"]
properties('MP2/aug-cc-pvtz', properties = ['dipole'])
--------------------------------------------------------------------------

    Molecular point group: c1
  Charge       = -2
  Multiplicity = 1
  Basis Set: AUG-CC-PVTZ
    Blend: AUG-CC-PVTZ
  Basis Set: (AUG-CC-PVTZ AUX)
    Blend: AUG-CC-PVTZ-JKFIT

    Orbital Energies [Eh]
    ---------------------

    Doubly Occupied:

       1A    -20.292901     2A    -20.250285     3A    -20.211741
       4A    -20.210880     5A    -20.210359     6A    -11.074584
       7A    -11.071770     8A    -11.054834     9A    -10.973683
      10A    -10.960993    11A     -1.128734    12A     -1.103570
      13A     -1.077230    14A     -0.978878    15A     -0.960000
      16A     -0.794530    17A     -0.672457    18A     -0.568563
      19A     -0.443782    20A     -0.424710    21A     -0.389558
      22A     -0.374459    23A     -0.368840    24A     -0.328794
      25A     -0.325161    26A     -0.306411    27A     -0.284456
      28A     -0.278727    29A     -0.250267    30A     -0.231723
      31A     -0.218580    32A     -0.208182    33A     -0.134986
      34A     -0.128183    35A     -0.121210    36A     -0.113804
      37A     -0.112292    38A     -0.102861

  @DF-RHF Final Energy:  -566.17603852606862

   => Energetics <=

    Nuclear Repulsion Energy =            479.8137669911270677
    One-Electron Energy =               -1754.4936575968758916
    Two-Electron Energy =                 708.5038520796802004
    Total Energy =                       -566.1760385260686235
  Basis Set: (AUG-CC-PVTZ AUX)
    Blend: AUG-CC-PVTZ-RI
    Molecular point group: c1

    Geometry (in Angstrom), charge = -2, multiplicity = 1:

       Center              X                  Y                   Z               Mass
    ------------   -----------------  -----------------  -----------------  -----------------
         O           -1.221138175143     1.735250453025    -0.226431769451    15.994914619570
         O            2.694593824857    -1.121272546975    -0.892596769451    15.994914619570
         O            3.715204824857     0.266032453025     0.605164230549    15.994914619570
         O           -3.275298175143    -0.297177546975    -0.903116769451    15.994914619570
         O           -2.582227175143    -0.912715546975     1.197769230549    15.994914619570
         C            0.131445824857    -0.247183546975     0.057771230549    12.000000000000
         C            1.386399824857     0.611681453025     0.143755230549    12.000000000000
         C           -1.183684175143     0.506856453025    -0.058288769451    12.000000000000
         C            2.723232824857    -0.167697546975    -0.056788769451    12.000000000000
         C           -2.419783575143    -0.323172746975     0.157671930549    12.000000000000
         H            0.036232824857    -0.919554546975     0.918497230549     1.007825032230
         H            0.228525824857    -0.908813546975    -0.814335769451     1.007825032230
         H            1.430466824857     1.145518453025     1.100264230549     1.007825032230
         H            1.328223824857     1.387969453025    -0.632079769451     1.007825032230

  Basis Set: AUG-CC-PVTZ
    Blend: AUG-CC-PVTZ
  Basis Set: (AUG-CC-PVTZ AUX)
    Blend: AUG-CC-PVTZ-JKFIT
	 Reference Energy          =    -566.1760385260686235 [Eh]
	 Singles Energy            =      -0.0000000000000000 [Eh]
	 Same-Spin Energy          =      -0.5592204445169235 [Eh]
	 Opposite-Spin Energy      =      -1.6380779960182323 [Eh]
	 Correlation Energy        =      -2.1972984405351559 [Eh]
	 Total Energy              =    -568.3733369666038016 [Eh]

	 ================> DF-SCS-MP2 Energies <==================
	-----------------------------------------------------------
	 SCS Same-Spin Scale       =       0.3333333333333333 [-]
	 SCS Opposite-Spin Scale   =       1.2000000000000000 [-]
	 SCS Same-Spin Energy      =      -0.1864068148389745 [Eh]
	 SCS Opposite-Spin Energy  =      -1.9656935952218788 [Eh]
	 SCS Correlation Energy    =      -2.1521004100608532 [Eh]
	 SCS Total Energy          =    -568.3281389361294487 [Eh]
	-----------------------------------------------------------

  Dipole Moment: [D]
     X:    -0.7883      Y:     1.8980      Z:     1.1262     Total:     2.3435

*** Psi4 exiting successfully. Buy a developer a beer!
