                               Psi4 1.3.2 release

  ==> Input File <==

--------------------------------------------------------------------------
#psi4
#
memory 32 gb

molecule  {
-2 1
  O       -1.2362950     1.7303800    -0.2239510
  O        2.6794370    -1.1261430    -0.8901160
  O        3.7000480     0.2611620     0.6076450
  O       -3.2904550    -0.3020480    -0.9006360
  O       -2.5973840    -0.9175860     1.2002500
  C        0.0598684    -0.3407621     0.0747272
  C        1.3712430     0.6068110     0.1462360
  C       -1.1988410     0.5019860    -0.0558080
  C        2.7080760    -0.1725680    -0.0543080
  C       -2.4977060    -0.3261360     0.0823270
  H        0.0210760    -0.9244250     0.9209780
  H        0.2133690    -0.9136840    -0.8118550
  H        1.4153100     1.1406480     1.1027450
  H        1.3130670     1.3830990    -0.6295990
units angstrom
no_reorient  #important for SAPT in psi4, default
symmetry c1  #important for SAPT in psi4, default
}

set PROPERTIES_ORIGIN ["COM"]
properties('MP2/aug-cc-pvtz', properties = ['dipole'])
--------------------------------------------------------------------------

    Molecular point group: c1
  Charge       = -2
  Multiplicity = 1
  Basis Set: AUG-CC-PVTZ
    Blend: AUG-CC-PVTZ
  Basis Set: (AUG-CC-PVTZ AUX)
    Blend: AUG-CC-PVTZ-JKFIT

    Orbital Energies [Eh]
    ---------------------

    Doubly Occupied:

       1A    -20.291870     2A    -20.230495     3A    -20.229143
       4A    -20.209152     5A    -20.208378     6A    -11.071395
       7A    -11.068986     8A    -11.051482     9A    -10.967508
      10A    -10.962203    11A     -1.119681    12A     -1.085731
      13A     -1.074506    14A     -0.998791    15A     -0.976300
      16A     -0.781580    17A     -0.661398    18A     -0.560577
      19A     -0.441463    20A     -0.418796    21A     -0.384208
      22A     -0.373334    23A     -0.366867    24A     -0.330039
      25A     -0.318648    26A     -0.307745    27A     -0.288672
      28A     -0.277437    29A     -0.241553    30A     -0.229636
      31A     -0.216274    32A     -0.211754    33A     -0.146112
      34A     -0.127777    35A     -0.125144    36A     -0.114746
      37A     -0.110020    38A     -0.096098

  @DF-RHF Final Energy:  -566.18237828073677

   => Energetics <=

    Nuclear Repulsion Energy =            478.7006737408311210
    One-Electron Energy =               -1752.4151078451234298
    Two-Electron Energy =                 707.5320558235554245
    Total Energy =                       -566.1823782807367706
  Basis Set: (AUG-CC-PVTZ AUX)
    Blend: AUG-CC-PVTZ-RI
    Molecular point group: c1

    Geometry (in Angstrom), charge = -2, multiplicity = 1:

       Center              X                  Y                   Z               Mass
    ------------   -----------------  -----------------  -----------------  -----------------
         O           -1.211206396890     1.742483566346    -0.221152776428    15.994914619570
         O            2.704525603110    -1.114039433654    -0.887317776428    15.994914619570
         O            3.725136603110     0.273265566346     0.610443223572    15.994914619570
         O           -3.265366396890    -0.289944433654    -0.897837776428    15.994914619570
         O           -2.572295396890    -0.905482433654     1.203048223572    15.994914619570
         C            0.084957003110    -0.328658533654     0.077525423572    12.000000000000
         C            1.396331603110     0.618914566346     0.149034223572    12.000000000000
         C           -1.173752396890     0.514089566346    -0.053009776428    12.000000000000
         C            2.733164603110    -0.160464433654    -0.051509776428    12.000000000000
         C           -2.472617396890    -0.314032433654     0.085125223572    12.000000000000
         H            0.046164603110    -0.912321433654     0.923776223572     1.007825032230
         H            0.238457603110    -0.901580433654    -0.809056776428     1.007825032230
         H            1.440398603110     1.152751566346     1.105543223572     1.007825032230
         H            1.338155603110     1.395202566346    -0.626800776428     1.007825032230

  Basis Set: AUG-CC-PVTZ
    Blend: AUG-CC-PVTZ
  Basis Set: (AUG-CC-PVTZ AUX)
    Blend: AUG-CC-PVTZ-JKFIT
	 Reference Energy          =    -566.1823782807367706 [Eh]
	 Singles Energy            =      -0.0000000000000000 [Eh]
	 Same-Spin Energy          =      -0.5578032489216866 [Eh]
	 Opposite-Spin Energy      =      -1.6356665721284884 [Eh]
	 Correlation Energy        =      -2.1934698210501749 [Eh]
	 Total Energy              =    -568.3758481017869144 [Eh]

	 ================> DF-SCS-MP2 Energies <==================
	-----------------------------------------------------------
	 SCS Same-Spin Scale       =       0.3333333333333333 [-]
	 SCS Opposite-Spin Scale   =       1.2000000000000000 [-]
	 SCS Same-Spin Energy      =      -0.1859344163072289 [Eh]
	 SCS Opposite-Spin Energy  =      -1.9627998865541860 [Eh]
	 SCS Correlation Energy    =      -2.1487343028614148 [Eh]
	 SCS Total Energy          =    -568.3311125835981557 [Eh]
	-----------------------------------------------------------

  Dipole Moment: [D]
     X:    -1.3598      Y:     1.9811      Z:     0.2779     Total:     2.4189

*** Psi4 exiting successfully. Buy a developer a beer!
