                               Psi4 1.3.2 release

  ==> Input File <==

--------------------------------------------------------------------------
#psi4
#
memory 32 gb

molecule  {
-2 1
  O       -1.2362950     1.7303800    -0.2239510
  O        2.6794370    -1.1261430    -0.8901160
  O        3.7000480     0.2611620     0.6076450
  O       -3.2904550    -0.3020480    -0.9006360
  O       -2.5973840    -0.9175860     1.2002500
  C        0.1162890    -0.2520540     0.0602520
  C        1.4537119     0.4706437     0.1549085
  C       -1.1988410     0.5019860    -0.0558080
  C        2.7080760    -0.1725680    -0.0543080
  C       -2.4977060    -0.3261360     0.0823270
  H        0.0210760    -0.9244250     0.9209780
  H        0.2133690    -0.9136840    -0.8118550
  H        1.4153100     1.1406480     1.1027450
  H        1.3130670     1.3830990    -0.6295990
units angstrom
no_reorient  #important for SAPT in psi4, default
symmetry c1  #important for SAPT in psi4, default
}

set PROPERTIES_ORIGIN ["COM"]
properties('MP2/aug-cc-pvtz', properties = ['dipole'])
--------------------------------------------------------------------------

    Molecular point group: c1
  Charge       = -2
  Multiplicity = 1
  Basis Set: AUG-CC-PVTZ
    Blend: AUG-CC-PVTZ
  Basis Set: (AUG-CC-PVTZ AUX)
    Blend: AUG-CC-PVTZ-JKFIT

    Orbital Energies [Eh]
    ---------------------

    Doubly Occupied:

       1A    -20.291888     2A    -20.233651     3A    -20.232885
       4A    -20.207989     5A    -20.206231     6A    -11.075934
       7A    -11.075345     8A    -11.046104     9A    -10.973850
      10A    -10.971096    11A     -1.122088    12A     -1.088727
      13A     -1.079751    14A     -1.002141    15A     -0.977723
      16A     -0.793651    17A     -0.673305    18A     -0.567366
      19A     -0.440506    20A     -0.430433    21A     -0.383385
      22A     -0.372858    23A     -0.361863    24A     -0.339619
      25A     -0.330891    26A     -0.310089    27A     -0.287360
      28A     -0.275621    29A     -0.242597    30A     -0.224591
      31A     -0.205947    32A     -0.182878    33A     -0.148601
      34A     -0.131546    35A     -0.127668    36A     -0.122596
      37A     -0.110089    38A     -0.106741

  @DF-RHF Final Energy:  -566.16563574009001

   => Energetics <=

    Nuclear Repulsion Energy =            480.4925870018689693
    One-Electron Energy =               -1755.8052371452199623
    Two-Electron Energy =                 709.1470144032609824
    Total Energy =                       -566.1656357400900106
  Basis Set: (AUG-CC-PVTZ AUX)
    Blend: AUG-CC-PVTZ-RI
    Molecular point group: c1

    Geometry (in Angstrom), charge = -2, multiplicity = 1:

       Center              X                  Y                   Z               Mass
    ------------   -----------------  -----------------  -----------------  -----------------
         O           -1.222780049843     1.746438338379    -0.220669237817    15.994914619570
         O            2.692951950157    -1.110084661621    -0.886834237817    15.994914619570
         O            3.713562950157     0.277220338379     0.610926762183    15.994914619570
         O           -3.276940049843    -0.285989661621    -0.897354237817    15.994914619570
         O           -2.583869049843    -0.901527661621     1.203531762183    15.994914619570
         C            0.129803950157    -0.235995661621     0.063533762183    12.000000000000
         C            1.467226850157     0.486702038379     0.158190262183    12.000000000000
         C           -1.185326049843     0.518044338379    -0.052526237817    12.000000000000
         C            2.721590950157    -0.156509661621    -0.051026237817    12.000000000000
         C           -2.484191049843    -0.310077661621     0.085608762183    12.000000000000
         H            0.034590950157    -0.908366661621     0.924259762183     1.007825032230
         H            0.226883950157    -0.897625661621    -0.808573237817     1.007825032230
         H            1.428824950157     1.156706338379     1.106026762183     1.007825032230
         H            1.326581950157     1.399157338379    -0.626317237817     1.007825032230

  Basis Set: AUG-CC-PVTZ
    Blend: AUG-CC-PVTZ
  Basis Set: (AUG-CC-PVTZ AUX)
    Blend: AUG-CC-PVTZ-JKFIT
	 Reference Energy          =    -566.1656357400900106 [Eh]
	 Singles Energy            =      -0.0000000000000000 [Eh]
	 Same-Spin Energy          =      -0.5597669381602988 [Eh]
	 Opposite-Spin Energy      =      -1.6385985013598019 [Eh]
	 Correlation Energy        =      -2.1983654395201007 [Eh]
	 Total Energy              =    -568.3640011796101135 [Eh]

	 ================> DF-SCS-MP2 Energies <==================
	-----------------------------------------------------------
	 SCS Same-Spin Scale       =       0.3333333333333333 [-]
	 SCS Opposite-Spin Scale   =       1.2000000000000000 [-]
	 SCS Same-Spin Energy      =      -0.1865889793867662 [Eh]
	 SCS Opposite-Spin Energy  =      -1.9663182016317622 [Eh]
	 SCS Correlation Energy    =      -2.1529071810185285 [Eh]
	 SCS Total Energy          =    -568.3185429211085875 [Eh]
	-----------------------------------------------------------

  Dipole Moment: [D]
     X:    -1.5124      Y:     1.8909      Z:     0.3034     Total:     2.4403

*** Psi4 exiting successfully. Buy a developer a beer!
