                               Psi4 1.3.2 release

  ==> Input File <==

--------------------------------------------------------------------------
#psi4
#
memory 32 gb

molecule  {
-2 1
  O       -1.2362950     1.7303800    -0.2239510
  O        2.6794370    -1.1261430    -0.8901160
  O        3.7000480     0.2611620     0.6076450
  O       -3.2904550    -0.3020480    -0.9006360
  O       -2.5973840    -0.9175860     1.2002500
  C        0.1888291    -0.1122438     0.0375019
  C        1.3712430     0.6068110     0.1462360
  C       -1.1988410     0.5019860    -0.0558080
  C        2.7080760    -0.1725680    -0.0543080
  C       -2.4977060    -0.3261360     0.0823270
  H        0.0210760    -0.9244250     0.9209780
  H        0.2133690    -0.9136840    -0.8118550
  H        1.4153100     1.1406480     1.1027450
  H        1.3130670     1.3830990    -0.6295990
units angstrom
no_reorient  #important for SAPT in psi4, default
symmetry c1  #important for SAPT in psi4, default
}

set PROPERTIES_ORIGIN ["COM"]
properties('MP2/aug-cc-pvtz', properties = ['dipole'])
--------------------------------------------------------------------------

    Molecular point group: c1
  Charge       = -2
  Multiplicity = 1
  Basis Set: AUG-CC-PVTZ
    Blend: AUG-CC-PVTZ
  Basis Set: (AUG-CC-PVTZ AUX)
    Blend: AUG-CC-PVTZ-JKFIT

    Orbital Energies [Eh]
    ---------------------

    Doubly Occupied:

       1A    -20.283610     2A    -20.233171     3A    -20.232820
       4A    -20.212411     5A    -20.211281     6A    -11.077485
       7A    -11.070278     8A    -11.056842     9A    -10.979608
      10A    -10.952714    11A     -1.119469    12A     -1.087499
      13A     -1.077893    14A     -1.001794    15A     -0.979345
      16A     -0.811711    17A     -0.660442    18A     -0.553671
      19A     -0.439416    20A     -0.429486    21A     -0.384053
      22A     -0.370610    23A     -0.365037    24A     -0.342392
      25A     -0.333057    26A     -0.304961    27A     -0.284804
      28A     -0.266601    29A     -0.258029    30A     -0.232519
      31A     -0.201183    32A     -0.180929    33A     -0.147921
      34A     -0.130660    35A     -0.127911    36A     -0.121277
      37A     -0.112479    38A     -0.101900

  @DF-RHF Final Energy:  -566.16069125594584

   => Energetics <=

    Nuclear Repulsion Energy =            480.4974783847142703
    One-Electron Energy =               -1755.8417986484273570
    Two-Electron Energy =                 709.1836290077673084
    Total Energy =                       -566.1606912559458351
  Basis Set: (AUG-CC-PVTZ AUX)
    Blend: AUG-CC-PVTZ-RI
    Molecular point group: c1

    Geometry (in Angstrom), charge = -2, multiplicity = 1:

       Center              X                  Y                   Z               Mass
    ------------   -----------------  -----------------  -----------------  -----------------
         O           -1.221952683589     1.723441151349    -0.218050794613    15.994914619570
         O            2.693779316411    -1.133081848651    -0.884215794613    15.994914619570
         O            3.714390316411     0.254223151349     0.613545205387    15.994914619570
         O           -3.276112683589    -0.308986848651    -0.894735794613    15.994914619570
         O           -2.583041683589    -0.924524848651     1.206150205387    15.994914619570
         C            0.203171416411    -0.119182648651     0.043402105387    12.000000000000
         C            1.385585316411     0.599872151349     0.152136205387    12.000000000000
         C           -1.184498683589     0.495047151349    -0.049907794613    12.000000000000
         C            2.722418316411    -0.179506848651    -0.048407794613    12.000000000000
         C           -2.483363683589    -0.333074848651     0.088227205387    12.000000000000
         H            0.035418316411    -0.931363848651     0.926878205387     1.007825032230
         H            0.227711316411    -0.920622848651    -0.805954794613     1.007825032230
         H            1.429652316411     1.133709151349     1.108645205387     1.007825032230
         H            1.327409316411     1.376160151349    -0.623698794613     1.007825032230

  Basis Set: AUG-CC-PVTZ
    Blend: AUG-CC-PVTZ
  Basis Set: (AUG-CC-PVTZ AUX)
    Blend: AUG-CC-PVTZ-JKFIT
	 Reference Energy          =    -566.1606912559458351 [Eh]
	 Singles Energy            =      -0.0000000000000000 [Eh]
	 Same-Spin Energy          =      -0.5606506293659863 [Eh]
	 Opposite-Spin Energy      =      -1.6392570459768425 [Eh]
	 Correlation Energy        =      -2.1999076753428288 [Eh]
	 Total Energy              =    -568.3605989312886777 [Eh]

	 ================> DF-SCS-MP2 Energies <==================
	-----------------------------------------------------------
	 SCS Same-Spin Scale       =       0.3333333333333333 [-]
	 SCS Opposite-Spin Scale   =       1.2000000000000000 [-]
	 SCS Same-Spin Energy      =      -0.1868835431219954 [Eh]
	 SCS Opposite-Spin Energy  =      -1.9671084551722109 [Eh]
	 SCS Correlation Energy    =      -2.1539919982942064 [Eh]
	 SCS Total Energy          =    -568.3146832542400944 [Eh]
	-----------------------------------------------------------

  Dipole Moment: [D]
     X:    -1.1333      Y:     2.0628      Z:     0.2101     Total:     2.3630

*** Psi4 exiting successfully. Buy a developer a beer!
