                               Psi4 1.3.2 release

  ==> Input File <==

--------------------------------------------------------------------------
#psi4
#
memory 32 gb

molecule  {
-2 1
  O       -1.2362950     1.7303800    -0.2239510
  O        2.6794370    -1.1261430    -0.8901160
  O        3.7000480     0.2611620     0.6076450
  O       -3.2904550    -0.3020480    -0.9006360
  O       -2.5973840    -0.9175860     1.2002500
  C        0.1162890    -0.2520540     0.0602520
  C        1.3712430     0.6068110     0.1462360
  C       -1.1958215     0.4029550    -0.0422526
  C        2.7080760    -0.1725680    -0.0543080
  C       -2.4977060    -0.3261360     0.0823270
  H        0.0210760    -0.9244250     0.9209780
  H        0.2133690    -0.9136840    -0.8118550
  H        1.4153100     1.1406480     1.1027450
  H        1.3130670     1.3830990    -0.6295990
units angstrom
no_reorient  #important for SAPT in psi4, default
symmetry c1  #important for SAPT in psi4, default
}

set PROPERTIES_ORIGIN ["COM"]
properties('MP2/aug-cc-pvtz', properties = ['dipole'])
--------------------------------------------------------------------------

    Molecular point group: c1
  Charge       = -2
  Multiplicity = 1
  Basis Set: AUG-CC-PVTZ
    Blend: AUG-CC-PVTZ
  Basis Set: (AUG-CC-PVTZ AUX)
    Blend: AUG-CC-PVTZ-JKFIT

    Orbital Energies [Eh]
    ---------------------

    Doubly Occupied:

       1A    -20.279946     2A    -20.236051     3A    -20.234330
       4A    -20.212023     5A    -20.211331     6A    -11.080651
       7A    -11.077200     8A    -11.055394     9A    -10.975662
      10A    -10.961698    11A     -1.107083    12A     -1.077650
      13A     -1.044901    14A     -1.004912    15A     -0.979247
      16A     -0.800907    17A     -0.678083    18A     -0.573204
      19A     -0.437696    20A     -0.421687    21A     -0.383599
      22A     -0.372640    23A     -0.350722    24A     -0.333895
      25A     -0.328731    26A     -0.307047    27A     -0.287118
      28A     -0.267095    29A     -0.248547    30A     -0.222438
      31A     -0.197707    32A     -0.195069    33A     -0.149067
      34A     -0.133707    35A     -0.128858    36A     -0.121729
      37A     -0.112715    38A     -0.111313

  @DF-RHF Final Energy:  -566.16717797312299

   => Energetics <=

    Nuclear Repulsion Energy =            479.2533755519585270
    One-Electron Energy =               -1753.4378009375586771
    Two-Electron Energy =                 708.0172474124772179
    Total Energy =                       -566.1671779731229890
  Basis Set: (AUG-CC-PVTZ AUX)
    Blend: AUG-CC-PVTZ-RI
    Molecular point group: c1

    Geometry (in Angstrom), charge = -2, multiplicity = 1:

       Center              X                  Y                   Z               Mass
    ------------   -----------------  -----------------  -----------------  -----------------
         O           -1.216159536536     1.743343772928    -0.221076129554    15.994914619570
         O            2.699572463464    -1.113179227072    -0.887241129554    15.994914619570
         O            3.720183463464     0.274125772928     0.610519870446    15.994914619570
         O           -3.270319536536    -0.289084227072    -0.897761129554    15.994914619570
         O           -2.577248536536    -0.904622227072     1.203124870446    15.994914619570
         C            0.136424463464    -0.239090227072     0.063126870446    12.000000000000
         C            1.391378463464     0.619774772928     0.149110870446    12.000000000000
         C           -1.175686036536     0.415918772928    -0.039377729554    12.000000000000
         C            2.728211463464    -0.159604227072    -0.051433129554    12.000000000000
         C           -2.477570536536    -0.313172227072     0.085201870446    12.000000000000
         H            0.041211463464    -0.911461227072     0.923852870446     1.007825032230
         H            0.233504463464    -0.900720227072    -0.808980129554     1.007825032230
         H            1.435445463464     1.153611772928     1.105619870446     1.007825032230
         H            1.333202463464     1.396062772928    -0.626724129554     1.007825032230

  Basis Set: AUG-CC-PVTZ
    Blend: AUG-CC-PVTZ
  Basis Set: (AUG-CC-PVTZ AUX)
    Blend: AUG-CC-PVTZ-JKFIT
	 Reference Energy          =    -566.1671779731229890 [Eh]
	 Singles Energy            =      -0.0000000000000000 [Eh]
	 Same-Spin Energy          =      -0.5616883540294852 [Eh]
	 Opposite-Spin Energy      =      -1.6424872060178046 [Eh]
	 Correlation Energy        =      -2.2041755600472897 [Eh]
	 Total Energy              =    -568.3713535331702360 [Eh]

	 ================> DF-SCS-MP2 Energies <==================
	-----------------------------------------------------------
	 SCS Same-Spin Scale       =       0.3333333333333333 [-]
	 SCS Opposite-Spin Scale   =       1.2000000000000000 [-]
	 SCS Same-Spin Energy      =      -0.1872294513431617 [Eh]
	 SCS Opposite-Spin Energy  =      -1.9709846472213655 [Eh]
	 SCS Correlation Energy    =      -2.1582140985645273 [Eh]
	 SCS Total Energy          =    -568.3253920716874745 [Eh]
	-----------------------------------------------------------

  Dipole Moment: [D]
     X:    -1.1773      Y:     1.4805      Z:     0.3032     Total:     1.9157

*** Psi4 exiting successfully. Buy a developer a beer!
