                               Psi4 1.3.2 release

  ==> Input File <==

--------------------------------------------------------------------------
#psi4
#
memory 32 gb

molecule  {
-2 1
  O       -1.2146547     1.7307860    -0.2244118
  O        2.6794370    -1.1261430    -0.8901160
  O        3.7000480     0.2611620     0.6076450
  O       -3.2904550    -0.3020480    -0.9006360
  O       -2.5973840    -0.9175860     1.2002500
  C        0.1162890    -0.2520540     0.0602520
  C        1.3712430     0.6068110     0.1462360
  C       -1.1988410     0.5019860    -0.0558080
  C        2.7080760    -0.1725680    -0.0543080
  C       -2.4977060    -0.3261360     0.0823270
  H        0.0210760    -0.9244250     0.9209780
  H        0.2133690    -0.9136840    -0.8118550
  H        1.4153100     1.1406480     1.1027450
  H        1.3130670     1.3830990    -0.6295990
units angstrom
no_reorient  #important for SAPT in psi4, default
symmetry c1  #important for SAPT in psi4, default
}

set PROPERTIES_ORIGIN ["COM"]
properties('MP2/aug-cc-pvtz', properties = ['dipole'])
--------------------------------------------------------------------------

    Molecular point group: c1
  Charge       = -2
  Multiplicity = 1
  Basis Set: AUG-CC-PVTZ
    Blend: AUG-CC-PVTZ
  Basis Set: (AUG-CC-PVTZ AUX)
    Blend: AUG-CC-PVTZ-JKFIT

    Orbital Energies [Eh]
    ---------------------

    Doubly Occupied:

       1A    -20.288522     2A    -20.232270     3A    -20.231347
       4A    -20.209701     5A    -20.208867     6A    -11.073334
       7A    -11.070078     8A    -11.052607     9A    -10.969367
      10A    -10.957756    11A     -1.119349    12A     -1.087133
      13A     -1.075161    14A     -1.000668    15A     -0.976845
      16A     -0.788731    17A     -0.661321    18A     -0.557307
      19A     -0.440174    20A     -0.421677    21A     -0.382297
      22A     -0.369966    23A     -0.364178    24A     -0.331858
      25A     -0.324723    26A     -0.305565    27A     -0.284838
      28A     -0.274385    29A     -0.248648    30A     -0.229384
      31A     -0.214839    32A     -0.206697    33A     -0.147768
      34A     -0.129017    35A     -0.126246    36A     -0.116771
      37A     -0.110392    38A     -0.099999

  @DF-RHF Final Energy:  -566.19155545521426

   => Energetics <=

    Nuclear Repulsion Energy =            479.4637689598869770
    One-Electron Energy =               -1753.9310729406217888
    Two-Electron Energy =                 708.2757485255206120
    Total Energy =                       -566.1915554552142567
  Basis Set: (AUG-CC-PVTZ AUX)
    Blend: AUG-CC-PVTZ-RI
    Molecular point group: c1

    Geometry (in Angstrom), charge = -2, multiplicity = 1:

       Center              X                  Y                   Z               Mass
    ------------   -----------------  -----------------  -----------------  -----------------
         O           -1.196671237312     1.735452431239    -0.220356177319    15.994914619570
         O            2.697420462688    -1.121476568761    -0.886060377319    15.994914619570
         O            3.718031462688     0.265828431239     0.611700622681    15.994914619570
         O           -3.272471537312    -0.297381568761    -0.896580377319    15.994914619570
         O           -2.579400537312    -0.912919568761     1.204305622681    15.994914619570
         C            0.134272462688    -0.247387568761     0.064307622681    12.000000000000
         C            1.389226462688     0.611477431239     0.150291622681    12.000000000000
         C           -1.180857537312     0.506652431239    -0.051752377319    12.000000000000
         C            2.726059462688    -0.167901568761    -0.050252377319    12.000000000000
         C           -2.479722537312    -0.321469568761     0.086382622681    12.000000000000
         H            0.039059462688    -0.919758568761     0.925033622681     1.007825032230
         H            0.231352462688    -0.909017568761    -0.807799377319     1.007825032230
         H            1.433293462688     1.145314431239     1.106800622681     1.007825032230
         H            1.331050462688     1.387765431239    -0.625543377319     1.007825032230

  Basis Set: AUG-CC-PVTZ
    Blend: AUG-CC-PVTZ
  Basis Set: (AUG-CC-PVTZ AUX)
    Blend: AUG-CC-PVTZ-JKFIT
	 Reference Energy          =    -566.1915554552142567 [Eh]
	 Singles Energy            =      -0.0000000000000000 [Eh]
	 Same-Spin Energy          =      -0.5583009474206541 [Eh]
	 Opposite-Spin Energy      =      -1.6358669227225748 [Eh]
	 Correlation Energy        =      -2.1941678701432288 [Eh]
	 Total Energy              =    -568.3857233253575032 [Eh]

	 ================> DF-SCS-MP2 Energies <==================
	-----------------------------------------------------------
	 SCS Same-Spin Scale       =       0.3333333333333333 [-]
	 SCS Opposite-Spin Scale   =       1.2000000000000000 [-]
	 SCS Same-Spin Energy      =      -0.1861003158068847 [Eh]
	 SCS Opposite-Spin Energy  =      -1.9630403072670897 [Eh]
	 SCS Correlation Energy    =      -2.1491406230739742 [Eh]
	 SCS Total Energy          =    -568.3406960782882607 [Eh]
	-----------------------------------------------------------

  Dipole Moment: [D]
     X:    -1.3417      Y:     1.9992      Z:     0.2586     Total:     2.4215

*** Psi4 exiting successfully. Buy a developer a beer!
