                               Psi4 1.3.2 release

  ==> Input File <==

--------------------------------------------------------------------------
#psi4
#
memory 32 gb

molecule  {
-2 1
  O       -1.2362950     1.7303800    -0.2239510
  O        2.6794370    -1.1261430    -0.8901160
  O        3.7000480     0.2611620     0.6076450
  O       -3.2904550    -0.3020480    -0.9006360
  O       -2.5973840    -0.9175860     1.2002500
  C        0.1162890    -0.2520540     0.0602520
  C        1.3406488     0.6501799     0.1431308
  C       -1.1988410     0.5019860    -0.0558080
  C        2.7080760    -0.1725680    -0.0543080
  C       -2.4977060    -0.3261360     0.0823270
  H        0.0210760    -0.9244250     0.9209780
  H        0.2133690    -0.9136840    -0.8118550
  H        1.4153100     1.1406480     1.1027450
  H        1.3130670     1.3830990    -0.6295990
units angstrom
no_reorient  #important for SAPT in psi4, default
symmetry c1  #important for SAPT in psi4, default
}

set PROPERTIES_ORIGIN ["COM"]
properties('MP2/aug-cc-pvtz', properties = ['dipole'])
--------------------------------------------------------------------------

    Molecular point group: c1
  Charge       = -2
  Multiplicity = 1
  Basis Set: AUG-CC-PVTZ
    Blend: AUG-CC-PVTZ
  Basis Set: (AUG-CC-PVTZ AUX)
    Blend: AUG-CC-PVTZ-JKFIT

    Orbital Energies [Eh]
    ---------------------

    Doubly Occupied:

       1A    -20.287687     2A    -20.230978     3A    -20.229870
       4A    -20.210867     5A    -20.210407     6A    -11.071259
       7A    -11.068424     8A    -11.054942     9A    -10.969802
      10A    -10.955231    11A     -1.118567    12A     -1.085660
      13A     -1.074680    14A     -0.999308    15A     -0.977266
      16A     -0.788807    17A     -0.659156    18A     -0.555127
      19A     -0.439816    20A     -0.419133    21A     -0.382223
      22A     -0.370446    23A     -0.365248    24A     -0.330239
      25A     -0.321789    26A     -0.304399    27A     -0.284788
      28A     -0.274269    29A     -0.251153    30A     -0.233735
      31A     -0.219749    32A     -0.208368    33A     -0.146534
      34A     -0.128217    35A     -0.126548    36A     -0.113790
      37A     -0.110982    38A     -0.095440

  @DF-RHF Final Energy:  -566.18948725828602

   => Energetics <=

    Nuclear Repulsion Energy =            479.0645961249554716
    One-Electron Energy =               -1753.1583561427632958
    Two-Electron Energy =                 707.9042727595218594
    Total Energy =                       -566.1894872582860216
  Basis Set: (AUG-CC-PVTZ AUX)
    Blend: AUG-CC-PVTZ-RI
    Molecular point group: c1

    Geometry (in Angstrom), charge = -2, multiplicity = 1:

       Center              X                  Y                   Z               Mass
    ------------   -----------------  -----------------  -----------------  -----------------
         O           -1.213358509113     1.731477598572    -0.219687802846    15.994914619570
         O            2.702373490887    -1.125045401428    -0.885852802846    15.994914619570
         O            3.722984490887     0.262259598572     0.611908197154    15.994914619570
         O           -3.267518509113    -0.300950401428    -0.896372802846    15.994914619570
         O           -2.574447509113    -0.916488401428     1.204513197154    15.994914619570
         C            0.139225490887    -0.250956401428     0.064515197154    12.000000000000
         C            1.363585290887     0.651277498572     0.147393997154    12.000000000000
         C           -1.175904509113     0.503083598572    -0.051544802846    12.000000000000
         C            2.731012490887    -0.171470401428    -0.050044802846    12.000000000000
         C           -2.474769509113    -0.325038401428     0.086590197154    12.000000000000
         H            0.044012490887    -0.923327401428     0.925241197154     1.007825032230
         H            0.236305490887    -0.912586401428    -0.807591802846     1.007825032230
         H            1.438246490887     1.141745598572     1.107008197154     1.007825032230
         H            1.336003490887     1.384196598572    -0.625335802846     1.007825032230

  Basis Set: AUG-CC-PVTZ
    Blend: AUG-CC-PVTZ
  Basis Set: (AUG-CC-PVTZ AUX)
    Blend: AUG-CC-PVTZ-JKFIT
	 Reference Energy          =    -566.1894872582860216 [Eh]
	 Singles Energy            =      -0.0000000000000000 [Eh]
	 Same-Spin Energy          =      -0.5582411658649737 [Eh]
	 Opposite-Spin Energy      =      -1.6357688032197002 [Eh]
	 Correlation Energy        =      -2.1940099690846742 [Eh]
	 Total Energy              =    -568.3834972273706398 [Eh]

	 ================> DF-SCS-MP2 Energies <==================
	-----------------------------------------------------------
	 SCS Same-Spin Scale       =       0.3333333333333333 [-]
	 SCS Opposite-Spin Scale   =       1.2000000000000000 [-]
	 SCS Same-Spin Energy      =      -0.1860803886216579 [Eh]
	 SCS Opposite-Spin Energy  =      -1.9629225638636401 [Eh]
	 SCS Correlation Energy    =      -2.1490029524852980 [Eh]
	 SCS Total Energy          =    -568.3384902107712833 [Eh]
	-----------------------------------------------------------

  Dipole Moment: [D]
     X:    -1.2198      Y:     2.0150      Z:     0.2346     Total:     2.3671

*** Psi4 exiting successfully. Buy a developer a beer!
