                               Psi4 1.3.2 release

  ==> Input File <==

--------------------------------------------------------------------------
#psi4
#
memory 32 gb

molecule  {
-2 1
  O       -1.2362950     1.7303800    -0.2239510
  O        2.6794370    -1.1261430    -0.8901160
  O        3.7000480     0.2611620     0.6076450
  O       -3.2904550    -0.3020480    -0.9006360
  O       -2.5973840    -0.9175860     1.2002500
  C        0.1162890    -0.2520540     0.0602520
  C        1.3712430     0.6068110     0.1462360
  C       -1.1928020     0.3039240    -0.0286972
  C        2.7080760    -0.1725680    -0.0543080
  C       -2.4977060    -0.3261360     0.0823270
  H        0.0210760    -0.9244250     0.9209780
  H        0.2133690    -0.9136840    -0.8118550
  H        1.4153100     1.1406480     1.1027450
  H        1.3130670     1.3830990    -0.6295990
units angstrom
no_reorient  #important for SAPT in psi4, default
symmetry c1  #important for SAPT in psi4, default
}

set PROPERTIES_ORIGIN ["COM"]
properties('MP2/aug-cc-pvtz', properties = ['dipole'])
--------------------------------------------------------------------------

    Molecular point group: c1
  Charge       = -2
  Multiplicity = 1
  Basis Set: AUG-CC-PVTZ
    Blend: AUG-CC-PVTZ
  Basis Set: (AUG-CC-PVTZ AUX)
    Blend: AUG-CC-PVTZ-JKFIT

    Orbital Energies [Eh]
    ---------------------

    Doubly Occupied:

       1A    -20.269323     2A    -20.240816     3A    -20.237623
       4A    -20.213904     5A    -20.213305     6A    -11.089825
       7A    -11.081498     8A    -11.057611     9A    -10.980813
      10A    -10.964984    11A     -1.111747    12A     -1.079601
      13A     -1.009918    14A     -0.998198    15A     -0.981161
      16A     -0.812430    17A     -0.692407    18A     -0.590581
      19A     -0.437159    20A     -0.424489    21A     -0.387346
      22A     -0.378025    23A     -0.345918    24A     -0.336036
      25A     -0.328675    26A     -0.309255    27A     -0.291367
      28A     -0.260704    29A     -0.242871    30A     -0.220907
      31A     -0.182423    32A     -0.175520    33A     -0.147488
      34A     -0.138495    35A     -0.131160    36A     -0.126077
      37A     -0.115863    38A     -0.114306

  @DF-RHF Final Energy:  -566.12358593566114

   => Energetics <=

    Nuclear Repulsion Energy =            479.2653562962211140
    One-Electron Energy =               -1753.3382305066900244
    Two-Electron Energy =                 707.9492882748077136
    Total Energy =                       -566.1235859356611400
  Basis Set: (AUG-CC-PVTZ AUX)
    Blend: AUG-CC-PVTZ-RI
    Molecular point group: c1

    Geometry (in Angstrom), charge = -2, multiplicity = 1:

       Center              X                  Y                   Z               Mass
    ------------   -----------------  -----------------  -----------------  -----------------
         O           -1.216411151274     1.751596019683    -0.222205700150    15.994914619570
         O            2.699320848726    -1.104926980317    -0.888370700150    15.994914619570
         O            3.719931848726     0.282378019683     0.609390299850    15.994914619570
         O           -3.270571151274    -0.280831980317    -0.898890700150    15.994914619570
         O           -2.577500151274    -0.896369980317     1.201995299850    15.994914619570
         C            0.136172848726    -0.230837980317     0.061997299850    12.000000000000
         C            1.391126848726     0.628027019683     0.147981299850    12.000000000000
         C           -1.172918151274     0.325140019683    -0.026951900150    12.000000000000
         C            2.727959848726    -0.151351980317    -0.052562700150    12.000000000000
         C           -2.477822151274    -0.304919980317     0.084072299850    12.000000000000
         H            0.040959848726    -0.903208980317     0.922723299850     1.007825032230
         H            0.233252848726    -0.892467980317    -0.810109700150     1.007825032230
         H            1.435193848726     1.161864019683     1.104490299850     1.007825032230
         H            1.332950848726     1.404315019683    -0.627853700150     1.007825032230

  Basis Set: AUG-CC-PVTZ
    Blend: AUG-CC-PVTZ
  Basis Set: (AUG-CC-PVTZ AUX)
    Blend: AUG-CC-PVTZ-JKFIT
	 Reference Energy          =    -566.1235859356611400 [Eh]
	 Singles Energy            =      -0.0000000000000000 [Eh]
	 Same-Spin Energy          =      -0.5656912671007051 [Eh]
	 Opposite-Spin Energy      =      -1.6498155151030944 [Eh]
	 Correlation Energy        =      -2.2155067822037995 [Eh]
	 Total Energy              =    -568.3390927178649008 [Eh]

	 ================> DF-SCS-MP2 Energies <==================
	-----------------------------------------------------------
	 SCS Same-Spin Scale       =       0.3333333333333333 [-]
	 SCS Opposite-Spin Scale   =       1.2000000000000000 [-]
	 SCS Same-Spin Energy      =      -0.1885637557002350 [Eh]
	 SCS Opposite-Spin Energy  =      -1.9797786181237131 [Eh]
	 SCS Correlation Energy    =      -2.1683423738239482 [Eh]
	 SCS Total Energy          =    -568.2919283094851153 [Eh]
	-----------------------------------------------------------

  Dipole Moment: [D]
     X:    -1.0712      Y:     1.0180      Z:     0.3512     Total:     1.5189

*** Psi4 exiting successfully. Buy a developer a beer!
