                               Psi4 1.3.2 release

  ==> Input File <==

--------------------------------------------------------------------------
#psi4
#
memory 32 gb

molecule  {
-2 1
  O       -1.1930095     1.7308176    -0.2248213
  O        2.6794370    -1.1261430    -0.8901160
  O        3.7000480     0.2611620     0.6076450
  O       -3.2904550    -0.3020480    -0.9006360
  O       -2.5973840    -0.9175860     1.2002500
  C        0.1162890    -0.2520540     0.0602520
  C        1.3712430     0.6068110     0.1462360
  C       -1.1988410     0.5019860    -0.0558080
  C        2.7080760    -0.1725680    -0.0543080
  C       -2.4977060    -0.3261360     0.0823270
  H        0.0210760    -0.9244250     0.9209780
  H        0.2133690    -0.9136840    -0.8118550
  H        1.4153100     1.1406480     1.1027450
  H        1.3130670     1.3830990    -0.6295990
units angstrom
no_reorient  #important for SAPT in psi4, default
symmetry c1  #important for SAPT in psi4, default
}

set PROPERTIES_ORIGIN ["COM"]
properties('MP2/aug-cc-pvtz', properties = ['dipole'])
--------------------------------------------------------------------------

    Molecular point group: c1
  Charge       = -2
  Multiplicity = 1
  Basis Set: AUG-CC-PVTZ
    Blend: AUG-CC-PVTZ
  Basis Set: (AUG-CC-PVTZ AUX)
    Blend: AUG-CC-PVTZ-JKFIT

    Orbital Energies [Eh]
    ---------------------

    Doubly Occupied:

       1A    -20.288423     2A    -20.232958     3A    -20.232127
       4A    -20.209307     5A    -20.208432     6A    -11.074372
       7A    -11.070120     8A    -11.052143     9A    -10.968451
      10A    -10.957102    11A     -1.119412    12A     -1.087927
      13A     -1.074742    14A     -1.001382    15A     -0.976432
      16A     -0.787872    17A     -0.661185    18A     -0.557500
      19A     -0.439839    20A     -0.421696    21A     -0.382605
      22A     -0.369648    23A     -0.364184    24A     -0.332276
      25A     -0.324294    26A     -0.305197    27A     -0.284693
      28A     -0.274524    29A     -0.248453    30A     -0.229018
      31A     -0.214390    32A     -0.206174    33A     -0.148470
      34A     -0.129450    35A     -0.126076    36A     -0.116406
      37A     -0.110010    38A     -0.100434

  @DF-RHF Final Energy:  -566.19118323156533

   => Energetics <=

    Nuclear Repulsion Energy =            479.5506401171420521
    One-Electron Energy =               -1754.1081949247015928
    Two-Electron Energy =                 708.3663715759940942
    Total Energy =                       -566.1911832315653328
  Basis Set: (AUG-CC-PVTZ AUX)
    Blend: AUG-CC-PVTZ-RI
    Molecular point group: c1

    Geometry (in Angstrom), charge = -2, multiplicity = 1:

       Center              X                  Y                   Z               Mass
    ------------   -----------------  -----------------  -----------------  -----------------
         O           -1.177430197074     1.735480521387    -0.220720193636    15.994914619570
         O            2.695016302926    -1.121480078613    -0.886014893636    15.994914619570
         O            3.715627302926     0.265824921387     0.611746106364    15.994914619570
         O           -3.274875697074    -0.297385078613    -0.896534893636    15.994914619570
         O           -2.581804697074    -0.912923078613     1.204351106364    15.994914619570
         C            0.131868302926    -0.247391078613     0.064353106364    12.000000000000
         C            1.386822302926     0.611473921387     0.150337106364    12.000000000000
         C           -1.183261697074     0.506648921387    -0.051706893636    12.000000000000
         C            2.723655302926    -0.167905078613    -0.050206893636    12.000000000000
         C           -2.482126697074    -0.321473078613     0.086428106364    12.000000000000
         H            0.036655302926    -0.919762078613     0.925079106364     1.007825032230
         H            0.228948302926    -0.909021078613    -0.807753893636     1.007825032230
         H            1.430889302926     1.145310921387     1.106846106364     1.007825032230
         H            1.328646302926     1.387761921387    -0.625497893636     1.007825032230

  Basis Set: AUG-CC-PVTZ
    Blend: AUG-CC-PVTZ
  Basis Set: (AUG-CC-PVTZ AUX)
    Blend: AUG-CC-PVTZ-JKFIT
	 Reference Energy          =    -566.1911832315653328 [Eh]
	 Singles Energy            =      -0.0000000000000000 [Eh]
	 Same-Spin Energy          =      -0.5583507680716489 [Eh]
	 Opposite-Spin Energy      =      -1.6359523181848594 [Eh]
	 Correlation Energy        =      -2.1943030862565083 [Eh]
	 Total Energy              =    -568.3854863178218011 [Eh]

	 ================> DF-SCS-MP2 Energies <==================
	-----------------------------------------------------------
	 SCS Same-Spin Scale       =       0.3333333333333333 [-]
	 SCS Opposite-Spin Scale   =       1.2000000000000000 [-]
	 SCS Same-Spin Energy      =      -0.1861169226905496 [Eh]
	 SCS Opposite-Spin Energy  =      -1.9631427818218312 [Eh]
	 SCS Correlation Energy    =      -2.1492597045123807 [Eh]
	 SCS Total Energy          =    -568.3404429360776930 [Eh]
	-----------------------------------------------------------

  Dipole Moment: [D]
     X:    -1.3916      Y:     2.0015      Z:     0.2615     Total:     2.4518

*** Psi4 exiting successfully. Buy a developer a beer!
