                               Psi4 1.3.2 release

  ==> Input File <==

--------------------------------------------------------------------------
#psi4
#
memory 32 gb

molecule  {
-2 1
  P        0.4529150    -0.0635710     0.0011530
  O       -1.0098001     0.8301990    -0.0261491
  O        1.4686650     1.0929890     0.0080030
  O        0.4082150    -0.8988910    -1.2961470
  O        0.3968967    -0.9002397     1.2972169
  C       -2.1972550     0.0409090    -0.0016870
  H       -2.2469050    -0.6260310    -0.8712670
  H       -3.0573250     0.7185790    -0.0251270
  H       -2.2582250    -0.5790110     0.9013030
units angstrom
no_reorient  #important for SAPT in psi4, default
symmetry c1  #important for SAPT in psi4, default
}

set PROPERTIES_ORIGIN ["COM"]
properties('MP2/aug-cc-pvtz', properties = ['dipole'])
--------------------------------------------------------------------------

    Molecular point group: c1
  Charge       = -2
  Multiplicity = 1
  Basis Set: AUG-CC-PVTZ
    Blend: AUG-CC-PVTZ
  Basis Set: (AUG-CC-PVTZ AUX)
    Blend: AUG-CC-PVTZ-JKFIT

    Orbital Energies [Eh]
    ---------------------

    Doubly Occupied:

       1A    -79.654884     2A    -20.207329     3A    -20.101293
       4A    -20.099642     5A    -20.094799     6A    -10.972763
       7A     -7.169689     8A     -5.069185     9A     -5.066838
      10A     -5.066766    11A     -1.010947    12A     -0.907234
      13A     -0.840543    14A     -0.838401    15A     -0.612981
      16A     -0.367711    17A     -0.307114    18A     -0.293481
      19A     -0.252912    20A     -0.183722    21A     -0.178233
      22A     -0.157028    23A     -0.114221    24A     -0.076969
      25A     -0.075232    26A     -0.073541    27A     -0.036128
      28A     -0.034257    29A     -0.006469

  @DF-RHF Final Energy:  -679.95437686757691

   => Energetics <=

    Nuclear Repulsion Energy =            332.5204547529857564
    One-Electron Energy =               -1625.2090375944108018
    Two-Electron Energy =                 612.7342059738482476
    Total Energy =                       -679.9543768675769115
  Basis Set: (AUG-CC-PVTZ AUX)
    Blend: AUG-CC-PVTZ-RI
    Molecular point group: c1

    Geometry (in Angstrom), charge = -2, multiplicity = 1:

       Center              X                  Y                   Z               Mass
    ------------   -----------------  -----------------  -----------------  -----------------
         P            0.450578256830    -0.063715496794     0.003450902655    30.973761998420
         O           -1.012136843170     0.830054503206    -0.023851197345    15.994914619570
         O            1.466328256830     1.092844503206     0.010300902655    15.994914619570
         O            0.405878256830    -0.899035496794    -1.293849097345    15.994914619570
         O            0.394559956830    -0.900384196794     1.299514802655    15.994914619570
         C           -2.199591743170     0.040764503206     0.000610902655    12.000000000000
         H           -2.249241743170    -0.626175496794    -0.868969097345     1.007825032230
         H           -3.059661743170     0.718434503206    -0.022829097345     1.007825032230
         H           -2.260561743170    -0.579155496794     0.903600902655     1.007825032230

  Basis Set: AUG-CC-PVTZ
    Blend: AUG-CC-PVTZ
  Basis Set: (AUG-CC-PVTZ AUX)
    Blend: AUG-CC-PVTZ-JKFIT
	 Reference Energy          =    -679.9543768675769115 [Eh]
	 Singles Energy            =      -0.0000000000000000 [Eh]
	 Same-Spin Energy          =      -0.3806002662724715 [Eh]
	 Opposite-Spin Energy      =      -1.0895255767586007 [Eh]
	 Correlation Energy        =      -1.4701258430310722 [Eh]
	 Total Energy              =    -681.4245027106079533 [Eh]

	 ================> DF-SCS-MP2 Energies <==================
	-----------------------------------------------------------
	 SCS Same-Spin Scale       =       0.3333333333333333 [-]
	 SCS Opposite-Spin Scale   =       1.2000000000000000 [-]
	 SCS Same-Spin Energy      =      -0.1268667554241572 [Eh]
	 SCS Opposite-Spin Energy  =      -1.3074306921103209 [Eh]
	 SCS Correlation Energy    =      -1.4342974475344781 [Eh]
	 SCS Total Energy          =    -681.3886743151114160 [Eh]
	-----------------------------------------------------------

  Dipole Moment: [D]
     X:    -5.2490      Y:     0.6399      Z:     0.0155     Total:     5.2879

*** Psi4 exiting successfully. Buy a developer a beer!
