                               Psi4 1.3.2 release

  ==> Input File <==

--------------------------------------------------------------------------
#psi4
#
memory 32 gb

molecule  {
-2 1
  P        0.4973575     0.0143992    -0.0000263
  O       -1.0138150     0.8238990    -0.0131870
  O        1.4686650     1.0929890     0.0080030
  O        0.4082150    -0.8988910    -1.2961470
  O        0.3848450    -0.8949310     1.3000530
  C       -2.2366161     0.1039109    -0.0026749
  H       -2.2469050    -0.6260310    -0.8712670
  H       -3.0573250     0.7185790    -0.0251270
  H       -2.2582250    -0.5790110     0.9013030
units angstrom
no_reorient  #important for SAPT in psi4, default
symmetry c1  #important for SAPT in psi4, default
}

set PROPERTIES_ORIGIN ["COM"]
properties('MP2/aug-cc-pvtz', properties = ['dipole'])
--------------------------------------------------------------------------

    Molecular point group: c1
  Charge       = -2
  Multiplicity = 1
  Basis Set: AUG-CC-PVTZ
    Blend: AUG-CC-PVTZ
  Basis Set: (AUG-CC-PVTZ AUX)
    Blend: AUG-CC-PVTZ-JKFIT

    Orbital Energies [Eh]
    ---------------------

    Doubly Occupied:

       1A    -79.654862     2A    -20.201967     3A    -20.113551
       4A    -20.092205     5A    -20.091863     6A    -10.970438
       7A     -7.170491     8A     -5.069888     9A     -5.068176
      10A     -5.067018    11A     -1.009000    12A     -0.927964
      13A     -0.846117    14A     -0.815053    15A     -0.614288
      16A     -0.363756    17A     -0.316324    18A     -0.289294
      19A     -0.253061    20A     -0.189259    21A     -0.181636
      22A     -0.150604    23A     -0.106196    24A     -0.096442
      25A     -0.072558    26A     -0.063816    27A     -0.041737
      28A     -0.021456    29A     -0.000929

  @DF-RHF Final Energy:  -679.93766365946180

   => Energetics <=

    Nuclear Repulsion Energy =            331.8310254746909322
    One-Electron Energy =               -1623.8174766945005558
    Two-Electron Energy =                 612.0487875603478187
    Total Energy =                       -679.9376636594618049
  Basis Set: (AUG-CC-PVTZ AUX)
    Blend: AUG-CC-PVTZ-RI
    Molecular point group: c1

    Geometry (in Angstrom), charge = -2, multiplicity = 1:

       Center              X                  Y                   Z               Mass
    ------------   -----------------  -----------------  -----------------  -----------------
         P            0.489135572320    -0.014434936035     0.000413860613    30.973761998420
         O           -1.022036927680     0.795064863965    -0.012746839387    15.994914619570
         O            1.460443072320     1.064154863965     0.008443160613    15.994914619570
         O            0.399993072320    -0.927725136035    -1.295706839387    15.994914619570
         O            0.376623072320    -0.923765136035     1.300493160613    15.994914619570
         C           -2.244838027680     0.075076763965    -0.002234739387    12.000000000000
         H           -2.255126927680    -0.654865136035    -0.870826839387     1.007825032230
         H           -3.065546927680     0.689744863965    -0.024686839387     1.007825032230
         H           -2.266446927680    -0.607845136035     0.901743160613     1.007825032230

  Basis Set: AUG-CC-PVTZ
    Blend: AUG-CC-PVTZ
  Basis Set: (AUG-CC-PVTZ AUX)
    Blend: AUG-CC-PVTZ-JKFIT
	 Reference Energy          =    -679.9376636594618049 [Eh]
	 Singles Energy            =      -0.0000000000000000 [Eh]
	 Same-Spin Energy          =      -0.3806454393543746 [Eh]
	 Opposite-Spin Energy      =      -1.0894786914586125 [Eh]
	 Correlation Energy        =      -1.4701241308129871 [Eh]
	 Total Energy              =    -681.4077877902748241 [Eh]

	 ================> DF-SCS-MP2 Energies <==================
	-----------------------------------------------------------
	 SCS Same-Spin Scale       =       0.3333333333333333 [-]
	 SCS Opposite-Spin Scale   =       1.2000000000000000 [-]
	 SCS Same-Spin Energy      =      -0.1268818131181249 [Eh]
	 SCS Opposite-Spin Energy  =      -1.3073744297503349 [Eh]
	 SCS Correlation Energy    =      -1.4342562428684598 [Eh]
	 SCS Total Energy          =    -681.3719199023303190 [Eh]
	-----------------------------------------------------------

  Dipole Moment: [D]
     X:    -4.6576      Y:     1.8806      Z:    -0.0307     Total:     5.0231

*** Psi4 exiting successfully. Buy a developer a beer!
