                               Psi4 1.3.2 release

  ==> Input File <==

--------------------------------------------------------------------------
#psi4
#
memory 32 gb

molecule  {
-2 1
  P        0.4529150    -0.0635710     0.0011530
  O       -0.9282606     0.7721328    -0.0123505
  O        1.4686650     1.0929890     0.0080030
  O        0.4082150    -0.8988910    -1.2961470
  O        0.3848450    -0.8949310     1.3000530
  C       -2.1972550     0.0409090    -0.0016870
  H       -2.2469050    -0.6260310    -0.8712670
  H       -3.0573250     0.7185790    -0.0251270
  H       -2.2582250    -0.5790110     0.9013030
units angstrom
no_reorient  #important for SAPT in psi4, default
symmetry c1  #important for SAPT in psi4, default
}

set PROPERTIES_ORIGIN ["COM"]
properties('MP2/aug-cc-pvtz', properties = ['dipole'])
--------------------------------------------------------------------------

    Molecular point group: c1
  Charge       = -2
  Multiplicity = 1
  Basis Set: AUG-CC-PVTZ
    Blend: AUG-CC-PVTZ
  Basis Set: (AUG-CC-PVTZ AUX)
    Blend: AUG-CC-PVTZ-JKFIT

    Orbital Energies [Eh]
    ---------------------

    Doubly Occupied:

       1A    -79.642861     2A    -20.209040     3A    -20.091628
       4A    -20.091463     5A    -20.087553     6A    -10.983667
       7A     -7.159119     8A     -5.058910     9A     -5.056284
      10A     -5.056155    11A     -1.023093    12A     -0.896678
      13A     -0.833534    14A     -0.832274    15A     -0.628659
      16A     -0.372778    17A     -0.310960    18A     -0.304752
      19A     -0.246757    20A     -0.188423    21A     -0.186298
      22A     -0.147642    23A     -0.117843    24A     -0.074046
      25A     -0.069086    26A     -0.067545    27A     -0.027807
      28A     -0.025518    29A      0.000556

  @DF-RHF Final Energy:  -679.94780913326190

   => Energetics <=

    Nuclear Repulsion Energy =            335.5966910449271268
    One-Electron Energy =               -1631.5093692754905987
    Two-Electron Energy =                 615.9648690973015164
    Total Energy =                       -679.9478091332618988
  Basis Set: (AUG-CC-PVTZ AUX)
    Blend: AUG-CC-PVTZ-RI
    Molecular point group: c1

    Geometry (in Angstrom), charge = -2, multiplicity = 1:

       Center              X                  Y                   Z               Mass
    ------------   -----------------  -----------------  -----------------  -----------------
         P            0.440472030224    -0.056042505993     0.001031570805    30.973761998420
         O           -0.940703569776     0.779661294007    -0.012471929195    15.994914619570
         O            1.456222030224     1.100517494007     0.007881570805    15.994914619570
         O            0.395772030224    -0.891362505993    -1.296268429195    15.994914619570
         O            0.372402030224    -0.887402505993     1.299931570805    15.994914619570
         C           -2.209697969776     0.048437494007    -0.001808429195    12.000000000000
         H           -2.259347969776    -0.618502505993    -0.871388429195     1.007825032230
         H           -3.069767969776     0.726107494007    -0.025248429195     1.007825032230
         H           -2.270667969776    -0.571482505993     0.901181570805     1.007825032230

  Basis Set: AUG-CC-PVTZ
    Blend: AUG-CC-PVTZ
  Basis Set: (AUG-CC-PVTZ AUX)
    Blend: AUG-CC-PVTZ-JKFIT
	 Reference Energy          =    -679.9478091332618988 [Eh]
	 Singles Energy            =      -0.0000000000000000 [Eh]
	 Same-Spin Energy          =      -0.3800197542000856 [Eh]
	 Opposite-Spin Energy      =      -1.0878164085641429 [Eh]
	 Correlation Energy        =      -1.4678361627642285 [Eh]
	 Total Energy              =    -681.4156452960261277 [Eh]

	 ================> DF-SCS-MP2 Energies <==================
	-----------------------------------------------------------
	 SCS Same-Spin Scale       =       0.3333333333333333 [-]
	 SCS Opposite-Spin Scale   =       1.2000000000000000 [-]
	 SCS Same-Spin Energy      =      -0.1266732514000285 [Eh]
	 SCS Opposite-Spin Energy  =      -1.3053796902769714 [Eh]
	 SCS Correlation Energy    =      -1.4320529416770000 [Eh]
	 SCS Total Energy          =    -681.3798620749389556 [Eh]
	-----------------------------------------------------------

  Dipole Moment: [D]
     X:    -5.8452      Y:     0.8597      Z:    -0.0127     Total:     5.9081

*** Psi4 exiting successfully. Buy a developer a beer!
