                               Psi4 1.3.2 release

  ==> Input File <==

--------------------------------------------------------------------------
#psi4
#
memory 32 gb

molecule  {
-2 1
  P        0.4529150    -0.0635710     0.0011530
  O       -1.0060147     0.8366653    -0.0131412
  O        1.4585341     1.1018091     0.0078993
  O        0.4082150    -0.8988910    -1.2961470
  O        0.3848450    -0.8949310     1.3000530
  C       -2.1972550     0.0409090    -0.0016870
  H       -2.2469050    -0.6260310    -0.8712670
  H       -3.0573250     0.7185790    -0.0251270
  H       -2.2582250    -0.5790110     0.9013030
units angstrom
no_reorient  #important for SAPT in psi4, default
symmetry c1  #important for SAPT in psi4, default
}

set PROPERTIES_ORIGIN ["COM"]
properties('MP2/aug-cc-pvtz', properties = ['dipole'])
--------------------------------------------------------------------------

    Molecular point group: c1
  Charge       = -2
  Multiplicity = 1
  Basis Set: AUG-CC-PVTZ
    Blend: AUG-CC-PVTZ
  Basis Set: (AUG-CC-PVTZ AUX)
    Blend: AUG-CC-PVTZ-JKFIT

    Orbital Energies [Eh]
    ---------------------

    Doubly Occupied:

       1A    -79.654786     2A    -20.206355     3A    -20.101160
       4A    -20.100997     5A    -20.094601     6A    -10.972288
       7A     -7.169605     8A     -5.069120     9A     -5.066742
      10A     -5.066686    11A     -1.008323    12A     -0.906610
      13A     -0.841141    14A     -0.838727    15A     -0.612511
      16A     -0.365920    17A     -0.305421    18A     -0.291578
      19A     -0.252358    20A     -0.184111    21A     -0.178022
      22A     -0.157130    23A     -0.113806    24A     -0.076739
      25A     -0.075348    26A     -0.073837    27A     -0.036076
      28A     -0.034830    29A     -0.007011

  @DF-RHF Final Energy:  -679.95376634430136

   => Energetics <=

    Nuclear Repulsion Energy =            332.5257311601868082
    One-Electron Energy =               -1625.2353153503220256
    Two-Electron Energy =                 612.7558178458339171
    Total Energy =                       -679.9537663443013571
  Basis Set: (AUG-CC-PVTZ AUX)
    Blend: AUG-CC-PVTZ-RI
    Molecular point group: c1

    Geometry (in Angstrom), charge = -2, multiplicity = 1:

       Center              X                  Y                   Z               Mass
    ------------   -----------------  -----------------  -----------------  -----------------
         P            0.453253924676    -0.066710824716     0.001161651324    30.973761998420
         O           -1.005675775324     0.833525475284    -0.013132548676    15.994914619570
         O            1.458873024676     1.098669275284     0.007907951324    15.994914619570
         O            0.408553924676    -0.902030824716    -1.296138348676    15.994914619570
         O            0.385183924676    -0.898070824716     1.300061651324    15.994914619570
         C           -2.196916075324     0.037769175284    -0.001678348676    12.000000000000
         H           -2.246566075324    -0.629170824716    -0.871258348676     1.007825032230
         H           -3.056986075324     0.715439175284    -0.025118348676     1.007825032230
         H           -2.257886075324    -0.582150824716     0.901311651324     1.007825032230

  Basis Set: AUG-CC-PVTZ
    Blend: AUG-CC-PVTZ
  Basis Set: (AUG-CC-PVTZ AUX)
    Blend: AUG-CC-PVTZ-JKFIT
	 Reference Energy          =    -679.9537663443013571 [Eh]
	 Singles Energy            =      -0.0000000000000000 [Eh]
	 Same-Spin Energy          =      -0.3807008314350550 [Eh]
	 Opposite-Spin Energy      =      -1.0898157957697556 [Eh]
	 Correlation Energy        =      -1.4705166272048107 [Eh]
	 Total Energy              =    -681.4242829715061589 [Eh]

	 ================> DF-SCS-MP2 Energies <==================
	-----------------------------------------------------------
	 SCS Same-Spin Scale       =       0.3333333333333333 [-]
	 SCS Opposite-Spin Scale   =       1.2000000000000000 [-]
	 SCS Same-Spin Energy      =      -0.1269002771450183 [Eh]
	 SCS Opposite-Spin Energy  =      -1.3077789549237067 [Eh]
	 SCS Correlation Energy    =      -1.4346792320687249 [Eh]
	 SCS Total Energy          =    -681.3884455763700316 [Eh]
	-----------------------------------------------------------

  Dipole Moment: [D]
     X:    -5.2082      Y:     0.5954      Z:    -0.0096     Total:     5.2421

*** Psi4 exiting successfully. Buy a developer a beer!
