                               Psi4 1.3.2 release

  ==> Input File <==

--------------------------------------------------------------------------
#psi4
#
memory 32 gb

molecule  {
-2 1
  P        0.4372011    -0.0890309     0.0015375
  O       -1.0138150     0.8238990    -0.0131870
  O        1.4686650     1.0929890     0.0080030
  O        0.4082150    -0.8988910    -1.2961470
  O        0.3848450    -0.8949310     1.3000530
  C       -2.1834082     0.0203769    -0.0013646
  H       -2.2469050    -0.6260310    -0.8712670
  H       -3.0573250     0.7185790    -0.0251270
  H       -2.2582250    -0.5790110     0.9013030
units angstrom
no_reorient  #important for SAPT in psi4, default
symmetry c1  #important for SAPT in psi4, default
}

set PROPERTIES_ORIGIN ["COM"]
properties('MP2/aug-cc-pvtz', properties = ['dipole'])
--------------------------------------------------------------------------

    Molecular point group: c1
  Charge       = -2
  Multiplicity = 1
  Basis Set: AUG-CC-PVTZ
    Blend: AUG-CC-PVTZ
  Basis Set: (AUG-CC-PVTZ AUX)
    Blend: AUG-CC-PVTZ-JKFIT

    Orbital Energies [Eh]
    ---------------------

    Doubly Occupied:

       1A    -79.655144     2A    -20.207784     3A    -20.103931
       4A    -20.103607     5A    -20.089803     6A    -10.972769
       7A     -7.170107     8A     -5.069588     9A     -5.067307
      10A     -5.067113    11A     -1.014459    12A     -0.910040
      13A     -0.849552    14A     -0.828274    15A     -0.612143
      16A     -0.369766    17A     -0.313953    18A     -0.287876
      19A     -0.255309    20A     -0.186559    21A     -0.175181
      22A     -0.158317    23A     -0.117382    24A     -0.079440
      25A     -0.074813    26A     -0.072860    27A     -0.039301
      28A     -0.029934    29A     -0.005700

  @DF-RHF Final Energy:  -679.95255250429955

   => Energetics <=

    Nuclear Repulsion Energy =            333.0185127257769295
    One-Electron Energy =               -1626.1661056750974694
    Two-Electron Energy =                 613.1950404450210499
    Total Energy =                       -679.9525525042995469
  Basis Set: (AUG-CC-PVTZ AUX)
    Blend: AUG-CC-PVTZ-RI
    Molecular point group: c1

    Geometry (in Angstrom), charge = -2, multiplicity = 1:

       Center              X                  Y                   Z               Mass
    ------------   -----------------  -----------------  -----------------  -----------------
         P            0.440115831614    -0.079620391295     0.001394261994    30.973761998420
         O           -1.010900268386     0.833309508705    -0.013330238006    15.994914619570
         O            1.471579731614     1.102399508705     0.007859761994    15.994914619570
         O            0.411129731614    -0.889480491295    -1.296290238006    15.994914619570
         O            0.387759731614    -0.885520491295     1.299909761994    15.994914619570
         C           -2.180493468386     0.029787408705    -0.001507838006    12.000000000000
         H           -2.243990268386    -0.616620491295    -0.871410238006     1.007825032230
         H           -3.054410268386     0.727989508705    -0.025270238006     1.007825032230
         H           -2.255310268386    -0.569600491295     0.901159761994     1.007825032230

  Basis Set: AUG-CC-PVTZ
    Blend: AUG-CC-PVTZ
  Basis Set: (AUG-CC-PVTZ AUX)
    Blend: AUG-CC-PVTZ-JKFIT
	 Reference Energy          =    -679.9525525042995469 [Eh]
	 Singles Energy            =      -0.0000000000000000 [Eh]
	 Same-Spin Energy          =      -0.3806742836037203 [Eh]
	 Opposite-Spin Energy      =      -1.0896313183926931 [Eh]
	 Correlation Energy        =      -1.4703056019964134 [Eh]
	 Total Energy              =    -681.4228581062959620 [Eh]

	 ================> DF-SCS-MP2 Energies <==================
	-----------------------------------------------------------
	 SCS Same-Spin Scale       =       0.3333333333333333 [-]
	 SCS Opposite-Spin Scale   =       1.2000000000000000 [-]
	 SCS Same-Spin Energy      =      -0.1268914278679067 [Eh]
	 SCS Opposite-Spin Energy  =      -1.3075575820712317 [Eh]
	 SCS Correlation Energy    =      -1.4344490099391385 [Eh]
	 SCS Total Energy          =    -681.3870015142387047 [Eh]
	-----------------------------------------------------------

  Dipole Moment: [D]
     X:    -5.3787      Y:     0.2271      Z:    -0.0034     Total:     5.3835

*** Psi4 exiting successfully. Buy a developer a beer!
