                               Psi4 1.3.2 release

  ==> Input File <==

--------------------------------------------------------------------------
#psi4
#
memory 32 gb

molecule  {
-2 1
  P        0.4529150    -0.0635710     0.0011530
  O       -1.0138150     0.8238990    -0.0131870
  O        1.4686650     1.0929890     0.0080030
  O        0.4082150    -0.8988910    -1.2961470
  O        0.3848450    -0.8949310     1.3000530
  C       -2.1138590     0.0960856    -0.0024974
  H       -2.2469050    -0.6260310    -0.8712670
  H       -3.0573250     0.7185790    -0.0251270
  H       -2.2582250    -0.5790110     0.9013030
units angstrom
no_reorient  #important for SAPT in psi4, default
symmetry c1  #important for SAPT in psi4, default
}

set PROPERTIES_ORIGIN ["COM"]
properties('MP2/aug-cc-pvtz', properties = ['dipole'])
--------------------------------------------------------------------------

    Molecular point group: c1
  Charge       = -2
  Multiplicity = 1
  Basis Set: AUG-CC-PVTZ
    Blend: AUG-CC-PVTZ
  Basis Set: (AUG-CC-PVTZ AUX)
    Blend: AUG-CC-PVTZ-JKFIT

    Orbital Energies [Eh]
    ---------------------

    Doubly Occupied:

       1A    -79.660543     2A    -20.213229     3A    -20.104315
       4A    -20.104176     5A    -20.099277     6A    -10.978205
       7A     -7.175420     8A     -5.075034     9A     -5.072469
      10A     -5.072390    11A     -1.054264    12A     -0.916450
      13A     -0.844423    14A     -0.842742    15A     -0.596484
      16A     -0.390090    17A     -0.310254    18A     -0.310101
      19A     -0.261880    20A     -0.182153    21A     -0.171767
      22A     -0.156463    23A     -0.105003    24A     -0.082135
      25A     -0.078355    26A     -0.077531    27A     -0.041139
      28A     -0.039308    29A     -0.010279

  @DF-RHF Final Energy:  -679.95025730185262

   => Energetics <=

    Nuclear Repulsion Energy =            334.7692536846237203
    One-Electron Energy =               -1629.3872680468837189
    Two-Electron Energy =                 614.6677570604074390
    Total Energy =                       -679.9502573018526164
  Basis Set: (AUG-CC-PVTZ AUX)
    Blend: AUG-CC-PVTZ-RI
    Molecular point group: c1

    Geometry (in Angstrom), charge = -2, multiplicity = 1:

       Center              X                  Y                   Z               Mass
    ------------   -----------------  -----------------  -----------------  -----------------
         P            0.443815308114    -0.069591853257     0.001241656260    30.973761998420
         O           -1.022914691886     0.817878146743    -0.013098343740    15.994914619570
         O            1.459565308114     1.086968146743     0.008091656260    15.994914619570
         O            0.399115308114    -0.904911853257    -1.296058343740    15.994914619570
         O            0.375745308114    -0.900951853257     1.300141656260    15.994914619570
         C           -2.122958691886     0.090064746743    -0.002408743740    12.000000000000
         H           -2.256004691886    -0.632051853257    -0.871178343740     1.007825032230
         H           -3.066424691886     0.712558146743    -0.025038343740     1.007825032230
         H           -2.267324691886    -0.585031853257     0.901391656260     1.007825032230

  Basis Set: AUG-CC-PVTZ
    Blend: AUG-CC-PVTZ
  Basis Set: (AUG-CC-PVTZ AUX)
    Blend: AUG-CC-PVTZ-JKFIT
	 Reference Energy          =    -679.9502573018526164 [Eh]
	 Singles Energy            =      -0.0000000000000000 [Eh]
	 Same-Spin Energy          =      -0.3807106474833274 [Eh]
	 Opposite-Spin Energy      =      -1.0882788570763953 [Eh]
	 Correlation Energy        =      -1.4689895045597228 [Eh]
	 Total Energy              =    -681.4192468064123887 [Eh]

	 ================> DF-SCS-MP2 Energies <==================
	-----------------------------------------------------------
	 SCS Same-Spin Scale       =       0.3333333333333333 [-]
	 SCS Opposite-Spin Scale   =       1.2000000000000000 [-]
	 SCS Same-Spin Energy      =      -0.1269035491611091 [Eh]
	 SCS Opposite-Spin Energy  =      -1.3059346284916742 [Eh]
	 SCS Correlation Energy    =      -1.4328381776527834 [Eh]
	 SCS Total Energy          =    -681.3830954795054140 [Eh]
	-----------------------------------------------------------

  Dipole Moment: [D]
     X:    -4.6067      Y:     0.8293      Z:    -0.0133     Total:     4.6808

*** Psi4 exiting successfully. Buy a developer a beer!
