                               Psi4 1.3.2 release

  ==> Input File <==

--------------------------------------------------------------------------
#psi4
#
memory 32 gb

molecule  {
-2 1
  P        0.4529150    -0.0635710     0.0011530
  O       -1.0209331     0.8345770     0.0079959
  O        1.4686650     1.0929890     0.0080030
  O        0.4082150    -0.8988910    -1.2961470
  O        0.3848450    -0.8949310     1.3000530
  C       -2.1972550     0.0409090    -0.0016870
  H       -2.2637185    -0.6326957    -0.8649846
  H       -3.0573250     0.7185790    -0.0251270
  H       -2.2582250    -0.5790110     0.9013030
units angstrom
no_reorient  #important for SAPT in psi4, default
symmetry c1  #important for SAPT in psi4, default
}

set PROPERTIES_ORIGIN ["COM"]
properties('MP2/aug-cc-pvtz', properties = ['dipole'])
--------------------------------------------------------------------------

    Molecular point group: c1
  Charge       = -2
  Multiplicity = 1
  Basis Set: AUG-CC-PVTZ
    Blend: AUG-CC-PVTZ
  Basis Set: (AUG-CC-PVTZ AUX)
    Blend: AUG-CC-PVTZ-JKFIT

    Orbital Energies [Eh]
    ---------------------

    Doubly Occupied:

       1A    -79.656379     2A    -20.206399     3A    -20.102412
       4A    -20.100914     5A    -20.096278     6A    -10.971042
       7A     -7.171062     8A     -5.070551     9A     -5.068197
      10A     -5.068125    11A     -1.010263    12A     -0.908576
      13A     -0.841673    14A     -0.839577    15A     -0.610939
      16A     -0.367528    17A     -0.305898    18A     -0.291803
      19A     -0.254033    20A     -0.183610    21A     -0.177498
      22A     -0.158039    23A     -0.113065    24A     -0.077648
      25A     -0.075554    26A     -0.074574    27A     -0.037419
      28A     -0.035539    29A     -0.007710

  @DF-RHF Final Energy:  -679.95447094359929

   => Energetics <=

    Nuclear Repulsion Energy =            332.2511274968030648
    One-Electron Energy =               -1624.6465890291835876
    Two-Electron Energy =                 612.4409905887812329
    Total Energy =                       -679.9544709435992900
  Basis Set: (AUG-CC-PVTZ AUX)
    Blend: AUG-CC-PVTZ-RI
    Molecular point group: c1

    Geometry (in Angstrom), charge = -2, multiplicity = 1:

       Center              X                  Y                   Z               Mass
    ------------   -----------------  -----------------  -----------------  -----------------
         P            0.454104291650    -0.065063244311    -0.001985158200    30.973761998420
         O           -1.019743808350     0.833084755689     0.004857741800    15.994914619570
         O            1.469854291650     1.091496755689     0.004864841800    15.994914619570
         O            0.409404291650    -0.900383244311    -1.299285158200    15.994914619570
         O            0.386034291650    -0.896423244311     1.296914841800    15.994914619570
         C           -2.196065708350     0.039416755689    -0.004825158200    12.000000000000
         H           -2.262529208350    -0.634187944311    -0.868122758200     1.007825032230
         H           -3.056135708350     0.717086755689    -0.028265158200     1.007825032230
         H           -2.257035708350    -0.580503244311     0.898164841800     1.007825032230

  Basis Set: AUG-CC-PVTZ
    Blend: AUG-CC-PVTZ
  Basis Set: (AUG-CC-PVTZ AUX)
    Blend: AUG-CC-PVTZ-JKFIT
	 Reference Energy          =    -679.9544709435992900 [Eh]
	 Singles Energy            =      -0.0000000000000000 [Eh]
	 Same-Spin Energy          =      -0.3806767638878234 [Eh]
	 Opposite-Spin Energy      =      -1.0896797033080132 [Eh]
	 Correlation Energy        =      -1.4703564671958367 [Eh]
	 Total Energy              =    -681.4248274107951602 [Eh]

	 ================> DF-SCS-MP2 Energies <==================
	-----------------------------------------------------------
	 SCS Same-Spin Scale       =       0.3333333333333333 [-]
	 SCS Opposite-Spin Scale   =       1.2000000000000000 [-]
	 SCS Same-Spin Energy      =      -0.1268922546292744 [Eh]
	 SCS Opposite-Spin Energy  =      -1.3076156439696158 [Eh]
	 SCS Correlation Energy    =      -1.4345078985988904 [Eh]
	 SCS Total Energy          =    -681.3889788421981848 [Eh]
	-----------------------------------------------------------

  Dipole Moment: [D]
     X:    -5.1346      Y:     0.6086      Z:    -0.0381     Total:     5.1707

*** Psi4 exiting successfully. Buy a developer a beer!
