                               Psi4 1.3.2 release

  ==> Input File <==

--------------------------------------------------------------------------
#psi4
#
memory 32 gb

molecule  {
-2 1
  P        0.4529150    -0.0635710     0.0011530
  O       -1.0138150     0.8238990    -0.0131870
  O        1.4686650     1.0929890     0.0080030
  O        0.4082150    -0.8988910    -1.2961470
  O        0.3848450    -0.8949310     1.3000530
  C       -2.1972550     0.0409090    -0.0016870
  H       -2.2469050    -0.6260310    -0.8712670
  H       -3.0573250     0.7185790    -0.0251270
  H       -2.2582250    -0.5790110     0.9013030
units angstrom
no_reorient  #important for SAPT in psi4, default
symmetry c1  #important for SAPT in psi4, default
}

set PROPERTIES_ORIGIN ["COM"]
properties('MP2/aug-cc-pvtz', properties = ['dipole'])
--------------------------------------------------------------------------

    Molecular point group: c1
  Charge       = -2
  Multiplicity = 1
  Basis Set: AUG-CC-PVTZ
    Blend: AUG-CC-PVTZ
  Basis Set: (AUG-CC-PVTZ AUX)
    Blend: AUG-CC-PVTZ-JKFIT

    Orbital Energies [Eh]
    ---------------------

    Doubly Occupied:

       1A    -79.655175     2A    -20.205984     3A    -20.100685
       4A    -20.100525     5A    -20.095659     6A    -10.971667
       7A     -7.169960     8A     -5.069469     9A     -5.067111
      10A     -5.067032    11A     -1.012307    12A     -0.907674
      13A     -0.840817    14A     -0.838987    15A     -0.611901
      16A     -0.368231    17A     -0.307340    18A     -0.294324
      19A     -0.253281    20A     -0.183675    21A     -0.177875
      22A     -0.156678    23A     -0.113293    24A     -0.077225
      25A     -0.075070    26A     -0.074039    27A     -0.036627
      28A     -0.034578    29A     -0.006933

  @DF-RHF Final Energy:  -679.95503186486781

   => Energetics <=

    Nuclear Repulsion Energy =            332.6820599072231062
    One-Electron Energy =               -1625.5259371387387546
    Two-Electron Energy =                 612.8888453666479563
    Total Energy =                       -679.9550318648678058
  Basis Set: (AUG-CC-PVTZ AUX)
    Blend: AUG-CC-PVTZ-RI
    Molecular point group: c1

    Geometry (in Angstrom), charge = -2, multiplicity = 1:

       Center              X                  Y                   Z               Mass
    ------------   -----------------  -----------------  -----------------  -----------------
         P            0.452914964863    -0.063571323249     0.001153230414    30.973761998420
         O           -1.013815035137     0.823898676751    -0.013186769586    15.994914619570
         O            1.468664964863     1.092988676751     0.008003230414    15.994914619570
         O            0.408214964863    -0.898891323249    -1.296146769586    15.994914619570
         O            0.384844964863    -0.894931323249     1.300053230414    15.994914619570
         C           -2.197255035137     0.040908676751    -0.001686769586    12.000000000000
         H           -2.246905035137    -0.626031323249    -0.871266769586     1.007825032230
         H           -3.057325035137     0.718578676751    -0.025126769586     1.007825032230
         H           -2.258225035137    -0.579011323249     0.901303230414     1.007825032230

  Basis Set: AUG-CC-PVTZ
    Blend: AUG-CC-PVTZ
  Basis Set: (AUG-CC-PVTZ AUX)
    Blend: AUG-CC-PVTZ-JKFIT
	 Reference Energy          =    -679.9550318648678058 [Eh]
	 Singles Energy            =      -0.0000000000000000 [Eh]
	 Same-Spin Energy          =      -0.3805587029917727 [Eh]
	 Opposite-Spin Energy      =      -1.0893137689457169 [Eh]
	 Correlation Energy        =      -1.4698724719374896 [Eh]
	 Total Energy              =    -681.4249043368052980 [Eh]

	 ================> DF-SCS-MP2 Energies <==================
	-----------------------------------------------------------
	 SCS Same-Spin Scale       =       0.3333333333333333 [-]
	 SCS Opposite-Spin Scale   =       1.2000000000000000 [-]
	 SCS Same-Spin Energy      =      -0.1268529009972576 [Eh]
	 SCS Opposite-Spin Energy  =      -1.3071765227348602 [Eh]
	 SCS Correlation Energy    =      -1.4340294237321178 [Eh]
	 SCS Total Energy          =    -681.3890612885999190 [Eh]
	-----------------------------------------------------------

  Dipole Moment: [D]
     X:    -5.1954      Y:     0.6436      Z:    -0.0099     Total:     5.2351

*** Psi4 exiting successfully. Buy a developer a beer!
