                               Psi4 1.3.2 release

  ==> Input File <==

--------------------------------------------------------------------------
#psi4
#
memory 32 gb

molecule  {
-2 1
  P        0.4451136    -0.0763352     0.0013458
  O       -1.0138150     0.8238990    -0.0131870
  O        1.4686650     1.0929890     0.0080030
  O        0.4082150    -0.8988910    -1.2961470
  O        0.3848450    -0.8949310     1.3000530
  C       -2.1903764     0.0306128    -0.0015253
  H       -2.2469050    -0.6260310    -0.8712670
  H       -3.0573250     0.7185790    -0.0251270
  H       -2.2582250    -0.5790110     0.9013030
units angstrom
no_reorient  #important for SAPT in psi4, default
symmetry c1  #important for SAPT in psi4, default
}

set PROPERTIES_ORIGIN ["COM"]
properties('MP2/aug-cc-pvtz', properties = ['dipole'])
--------------------------------------------------------------------------

    Molecular point group: c1
  Charge       = -2
  Multiplicity = 1
  Basis Set: AUG-CC-PVTZ
    Blend: AUG-CC-PVTZ
  Basis Set: (AUG-CC-PVTZ AUX)
    Blend: AUG-CC-PVTZ-JKFIT

    Orbital Energies [Eh]
    ---------------------

    Doubly Occupied:

       1A    -79.655161     2A    -20.206855     3A    -20.102289
       4A    -20.102047     5A    -20.092720     6A    -10.972173
       7A     -7.170011     8A     -5.069510     9A     -5.067149
      10A     -5.067087    11A     -1.013330    12A     -0.908456
      13A     -0.845179    14A     -0.833967    15A     -0.611961
      16A     -0.368999    17A     -0.310614    18A     -0.291017
      19A     -0.254212    20A     -0.185023    21A     -0.176394
      22A     -0.157549    23A     -0.115275    24A     -0.077214
      25A     -0.075028    26A     -0.074303    27A     -0.036924
      28A     -0.033483    29A     -0.006552

  @DF-RHF Final Energy:  -679.95426109743232

   => Energetics <=

    Nuclear Repulsion Energy =            332.8474555488699025
    One-Electron Energy =               -1625.8424687918202380
    Two-Electron Energy =                 613.0407521455180131
    Total Energy =                       -679.9542610974323225
  Basis Set: (AUG-CC-PVTZ AUX)
    Blend: AUG-CC-PVTZ-RI
    Molecular point group: c1

    Geometry (in Angstrom), charge = -2, multiplicity = 1:

       Center              X                  Y                   Z               Mass
    ------------   -----------------  -----------------  -----------------  -----------------
         P            0.446560191502    -0.071617171361     0.001274086746    30.973761998420
         O           -1.012368408498     0.828617028639    -0.013258713254    15.994914619570
         O            1.470111591502     1.097707028639     0.007931286746    15.994914619570
         O            0.409661591502    -0.894172971361    -1.296218713254    15.994914619570
         O            0.386291591502    -0.890212971361     1.299981286746    15.994914619570
         C           -2.188929808498     0.035330828639    -0.001597013254    12.000000000000
         H           -2.245458408498    -0.621312971361    -0.871338713254     1.007825032230
         H           -3.055878408498     0.723297028639    -0.025198713254     1.007825032230
         H           -2.256778408498    -0.574292971361     0.901231286746     1.007825032230

  Basis Set: AUG-CC-PVTZ
    Blend: AUG-CC-PVTZ
  Basis Set: (AUG-CC-PVTZ AUX)
    Blend: AUG-CC-PVTZ-JKFIT
	 Reference Energy          =    -679.9542610974323225 [Eh]
	 Singles Energy            =      -0.0000000000000000 [Eh]
	 Same-Spin Energy          =      -0.3806069293253954 [Eh]
	 Opposite-Spin Energy      =      -1.0894487332878995 [Eh]
	 Correlation Energy        =      -1.4700556626132948 [Eh]
	 Total Energy              =    -681.4243167600455990 [Eh]

	 ================> DF-SCS-MP2 Energies <==================
	-----------------------------------------------------------
	 SCS Same-Spin Scale       =       0.3333333333333333 [-]
	 SCS Opposite-Spin Scale   =       1.2000000000000000 [-]
	 SCS Same-Spin Energy      =      -0.1268689764417985 [Eh]
	 SCS Opposite-Spin Energy  =      -1.3073384799454792 [Eh]
	 SCS Correlation Energy    =      -1.4342074563872778 [Eh]
	 SCS Total Energy          =    -681.3884685538196209 [Eh]
	-----------------------------------------------------------

  Dipole Moment: [D]
     X:    -5.2868      Y:     0.4355      Z:    -0.0067     Total:     5.3047

*** Psi4 exiting successfully. Buy a developer a beer!
