                               Psi4 1.3.2 release

  ==> Input File <==

--------------------------------------------------------------------------
#psi4
#
memory 32 gb

molecule  {
-2 1
  P        0.4529150    -0.0635710     0.0011530
  O       -1.0138150     0.8238990    -0.0131870
  O        1.3366889     0.9427175     0.0071130
  O        0.4082150    -0.8988910    -1.2961470
  O        0.3848450    -0.8949310     1.3000530
  C       -2.1972550     0.0409090    -0.0016870
  H       -2.2469050    -0.6260310    -0.8712670
  H       -3.0573250     0.7185790    -0.0251270
  H       -2.2582250    -0.5790110     0.9013030
units angstrom
no_reorient  #important for SAPT in psi4, default
symmetry c1  #important for SAPT in psi4, default
}

set PROPERTIES_ORIGIN ["COM"]
properties('MP2/aug-cc-pvtz', properties = ['dipole'])
--------------------------------------------------------------------------

    Molecular point group: c1
  Charge       = -2
  Multiplicity = 1
  Basis Set: AUG-CC-PVTZ
    Blend: AUG-CC-PVTZ
  Basis Set: (AUG-CC-PVTZ AUX)
    Blend: AUG-CC-PVTZ-JKFIT

    Orbital Energies [Eh]
    ---------------------

    Doubly Occupied:

       1A    -79.608315     2A    -20.191791     3A    -20.081810
       4A    -20.081770     5A    -20.081600     6A    -10.961399
       7A     -7.134847     8A     -5.034797     9A     -5.032248
      10A     -5.030040    11A     -1.014749    12A     -0.950074
      13A     -0.852054    14A     -0.824369    15A     -0.601666
      16A     -0.355374    17A     -0.297023    18A     -0.283805
      19A     -0.253277    20A     -0.195729    21A     -0.183104
      22A     -0.156332    23A     -0.107957    24A     -0.097221
      25A     -0.078358    26A     -0.065309    27A     -0.040930
      28A     -0.021158    29A      0.003022

  @DF-RHF Final Energy:  -679.91986959751080

   => Energetics <=

    Nuclear Repulsion Energy =            341.8684500180045802
    One-Electron Energy =               -1644.3484721657807768
    Two-Electron Energy =                 622.5601525502654567
    Total Energy =                       -679.9198695975107967
  Basis Set: (AUG-CC-PVTZ AUX)
    Blend: AUG-CC-PVTZ-RI
    Molecular point group: c1

    Geometry (in Angstrom), charge = -2, multiplicity = 1:

       Center              X                  Y                   Z               Mass
    ------------   -----------------  -----------------  -----------------  -----------------
         P            0.472109418755    -0.041716007187     0.001282671002    30.973761998420
         O           -0.994620581245     0.845753992813    -0.013057328998    15.994914619570
         O            1.355883318755     0.964572492813     0.007242671002    15.994914619570
         O            0.427409418755    -0.877036007187    -1.296017328998    15.994914619570
         O            0.404039418755    -0.873076007187     1.300182671002    15.994914619570
         C           -2.178060581245     0.062763992813    -0.001557328998    12.000000000000
         H           -2.227710581245    -0.604176007187    -0.871137328998     1.007825032230
         H           -3.038130581245     0.740433992813    -0.024997328998     1.007825032230
         H           -2.239030581245    -0.557156007187     0.901432671002     1.007825032230

  Basis Set: AUG-CC-PVTZ
    Blend: AUG-CC-PVTZ
  Basis Set: (AUG-CC-PVTZ AUX)
    Blend: AUG-CC-PVTZ-JKFIT
	 Reference Energy          =    -679.9198695975107967 [Eh]
	 Singles Energy            =      -0.0000000000000000 [Eh]
	 Same-Spin Energy          =      -0.3773587048115846 [Eh]
	 Opposite-Spin Energy      =      -1.0808480954326636 [Eh]
	 Correlation Energy        =      -1.4582068002442481 [Eh]
	 Total Energy              =    -681.3780763977550805 [Eh]

	 ================> DF-SCS-MP2 Energies <==================
	-----------------------------------------------------------
	 SCS Same-Spin Scale       =       0.3333333333333333 [-]
	 SCS Opposite-Spin Scale   =       1.2000000000000000 [-]
	 SCS Same-Spin Energy      =      -0.1257862349371948 [Eh]
	 SCS Opposite-Spin Energy  =      -1.2970177145191963 [Eh]
	 SCS Correlation Energy    =      -1.4228039494563911 [Eh]
	 SCS Total Energy          =    -681.3426735469671485 [Eh]
	-----------------------------------------------------------

  Dipole Moment: [D]
     X:    -4.1478      Y:     1.7076      Z:    -0.0033     Total:     4.4856

*** Psi4 exiting successfully. Buy a developer a beer!
