                               Psi4 1.3.2 release

  ==> Input File <==

--------------------------------------------------------------------------
#psi4
#
memory 32 gb

molecule  {
-2 1
  P        0.4529150    -0.0635710     0.0011530
  O       -1.0582510     0.7459165    -0.0134390
  O        1.5277996     1.0382427     0.0086141
  O        0.4082150    -0.8988910    -1.2961470
  O        0.3848450    -0.8949310     1.3000530
  C       -2.1972550     0.0409090    -0.0016870
  H       -2.2469050    -0.6260310    -0.8712670
  H       -3.0573250     0.7185790    -0.0251270
  H       -2.2582250    -0.5790110     0.9013030
units angstrom
no_reorient  #important for SAPT in psi4, default
symmetry c1  #important for SAPT in psi4, default
}

set PROPERTIES_ORIGIN ["COM"]
properties('MP2/aug-cc-pvtz', properties = ['dipole'])
--------------------------------------------------------------------------

    Molecular point group: c1
  Charge       = -2
  Multiplicity = 1
  Basis Set: AUG-CC-PVTZ
    Blend: AUG-CC-PVTZ
  Basis Set: (AUG-CC-PVTZ AUX)
    Blend: AUG-CC-PVTZ-JKFIT

    Orbital Energies [Eh]
    ---------------------

    Doubly Occupied:

       1A    -79.658364     2A    -20.203617     3A    -20.102296
       4A    -20.098229     5A    -20.098089     6A    -10.967164
       7A     -7.172915     8A     -5.072432     9A     -5.070111
      10A     -5.069915    11A     -1.040090    12A     -0.913647
      13A     -0.840680    14A     -0.839257    15A     -0.608044
      16A     -0.383278    17A     -0.320498    18A     -0.313247
      19A     -0.256937    20A     -0.181394    21A     -0.177672
      22A     -0.151967    23A     -0.109280    24A     -0.081013
      25A     -0.075413    26A     -0.073097    27A     -0.038812
      28A     -0.033218    29A     -0.006651

  @DF-RHF Final Energy:  -679.95453809769924

   => Energetics <=

    Nuclear Repulsion Energy =            333.7385211859623837
    One-Electron Energy =               -1627.4714672113213965
    Two-Electron Energy =                 613.7784079276598277
    Total Energy =                       -679.9545380976992419
  Basis Set: (AUG-CC-PVTZ AUX)
    Blend: AUG-CC-PVTZ-RI
    Molecular point group: c1

    Geometry (in Angstrom), charge = -2, multiplicity = 1:

       Center              X                  Y                   Z               Mass
    ------------   -----------------  -----------------  -----------------  -----------------
         P            0.450777217195    -0.044267397524     0.001101003318    30.973761998420
         O           -1.060388782805     0.765220102476    -0.013490996682    15.994914619570
         O            1.525661817195     1.057546302476     0.008562103318    15.994914619570
         O            0.406077217195    -0.879587397524    -1.296198996682    15.994914619570
         O            0.382707217195    -0.875627397524     1.300001003318    15.994914619570
         C           -2.199392782805     0.060212602476    -0.001738996682    12.000000000000
         H           -2.249042782805    -0.606727397524    -0.871318996682     1.007825032230
         H           -3.059462782805     0.737882602476    -0.025178996682     1.007825032230
         H           -2.260362782805    -0.559707397524     0.901251003318     1.007825032230

  Basis Set: AUG-CC-PVTZ
    Blend: AUG-CC-PVTZ
  Basis Set: (AUG-CC-PVTZ AUX)
    Blend: AUG-CC-PVTZ-JKFIT
	 Reference Energy          =    -679.9545380976992419 [Eh]
	 Singles Energy            =      -0.0000000000000000 [Eh]
	 Same-Spin Energy          =      -0.3800370903194369 [Eh]
	 Opposite-Spin Energy      =      -1.0869891286268940 [Eh]
	 Correlation Energy        =      -1.4670262189463310 [Eh]
	 Total Energy              =    -681.4215643166455720 [Eh]

	 ================> DF-SCS-MP2 Energies <==================
	-----------------------------------------------------------
	 SCS Same-Spin Scale       =       0.3333333333333333 [-]
	 SCS Opposite-Spin Scale   =       1.2000000000000000 [-]
	 SCS Same-Spin Energy      =      -0.1266790301064790 [Eh]
	 SCS Opposite-Spin Energy  =      -1.3043869543522728 [Eh]
	 SCS Correlation Energy    =      -1.4310659844587517 [Eh]
	 SCS Total Energy          =    -681.3856040821580109 [Eh]
	-----------------------------------------------------------

  Dipole Moment: [D]
     X:    -5.0407      Y:     0.9525      Z:    -0.0125     Total:     5.1299

*** Psi4 exiting successfully. Buy a developer a beer!
