                               Psi4 1.3.2 release

  ==> Input File <==

--------------------------------------------------------------------------
#psi4
#
memory 32 gb

molecule  {
-2 1
  P        0.4681821    -0.0378408     0.0007641
  O       -1.0138150     0.8238990    -0.0131870
  O        1.4686650     1.0929890     0.0080030
  O        0.4082150    -0.8988910    -1.2961470
  O        0.3848450    -0.8949310     1.3000530
  C       -2.2107413     0.0616796    -0.0020129
  H       -2.2469050    -0.6260310    -0.8712670
  H       -3.0573250     0.7185790    -0.0251270
  H       -2.2582250    -0.5790110     0.9013030
units angstrom
no_reorient  #important for SAPT in psi4, default
symmetry c1  #important for SAPT in psi4, default
}

set PROPERTIES_ORIGIN ["COM"]
properties('MP2/aug-cc-pvtz', properties = ['dipole'])
--------------------------------------------------------------------------

    Molecular point group: c1
  Charge       = -2
  Multiplicity = 1
  Basis Set: AUG-CC-PVTZ
    Blend: AUG-CC-PVTZ
  Basis Set: (AUG-CC-PVTZ AUX)
    Blend: AUG-CC-PVTZ-JKFIT

    Orbital Energies [Eh]
    ---------------------

    Doubly Occupied:

       1A    -79.655169     2A    -20.204415     3A    -20.101588
       4A    -20.097602     5A    -20.097582     6A    -10.970916
       7A     -7.169985     8A     -5.069490     9A     -5.067297
      10A     -5.066908    11A     -1.010608    12A     -0.909452
      13A     -0.846042    14A     -0.832131    15A     -0.612159
      16A     -0.366695    17A     -0.301477    18A     -0.300868
      19A     -0.252042    20A     -0.181729    21A     -0.181401
      22A     -0.154690    23A     -0.109868    24A     -0.082238
      25A     -0.073952    26A     -0.071072    27A     -0.041048
      28A     -0.030117    29A     -0.006331

  @DF-RHF Final Energy:  -679.95360243744994

   => Energetics <=

    Nuclear Repulsion Energy =            332.3698770282190367
    One-Electron Energy =               -1624.9172128511097526
    Two-Electron Energy =                 612.5937333854408280
    Total Energy =                       -679.9536024374499448
  Basis Set: (AUG-CC-PVTZ AUX)
    Blend: AUG-CC-PVTZ-RI
    Molecular point group: c1

    Geometry (in Angstrom), charge = -2, multiplicity = 1:

       Center              X                  Y                   Z               Mass
    ------------   -----------------  -----------------  -----------------  -----------------
         P            0.465353798796    -0.047354105821     0.000909419944    30.973761998420
         O           -1.016643301204     0.814385694179    -0.013041680056    15.994914619570
         O            1.465836698796     1.083475694179     0.008148319944    15.994914619570
         O            0.405386698796    -0.908404305821    -1.296001680056    15.994914619570
         O            0.382016698796    -0.904444305821     1.300198319944    15.994914619570
         C           -2.213569601204     0.052166294179    -0.001867580056    12.000000000000
         H           -2.249733301204    -0.635544305821    -0.871121680056     1.007825032230
         H           -3.060153301204     0.709065694179    -0.024981680056     1.007825032230
         H           -2.261053301204    -0.588524305821     0.901448319944     1.007825032230

  Basis Set: AUG-CC-PVTZ
    Blend: AUG-CC-PVTZ
  Basis Set: (AUG-CC-PVTZ AUX)
    Blend: AUG-CC-PVTZ-JKFIT
	 Reference Energy          =    -679.9536024374499448 [Eh]
	 Singles Energy            =      -0.0000000000000000 [Eh]
	 Same-Spin Energy          =      -0.3805175370389002 [Eh]
	 Opposite-Spin Energy      =      -1.0891845476736624 [Eh]
	 Correlation Energy        =      -1.4697020847125626 [Eh]
	 Total Energy              =    -681.4233045221625389 [Eh]

	 ================> DF-SCS-MP2 Energies <==================
	-----------------------------------------------------------
	 SCS Same-Spin Scale       =       0.3333333333333333 [-]
	 SCS Opposite-Spin Scale   =       1.2000000000000000 [-]
	 SCS Same-Spin Energy      =      -0.1268391790129667 [Eh]
	 SCS Opposite-Spin Energy  =      -1.3070214572083947 [Eh]
	 SCS Correlation Energy    =      -1.4338606362213615 [Eh]
	 SCS Total Energy          =    -681.3874630736712561 [Eh]
	-----------------------------------------------------------

  Dipole Moment: [D]
     X:    -5.0141      Y:     1.0586      Z:    -0.0167     Total:     5.1246

*** Psi4 exiting successfully. Buy a developer a beer!
