                               Psi4 1.3.2 release

  ==> Input File <==

--------------------------------------------------------------------------
#psi4
#
memory 32 gb

molecule  {
-2 1
  P        0.4529150    -0.0635710     0.0011530
  O       -0.9819496     0.8745489    -0.0129971
  O        1.4276849     1.1277343     0.0075850
  O        0.4082150    -0.8988910    -1.2961470
  O        0.3848450    -0.8949310     1.3000530
  C       -2.1972550     0.0409090    -0.0016870
  H       -2.2469050    -0.6260310    -0.8712670
  H       -3.0573250     0.7185790    -0.0251270
  H       -2.2582250    -0.5790110     0.9013030
units angstrom
no_reorient  #important for SAPT in psi4, default
symmetry c1  #important for SAPT in psi4, default
}

set PROPERTIES_ORIGIN ["COM"]
properties('MP2/aug-cc-pvtz', properties = ['dipole'])
--------------------------------------------------------------------------

    Molecular point group: c1
  Charge       = -2
  Multiplicity = 1
  Basis Set: AUG-CC-PVTZ
    Blend: AUG-CC-PVTZ
  Basis Set: (AUG-CC-PVTZ AUX)
    Blend: AUG-CC-PVTZ-JKFIT

    Orbital Energies [Eh]
    ---------------------

    Doubly Occupied:

       1A    -79.653871     2A    -20.207438     3A    -20.102690
       4A    -20.102522     5A    -20.091535     6A    -10.973849
       7A     -7.168786     8A     -5.068326     9A     -5.065888
      10A     -5.065870    11A     -0.997570    12A     -0.903284
      13A     -0.842221    14A     -0.837959    15A     -0.614210
      16A     -0.359379    17A     -0.300068    18A     -0.284496
      19A     -0.248676    20A     -0.185485    21A     -0.178626
      22A     -0.157931    23A     -0.115118    24A     -0.077130
      25A     -0.074527    26A     -0.073314    27A     -0.035717
      28A     -0.033939    29A     -0.007298

  @DF-RHF Final Energy:  -679.94788651989245

   => Energetics <=

    Nuclear Repulsion Energy =            332.0923476000820642
    One-Electron Energy =               -1624.4250175676779691
    Two-Electron Energy =                 612.3847834477033985
    Total Energy =                       -679.9478865198924495
  Basis Set: (AUG-CC-PVTZ AUX)
    Blend: AUG-CC-PVTZ-RI
    Molecular point group: c1

    Geometry (in Angstrom), charge = -2, multiplicity = 1:

       Center              X                  Y                   Z               Mass
    ------------   -----------------  -----------------  -----------------  -----------------
         P            0.454240596465    -0.075991104020     0.001186405019    30.973761998420
         O           -0.980624003535     0.862128795980    -0.012963694981    15.994914619570
         O            1.429010496465     1.115314195980     0.007618405019    15.994914619570
         O            0.409540596465    -0.911311104020    -1.296113594981    15.994914619570
         O            0.386170596465    -0.907351104020     1.300086405019    15.994914619570
         C           -2.195929403535     0.028488895980    -0.001653594981    12.000000000000
         H           -2.245579403535    -0.638451104020    -0.871233594981     1.007825032230
         H           -3.055999403535     0.706158895980    -0.025093594981     1.007825032230
         H           -2.256899403535    -0.591431104020     0.901336405019     1.007825032230

  Basis Set: AUG-CC-PVTZ
    Blend: AUG-CC-PVTZ
  Basis Set: (AUG-CC-PVTZ AUX)
    Blend: AUG-CC-PVTZ-JKFIT
	 Reference Energy          =    -679.9478865198924495 [Eh]
	 Singles Energy            =      -0.0000000000000000 [Eh]
	 Same-Spin Energy          =      -0.3812238111531105 [Eh]
	 Opposite-Spin Energy      =      -1.0915229170107603 [Eh]
	 Correlation Energy        =      -1.4727467281638709 [Eh]
	 Total Energy              =    -681.4206332480563333 [Eh]

	 ================> DF-SCS-MP2 Energies <==================
	-----------------------------------------------------------
	 SCS Same-Spin Scale       =       0.3333333333333333 [-]
	 SCS Opposite-Spin Scale   =       1.2000000000000000 [-]
	 SCS Same-Spin Energy      =      -0.1270746037177035 [Eh]
	 SCS Opposite-Spin Energy  =      -1.3098275004129123 [Eh]
	 SCS Correlation Energy    =      -1.4369021041306158 [Eh]
	 SCS Total Energy          =    -681.3847886240230309 [Eh]
	-----------------------------------------------------------

  Dipole Moment: [D]
     X:    -5.2238      Y:     0.4574      Z:    -0.0084     Total:     5.2438

*** Psi4 exiting successfully. Buy a developer a beer!
