                               Psi4 1.3.2 release

  ==> Input File <==

--------------------------------------------------------------------------
#psi4
#
memory 32 gb

molecule  {
-2 1
  P        0.4529150    -0.0635710     0.0011530
  O       -1.0362420     0.8552044     0.0503465
  O        1.4686650     1.0929890     0.0080030
  O        0.4082150    -0.8988910    -1.2961470
  O        0.3848450    -0.8949310     1.3000530
  C       -2.1972550     0.0409090    -0.0016870
  H       -2.2972796    -0.6454076    -0.8516329
  H       -3.0573250     0.7185790    -0.0251270
  H       -2.2582250    -0.5790110     0.9013030
units angstrom
no_reorient  #important for SAPT in psi4, default
symmetry c1  #important for SAPT in psi4, default
}

set PROPERTIES_ORIGIN ["COM"]
properties('MP2/aug-cc-pvtz', properties = ['dipole'])
--------------------------------------------------------------------------

    Molecular point group: c1
  Charge       = -2
  Multiplicity = 1
  Basis Set: AUG-CC-PVTZ
    Blend: AUG-CC-PVTZ
  Basis Set: (AUG-CC-PVTZ AUX)
    Blend: AUG-CC-PVTZ-JKFIT

    Orbital Energies [Eh]
    ---------------------

    Doubly Occupied:

       1A    -79.658913     2A    -20.207042     3A    -20.106218
       4A    -20.101519     5A    -20.097681     6A    -10.969717
       7A     -7.173404     8A     -5.072860     9A     -5.070509
      10A     -5.070433    11A     -1.006130    12A     -0.910509
      13A     -0.843669    14A     -0.840653    15A     -0.608953
      16A     -0.365935    17A     -0.303823    18A     -0.285927
      19A     -0.255404    20A     -0.183442    21A     -0.176742
      22A     -0.160865    23A     -0.112373    24A     -0.078887
      25A     -0.076855    26A     -0.074933    27A     -0.039591
      28A     -0.036879    29A     -0.009346

  @DF-RHF Final Energy:  -679.95187033502873

   => Energetics <=

    Nuclear Repulsion Energy =            331.3671408225148411
    One-Electron Energy =               -1622.8395977567072350
    Two-Electron Energy =                 611.5205865991637211
    Total Energy =                       -679.9518703350287296
  Basis Set: (AUG-CC-PVTZ AUX)
    Blend: AUG-CC-PVTZ-RI
    Molecular point group: c1

    Geometry (in Angstrom), charge = -2, multiplicity = 1:

       Center              X                  Y                   Z               Mass
    ------------   -----------------  -----------------  -----------------  -----------------
         P            0.456638353588    -0.067946778431    -0.008266935886    30.973761998420
         O           -1.032518646412     0.850828621569     0.040926564114    15.994914619570
         O            1.472388353588     1.088613221569    -0.001416935886    15.994914619570
         O            0.411938353588    -0.903266778431    -1.305566935886    15.994914619570
         O            0.388568353588    -0.899306778431     1.290633064114    15.994914619570
         C           -2.193531646412     0.036533221569    -0.011106935886    12.000000000000
         H           -2.293556246412    -0.649783378431    -0.861052835886     1.007825032230
         H           -3.053601646412     0.714203221569    -0.034546935886     1.007825032230
         H           -2.254501646412    -0.583386778431     0.891883064114     1.007825032230

  Basis Set: AUG-CC-PVTZ
    Blend: AUG-CC-PVTZ
  Basis Set: (AUG-CC-PVTZ AUX)
    Blend: AUG-CC-PVTZ-JKFIT
	 Reference Energy          =    -679.9518703350287296 [Eh]
	 Singles Energy            =      -0.0000000000000000 [Eh]
	 Same-Spin Energy          =      -0.3809811585388038 [Eh]
	 Opposite-Spin Energy      =      -1.0905403406324248 [Eh]
	 Correlation Energy        =      -1.4715214991712284 [Eh]
	 Total Energy              =    -681.4233918341999470 [Eh]

	 ================> DF-SCS-MP2 Energies <==================
	-----------------------------------------------------------
	 SCS Same-Spin Scale       =       0.3333333333333333 [-]
	 SCS Opposite-Spin Scale   =       1.2000000000000000 [-]
	 SCS Same-Spin Energy      =      -0.1269937195129346 [Eh]
	 SCS Opposite-Spin Energy  =      -1.3086484087589096 [Eh]
	 SCS Correlation Energy    =      -1.4356421282718443 [Eh]
	 SCS Total Energy          =    -681.3875124633005953 [Eh]
	-----------------------------------------------------------

  Dipole Moment: [D]
     X:    -5.0024      Y:     0.5390      Z:    -0.0927     Total:     5.0322

*** Psi4 exiting successfully. Buy a developer a beer!
