                               Psi4 1.3.2 release

  ==> Input File <==

--------------------------------------------------------------------------
#psi4
#
memory 32 gb

molecule  {
-2 1
  P        0.4529150    -0.0635710     0.0011530
  O       -1.0138150     0.8238990    -0.0131870
  O        1.4686650     1.0929890     0.0080030
  O        0.4082150    -0.8988910    -1.2961470
  O        0.3760258    -1.0026428     1.4683397
  C       -2.1972550     0.0409090    -0.0016870
  H       -2.2469050    -0.6260310    -0.8712670
  H       -3.0573250     0.7185790    -0.0251270
  H       -2.2582250    -0.5790110     0.9013030
units angstrom
no_reorient  #important for SAPT in psi4, default
symmetry c1  #important for SAPT in psi4, default
}

set PROPERTIES_ORIGIN ["COM"]
properties('MP2/aug-cc-pvtz', properties = ['dipole'])
--------------------------------------------------------------------------

    Molecular point group: c1
  Charge       = -2
  Multiplicity = 1
  Basis Set: AUG-CC-PVTZ
    Blend: AUG-CC-PVTZ
  Basis Set: (AUG-CC-PVTZ AUX)
    Blend: AUG-CC-PVTZ-JKFIT

    Orbital Energies [Eh]
    ---------------------

    Doubly Occupied:

       1A    -79.684208     2A    -20.219530     3A    -20.118071
       4A    -20.113025     5A    -20.110399     6A    -10.976978
       7A     -7.195718     8A     -5.095199     9A     -5.092910
      10A     -5.092222    11A     -1.021216    12A     -0.907556
      13A     -0.854642    14A     -0.796243    15A     -0.618499
      16A     -0.380028    17A     -0.314091    18A     -0.301911
      19A     -0.260184    20A     -0.183645    21A     -0.182620
      22A     -0.157312    23A     -0.116443    24A     -0.087135
      25A     -0.072530    26A     -0.056916    27A     -0.048289
      28A     -0.025266    29A     -0.011520

  @DF-RHF Final Energy:  -679.92057806585672

   => Energetics <=

    Nuclear Repulsion Energy =            325.2521183040937558
    One-Electron Energy =               -1610.1567813856815974
    Two-Electron Energy =                 604.9840850157311252
    Total Energy =                       -679.9205780658567164
  Basis Set: (AUG-CC-PVTZ AUX)
    Blend: AUG-CC-PVTZ-RI
    Molecular point group: c1

    Geometry (in Angstrom), charge = -2, multiplicity = 1:

       Center              X                  Y                   Z               Mass
    ------------   -----------------  -----------------  -----------------  -----------------
         P            0.454197619281    -0.047905841554    -0.023322195848    30.973761998420
         O           -1.012532380719     0.839564158446    -0.037662195848    15.994914619570
         O            1.469947619281     1.108654158446    -0.016472195848    15.994914619570
         O            0.409497619281    -0.883225841554    -1.320622195848    15.994914619570
         O            0.377308419281    -0.986977641554     1.443864504152    15.994914619570
         C           -2.195972380719     0.056574158446    -0.026162195848    12.000000000000
         H           -2.245622380719    -0.610365841554    -0.895742195848     1.007825032230
         H           -3.056042380719     0.734244158446    -0.049602195848     1.007825032230
         H           -2.256942380719    -0.563345841554     0.876827804152     1.007825032230

  Basis Set: AUG-CC-PVTZ
    Blend: AUG-CC-PVTZ
  Basis Set: (AUG-CC-PVTZ AUX)
    Blend: AUG-CC-PVTZ-JKFIT
	 Reference Energy          =    -679.9205780658567164 [Eh]
	 Singles Energy            =      -0.0000000000000000 [Eh]
	 Same-Spin Energy          =      -0.3838748177781964 [Eh]
	 Opposite-Spin Energy      =      -1.0986079246005365 [Eh]
	 Correlation Energy        =      -1.4824827423787328 [Eh]
	 Total Energy              =    -681.4030608082354092 [Eh]

	 ================> DF-SCS-MP2 Energies <==================
	-----------------------------------------------------------
	 SCS Same-Spin Scale       =       0.3333333333333333 [-]
	 SCS Opposite-Spin Scale   =       1.2000000000000000 [-]
	 SCS Same-Spin Energy      =      -0.1279582725927321 [Eh]
	 SCS Opposite-Spin Energy  =      -1.3183295095206438 [Eh]
	 SCS Correlation Energy    =      -1.4462877821133759 [Eh]
	 SCS Total Energy          =    -681.3668658479700753 [Eh]
	-----------------------------------------------------------

  Dipole Moment: [D]
     X:    -5.2313      Y:     1.3811      Z:    -1.2078     Total:     5.5437

*** Psi4 exiting successfully. Buy a developer a beer!
