                               Psi4 1.3.2 release

  ==> Input File <==

--------------------------------------------------------------------------
#psi4
#
memory 32 gb

molecule  {
-2 1
  P        0.4529150    -0.0635710     0.0011530
  O       -0.9981033     0.8493630    -0.0130942
  O        1.4483265     1.1105405     0.0077950
  O        0.4082150    -0.8988910    -1.2961470
  O        0.3848450    -0.8949310     1.3000530
  C       -2.1972550     0.0409090    -0.0016870
  H       -2.2469050    -0.6260310    -0.8712670
  H       -3.0573250     0.7185790    -0.0251270
  H       -2.2582250    -0.5790110     0.9013030
units angstrom
no_reorient  #important for SAPT in psi4, default
symmetry c1  #important for SAPT in psi4, default
}

set PROPERTIES_ORIGIN ["COM"]
properties('MP2/aug-cc-pvtz', properties = ['dipole'])
--------------------------------------------------------------------------

    Molecular point group: c1
  Charge       = -2
  Multiplicity = 1
  Basis Set: AUG-CC-PVTZ
    Blend: AUG-CC-PVTZ
  Basis Set: (AUG-CC-PVTZ AUX)
    Blend: AUG-CC-PVTZ-JKFIT

    Orbital Energies [Eh]
    ---------------------

    Doubly Occupied:

       1A    -79.654438     2A    -20.206720     3A    -20.101652
       4A    -20.101488     5A    -20.093560     6A    -10.972862
       7A     -7.169291     8A     -5.068812     9A     -5.066412
      10A     -5.066379    11A     -1.004537    12A     -0.905524
      13A     -0.841483    14A     -0.838470    15A     -0.613102
      16A     -0.363674    17A     -0.303572    18A     -0.289011
      19A     -0.251294    20A     -0.184558    21A     -0.178198
      22A     -0.157487    23A     -0.114278    24A     -0.076542
      25A     -0.075369    26A     -0.073648    27A     -0.035503
      28A     -0.035048    29A     -0.007098

  @DF-RHF Final Energy:  -679.95214669793609

   => Energetics <=

    Nuclear Repulsion Energy =            332.3752825078688033
    One-Electron Energy =               -1624.9548402322407128
    Two-Electron Energy =                 612.6274110264357660
    Total Energy =                       -679.9521466979360866
  Basis Set: (AUG-CC-PVTZ AUX)
    Blend: AUG-CC-PVTZ-RI
    Molecular point group: c1

    Geometry (in Angstrom), charge = -2, multiplicity = 1:

       Center              X                  Y                   Z               Mass
    ------------   -----------------  -----------------  -----------------  -----------------
         P            0.453587881393    -0.069827448649     0.001169984971    30.973761998420
         O           -0.997430418607     0.843106551351    -0.013077215029    15.994914619570
         O            1.448999381393     1.104284051351     0.007811984971    15.994914619570
         O            0.408887881393    -0.905147448649    -1.296130015029    15.994914619570
         O            0.385517881393    -0.901187448649     1.300069984971    15.994914619570
         C           -2.196582118607     0.034652551351    -0.001670015029    12.000000000000
         H           -2.246232118607    -0.632287448649    -0.871250015029     1.007825032230
         H           -3.056652118607     0.712322551351    -0.025110015029     1.007825032230
         H           -2.257552118607    -0.585267448649     0.901319984971     1.007825032230

  Basis Set: AUG-CC-PVTZ
    Blend: AUG-CC-PVTZ
  Basis Set: (AUG-CC-PVTZ AUX)
    Blend: AUG-CC-PVTZ-JKFIT
	 Reference Energy          =    -679.9521466979360866 [Eh]
	 Singles Energy            =      -0.0000000000000000 [Eh]
	 Same-Spin Energy          =      -0.3808589801091329 [Eh]
	 Opposite-Spin Energy      =      -1.0903511565354371 [Eh]
	 Correlation Energy        =      -1.4712101366445700 [Eh]
	 Total Energy              =    -681.4233568345806589 [Eh]

	 ================> DF-SCS-MP2 Energies <==================
	-----------------------------------------------------------
	 SCS Same-Spin Scale       =       0.3333333333333333 [-]
	 SCS Opposite-Spin Scale   =       1.2000000000000000 [-]
	 SCS Same-Spin Energy      =      -0.1269529933697109 [Eh]
	 SCS Opposite-Spin Energy  =      -1.3084213878425246 [Eh]
	 SCS Correlation Energy    =      -1.4353743812122355 [Eh]
	 SCS Total Energy          =    -681.3875210791483141 [Eh]
	-----------------------------------------------------------

  Dipole Moment: [D]
     X:    -5.2172      Y:     0.5482      Z:    -0.0092     Total:     5.2460

*** Psi4 exiting successfully. Buy a developer a beer!
