                               Psi4 1.3.2 release

  ==> Input File <==

--------------------------------------------------------------------------
#psi4
#
memory 32 gb

molecule  {
-2 1
  P        0.4529150    -0.0635710     0.0011530
  O       -1.0056737     0.8364309    -0.0391090
  O        1.4686650     1.0929890     0.0080030
  O        0.4082150    -0.8988910    -1.2961470
  O        0.4089526    -0.9054848     1.2942820
  C       -2.1972550     0.0409090    -0.0016870
  H       -2.2469050    -0.6260310    -0.8712670
  H       -3.0573250     0.7185790    -0.0251270
  H       -2.2582250    -0.5790110     0.9013030
units angstrom
no_reorient  #important for SAPT in psi4, default
symmetry c1  #important for SAPT in psi4, default
}

set PROPERTIES_ORIGIN ["COM"]
properties('MP2/aug-cc-pvtz', properties = ['dipole'])
--------------------------------------------------------------------------

    Molecular point group: c1
  Charge       = -2
  Multiplicity = 1
  Basis Set: AUG-CC-PVTZ
    Blend: AUG-CC-PVTZ
  Basis Set: (AUG-CC-PVTZ AUX)
    Blend: AUG-CC-PVTZ-JKFIT

    Orbital Energies [Eh]
    ---------------------

    Doubly Occupied:

       1A    -79.654601     2A    -20.208655     3A    -20.101889
       4A    -20.098762     5A    -20.093943     6A    -10.973857
       7A     -7.169427     8A     -5.068911     9A     -5.066579
      10A     -5.066504    11A     -1.009578    12A     -0.906796
      13A     -0.840287    14A     -0.837782    15A     -0.614060
      16A     -0.367174    17A     -0.306911    18A     -0.292588
      19A     -0.252530    20A     -0.183764    21A     -0.178658
      22A     -0.157311    23A     -0.115149    24A     -0.076844
      25A     -0.075311    26A     -0.072968    27A     -0.035739
      28A     -0.033751    29A     -0.005996

  @DF-RHF Final Energy:  -679.95350396082449

   => Energetics <=

    Nuclear Repulsion Energy =            332.3606532179781539
    One-Electron Energy =               -1624.8956685016030406
    Two-Electron Energy =                 612.5815113228004520
    Total Energy =                       -679.9535039608244915
  Basis Set: (AUG-CC-PVTZ AUX)
    Blend: AUG-CC-PVTZ-RI
    Molecular point group: c1

    Geometry (in Angstrom), charge = -2, multiplicity = 1:

       Center              X                  Y                   Z               Mass
    ------------   -----------------  -----------------  -----------------  -----------------
         P            0.448224721522    -0.063859015863     0.005762624291    30.973761998420
         O           -1.010363978478     0.836142884137    -0.034499375709    15.994914619570
         O            1.463974721522     1.092700984137     0.012612624291    15.994914619570
         O            0.403524721522    -0.899179015863    -1.291537375709    15.994914619570
         O            0.404262321522    -0.905772815863     1.298891624291    15.994914619570
         C           -2.201945278478     0.040620984137     0.002922624291    12.000000000000
         H           -2.251595278478    -0.626319015863    -0.866657375709     1.007825032230
         H           -3.062015278478     0.718290984137    -0.020517375709     1.007825032230
         H           -2.262915278478    -0.579299015863     0.905912624291     1.007825032230

  Basis Set: AUG-CC-PVTZ
    Blend: AUG-CC-PVTZ
  Basis Set: (AUG-CC-PVTZ AUX)
    Blend: AUG-CC-PVTZ-JKFIT
	 Reference Energy          =    -679.9535039608244915 [Eh]
	 Singles Energy            =      -0.0000000000000000 [Eh]
	 Same-Spin Energy          =      -0.3806526668008040 [Eh]
	 Opposite-Spin Energy      =      -1.0897603533760152 [Eh]
	 Correlation Energy        =      -1.4704130201768191 [Eh]
	 Total Energy              =    -681.4239169810012982 [Eh]

	 ================> DF-SCS-MP2 Energies <==================
	-----------------------------------------------------------
	 SCS Same-Spin Scale       =       0.3333333333333333 [-]
	 SCS Opposite-Spin Scale   =       1.2000000000000000 [-]
	 SCS Same-Spin Energy      =      -0.1268842222669347 [Eh]
	 SCS Opposite-Spin Energy  =      -1.3077124240512181 [Eh]
	 SCS Correlation Energy    =      -1.4345966463181528 [Eh]
	 SCS Total Energy          =    -681.3881006071426327 [Eh]
	-----------------------------------------------------------

  Dipole Moment: [D]
     X:    -5.3017      Y:     0.6365      Z:     0.0409     Total:     5.3399

*** Psi4 exiting successfully. Buy a developer a beer!
