                               Psi4 1.3.2 release

  ==> Input File <==

--------------------------------------------------------------------------
#psi4
#
memory 32 gb

molecule  {
-2 1
  P        0.4529150    -0.0635710     0.0011530
  O       -1.0103910     0.8184704    -0.0237776
  O        1.4686650     1.0929890     0.0080030
  O        0.4082150    -0.8988910    -1.2961470
  O        0.3848450    -0.8949310     1.3000530
  C       -2.1972550     0.0409090    -0.0016870
  H       -2.2384923    -0.6226223    -0.8743090
  H       -3.0573250     0.7185790    -0.0251270
  H       -2.2582250    -0.5790110     0.9013030
units angstrom
no_reorient  #important for SAPT in psi4, default
symmetry c1  #important for SAPT in psi4, default
}

set PROPERTIES_ORIGIN ["COM"]
properties('MP2/aug-cc-pvtz', properties = ['dipole'])
--------------------------------------------------------------------------

    Molecular point group: c1
  Charge       = -2
  Multiplicity = 1
  Basis Set: AUG-CC-PVTZ
    Blend: AUG-CC-PVTZ
  Basis Set: (AUG-CC-PVTZ AUX)
    Blend: AUG-CC-PVTZ-JKFIT

    Orbital Energies [Eh]
    ---------------------

    Doubly Occupied:

       1A    -79.654591     2A    -20.205756     3A    -20.100588
       4A    -20.099587     5A    -20.095370     6A    -10.971967
       7A     -7.169428     8A     -5.068948     9A     -5.066586
      10A     -5.066503    11A     -1.013322    12A     -0.907240
      13A     -0.840446    14A     -0.838658    15A     -0.612372
      16A     -0.368562    17A     -0.308208    18A     -0.295414
      19A     -0.252903    20A     -0.183698    21A     -0.178064
      22A     -0.156014    23A     -0.113380    24A     -0.077080
      25A     -0.074830    26A     -0.073708    27A     -0.036321
      28A     -0.034010    29A     -0.006555

  @DF-RHF Final Energy:  -679.95512381244441

   => Energetics <=

    Nuclear Repulsion Energy =            332.8944688670644609
    One-Electron Energy =               -1625.9589681618410850
    Two-Electron Energy =                 613.1093754823322115
    Total Energy =                       -679.9551238124444126
  Basis Set: (AUG-CC-PVTZ AUX)
    Blend: AUG-CC-PVTZ-RI
    Molecular point group: c1

    Geometry (in Angstrom), charge = -2, multiplicity = 1:

       Center              X                  Y                   Z               Mass
    ------------   -----------------  -----------------  -----------------  -----------------
         P            0.452339888461    -0.062813031065     0.002721392032    30.973761998420
         O           -1.010966111539     0.819228368935    -0.022209207968    15.994914619570
         O            1.468089888461     1.093746968935     0.009571392032    15.994914619570
         O            0.407639888461    -0.898133031065    -1.294578607968    15.994914619570
         O            0.384269888461    -0.894173031065     1.301621392032    15.994914619570
         C           -2.197830111539     0.041666968935    -0.000118607968    12.000000000000
         H           -2.239067411539    -0.621864331065    -0.872740607968     1.007825032230
         H           -3.057900111539     0.719336968935    -0.023558607968     1.007825032230
         H           -2.258800111539    -0.578253031065     0.902871392032     1.007825032230

  Basis Set: AUG-CC-PVTZ
    Blend: AUG-CC-PVTZ
  Basis Set: (AUG-CC-PVTZ AUX)
    Blend: AUG-CC-PVTZ-JKFIT
	 Reference Energy          =    -679.9551238124444126 [Eh]
	 Singles Energy            =      -0.0000000000000000 [Eh]
	 Same-Spin Energy          =      -0.3805085348544435 [Eh]
	 Opposite-Spin Energy      =      -1.0891475395283678 [Eh]
	 Correlation Energy        =      -1.4696560743828113 [Eh]
	 Total Energy              =    -681.4247798868271957 [Eh]

	 ================> DF-SCS-MP2 Energies <==================
	-----------------------------------------------------------
	 SCS Same-Spin Scale       =       0.3333333333333333 [-]
	 SCS Opposite-Spin Scale   =       1.2000000000000000 [-]
	 SCS Same-Spin Energy      =      -0.1268361782848145 [Eh]
	 SCS Opposite-Spin Energy  =      -1.3069770474340414 [Eh]
	 SCS Correlation Energy    =      -1.4338132257188558 [Eh]
	 SCS Total Energy          =    -681.3889370381632489 [Eh]
	-----------------------------------------------------------

  Dipole Moment: [D]
     X:    -5.2245      Y:     0.6611      Z:     0.0043     Total:     5.2661

*** Psi4 exiting successfully. Buy a developer a beer!
