                               Psi4 1.3.2 release

  ==> Input File <==

--------------------------------------------------------------------------
#psi4
#
memory 32 gb

molecule  {
-2 1
  P        0.4529150    -0.0635710     0.0011530
  O       -1.0138150     0.8238990    -0.0131870
  O        1.4686650     1.0929890     0.0080030
  O        0.4082150    -0.8988910    -1.2961470
  O        0.3804354    -0.9487869     1.3841963
  C       -2.1972550     0.0409090    -0.0016870
  H       -2.2469050    -0.6260310    -0.8712670
  H       -3.0573250     0.7185790    -0.0251270
  H       -2.2582250    -0.5790110     0.9013030
units angstrom
no_reorient  #important for SAPT in psi4, default
symmetry c1  #important for SAPT in psi4, default
}

set PROPERTIES_ORIGIN ["COM"]
properties('MP2/aug-cc-pvtz', properties = ['dipole'])
--------------------------------------------------------------------------

    Molecular point group: c1
  Charge       = -2
  Multiplicity = 1
  Basis Set: AUG-CC-PVTZ
    Blend: AUG-CC-PVTZ
  Basis Set: (AUG-CC-PVTZ AUX)
    Blend: AUG-CC-PVTZ-JKFIT

    Orbital Energies [Eh]
    ---------------------

    Doubly Occupied:

       1A    -79.671571     2A    -20.213041     3A    -20.109664
       4A    -20.105685     5A    -20.104695     6A    -10.974331
       7A     -7.184105     8A     -5.083701     9A     -5.081375
      10A     -5.080809    11A     -1.016506    12A     -0.904509
      13A     -0.847311    14A     -0.818813    15A     -0.615239
      16A     -0.374232    17A     -0.310699    18A     -0.298142
      19A     -0.256337    20A     -0.182867    21A     -0.179575
      22A     -0.155910    23A     -0.114566    24A     -0.081741
      25A     -0.072933    26A     -0.066689    27A     -0.042488
      28A     -0.030544    29A     -0.010041

  @DF-RHF Final Energy:  -679.94176242078493

   => Energetics <=

    Nuclear Repulsion Energy =            328.7973314899202251
    One-Electron Energy =               -1617.5019461621109258
    Two-Electron Energy =                 608.7628522514057750
    Total Energy =                       -679.9417624207849258
  Basis Set: (AUG-CC-PVTZ AUX)
    Blend: AUG-CC-PVTZ-RI
    Molecular point group: c1

    Geometry (in Angstrom), charge = -2, multiplicity = 1:

       Center              X                  Y                   Z               Mass
    ------------   -----------------  -----------------  -----------------  -----------------
         P            0.453556292072    -0.055738582401    -0.011084475445    30.973761998420
         O           -1.013173707928     0.831731417599    -0.025424475445    15.994914619570
         O            1.469306292072     1.100821417599    -0.004234475445    15.994914619570
         O            0.408856292072    -0.891058582401    -1.308384475445    15.994914619570
         O            0.381076692072    -0.940954482401     1.371958824555    15.994914619570
         C           -2.196613707928     0.048741417599    -0.013924475445    12.000000000000
         H           -2.246263707928    -0.618198582401    -0.883504475445     1.007825032230
         H           -3.056683707928     0.726411417599    -0.037364475445     1.007825032230
         H           -2.257583707928    -0.571178582401     0.889065524555     1.007825032230

  Basis Set: AUG-CC-PVTZ
    Blend: AUG-CC-PVTZ
  Basis Set: (AUG-CC-PVTZ AUX)
    Blend: AUG-CC-PVTZ-JKFIT
	 Reference Energy          =    -679.9417624207849258 [Eh]
	 Singles Energy            =      -0.0000000000000000 [Eh]
	 Same-Spin Energy          =      -0.3822892033280613 [Eh]
	 Opposite-Spin Energy      =      -1.0940096669072095 [Eh]
	 Correlation Energy        =      -1.4762988702352708 [Eh]
	 Total Energy              =    -681.4180612910201944 [Eh]

	 ================> DF-SCS-MP2 Energies <==================
	-----------------------------------------------------------
	 SCS Same-Spin Scale       =       0.3333333333333333 [-]
	 SCS Opposite-Spin Scale   =       1.2000000000000000 [-]
	 SCS Same-Spin Energy      =      -0.1274297344426871 [Eh]
	 SCS Opposite-Spin Energy  =      -1.3128116002886514 [Eh]
	 SCS Correlation Energy    =      -1.4402413347313385 [Eh]
	 SCS Total Energy          =    -681.3820037555162799 [Eh]
	-----------------------------------------------------------

  Dipole Moment: [D]
     X:    -5.2137      Y:     1.0115      Z:    -0.6087     Total:     5.3457

*** Psi4 exiting successfully. Buy a developer a beer!
