                               Psi4 1.3.2 release

  ==> Input File <==

--------------------------------------------------------------------------
#psi4
#
memory 32 gb

molecule  {
-2 1
  P        0.4529150    -0.0635710     0.0011530
  O       -1.0138150     0.8238990    -0.0131870
  O        1.4686650     1.0929890     0.0080030
  O        0.4082150    -0.8988910    -1.2961470
  O        0.3936642    -0.7872192     1.1317663
  C       -2.1972550     0.0409090    -0.0016870
  H       -2.2469050    -0.6260310    -0.8712670
  H       -3.0573250     0.7185790    -0.0251270
  H       -2.2582250    -0.5790110     0.9013030
units angstrom
no_reorient  #important for SAPT in psi4, default
symmetry c1  #important for SAPT in psi4, default
}

set PROPERTIES_ORIGIN ["COM"]
properties('MP2/aug-cc-pvtz', properties = ['dipole'])
--------------------------------------------------------------------------

    Molecular point group: c1
  Charge       = -2
  Multiplicity = 1
  Basis Set: AUG-CC-PVTZ
    Blend: AUG-CC-PVTZ
  Basis Set: (AUG-CC-PVTZ AUX)
    Blend: AUG-CC-PVTZ-JKFIT

    Orbital Energies [Eh]
    ---------------------

    Doubly Occupied:

       1A    -79.609531     2A    -20.191151     3A    -20.087405
       4A    -20.081293     5A    -20.076672     6A    -10.966669
       7A     -7.135734     8A     -5.035514     9A     -5.033265
      10A     -5.031044    11A     -1.016261    12A     -0.951526
      13A     -0.850804    14A     -0.822935    15A     -0.605521
      16A     -0.357187    17A     -0.301626    18A     -0.287553
      19A     -0.251835    20A     -0.192928    21A     -0.186830
      22A     -0.166968    23A     -0.111393    24A     -0.090424
      25A     -0.079973    26A     -0.064501    27A     -0.035002
      28A     -0.021755    29A      0.004055

  @DF-RHF Final Energy:  -679.92046261912208

   => Energetics <=

    Nuclear Repulsion Energy =            341.7304585300640838
    One-Electron Energy =               -1644.0233496581445252
    Two-Electron Energy =                 622.3724285089584782
    Total Energy =                       -679.9204626191220768
  Basis Set: (AUG-CC-PVTZ AUX)
    Blend: AUG-CC-PVTZ-RI
    Molecular point group: c1

    Geometry (in Angstrom), charge = -2, multiplicity = 1:

       Center              X                  Y                   Z               Mass
    ------------   -----------------  -----------------  -----------------  -----------------
         P            0.451632310444    -0.079236804944     0.025628656676    30.973761998420
         O           -1.015097689556     0.808233195056     0.011288656676    15.994914619570
         O            1.467382310444     1.077323195056     0.032478656676    15.994914619570
         O            0.406932310444    -0.914556804944    -1.271671343324    15.994914619570
         O            0.392381510444    -0.802885004944     1.156241956676    15.994914619570
         C           -2.198537689556     0.025243195056     0.022788656676    12.000000000000
         H           -2.248187689556    -0.641696804944    -0.846791343324     1.007825032230
         H           -3.058607689556     0.702913195056    -0.000651343324     1.007825032230
         H           -2.259507689556    -0.594676804944     0.925778656676     1.007825032230

  Basis Set: AUG-CC-PVTZ
    Blend: AUG-CC-PVTZ
  Basis Set: (AUG-CC-PVTZ AUX)
    Blend: AUG-CC-PVTZ-JKFIT
	 Reference Energy          =    -679.9204626191220768 [Eh]
	 Singles Energy            =      -0.0000000000000000 [Eh]
	 Same-Spin Energy          =      -0.3771292945707775 [Eh]
	 Opposite-Spin Energy      =      -1.0804356418124625 [Eh]
	 Correlation Energy        =      -1.4575649363832399 [Eh]
	 Total Energy              =    -681.3780275555053549 [Eh]

	 ================> DF-SCS-MP2 Energies <==================
	-----------------------------------------------------------
	 SCS Same-Spin Scale       =       0.3333333333333333 [-]
	 SCS Opposite-Spin Scale   =       1.2000000000000000 [-]
	 SCS Same-Spin Energy      =      -0.1257097648569258 [Eh]
	 SCS Opposite-Spin Energy  =      -1.2965227701749551 [Eh]
	 SCS Correlation Energy    =      -1.4222325350318810 [Eh]
	 SCS Total Energy          =    -681.3426951541539438 [Eh]
	-----------------------------------------------------------

  Dipole Moment: [D]
     X:    -5.1632      Y:    -0.0696      Z:     1.1607     Total:     5.2925

*** Psi4 exiting successfully. Buy a developer a beer!
