                               Psi4 1.3.2 release

  ==> Input File <==

--------------------------------------------------------------------------
#psi4
#
memory 32 gb

molecule  {
-2 1
  P        0.4529150    -0.0635710     0.0011530
  O       -1.0138150     0.8238990    -0.0131870
  O        1.5346530     1.1681247     0.0084480
  O        0.4082150    -0.8988910    -1.2961470
  O        0.3848450    -0.8949310     1.3000530
  C       -2.1972550     0.0409090    -0.0016870
  H       -2.2469050    -0.6260310    -0.8712670
  H       -3.0573250     0.7185790    -0.0251270
  H       -2.2582250    -0.5790110     0.9013030
units angstrom
no_reorient  #important for SAPT in psi4, default
symmetry c1  #important for SAPT in psi4, default
}

set PROPERTIES_ORIGIN ["COM"]
properties('MP2/aug-cc-pvtz', properties = ['dipole'])
--------------------------------------------------------------------------

    Molecular point group: c1
  Charge       = -2
  Multiplicity = 1
  Basis Set: AUG-CC-PVTZ
    Blend: AUG-CC-PVTZ
  Basis Set: (AUG-CC-PVTZ AUX)
    Blend: AUG-CC-PVTZ-JKFIT

    Orbital Energies [Eh]
    ---------------------

    Doubly Occupied:

       1A    -79.672016     2A    -20.212673     3A    -20.109659
       4A    -20.109505     5A    -20.100973     6A    -10.976577
       7A     -7.184475     8A     -5.084081     9A     -5.081697
      10A     -5.081234    11A     -1.016807    12A     -0.905497
      13A     -0.848740    14A     -0.816040    15A     -0.616916
      16A     -0.374827    17A     -0.312361    18A     -0.299700
      19A     -0.256618    20A     -0.185046    21A     -0.178334
      22A     -0.156192    23A     -0.117982    24A     -0.080685
      25A     -0.071998    26A     -0.068787    27A     -0.040679
      28A     -0.029214    29A     -0.009095

  @DF-RHF Final Energy:  -679.94131555975173

   => Energetics <=

    Nuclear Repulsion Energy =            328.7498562754690852
    One-Electron Energy =               -1617.3855293095712113
    Two-Electron Energy =                 608.6943574743504541
    Total Energy =                       -679.9413155597517289
  Basis Set: (AUG-CC-PVTZ AUX)
    Blend: AUG-CC-PVTZ-RI
    Molecular point group: c1

    Geometry (in Angstrom), charge = -2, multiplicity = 1:

       Center              X                  Y                   Z               Mass
    ------------   -----------------  -----------------  -----------------  -----------------
         P            0.443317745188    -0.074498974008     0.001088510120    30.973761998420
         O           -1.023412254812     0.812971025992    -0.013251489880    15.994914619570
         O            1.525055745188     1.157196725992     0.008383510120    15.994914619570
         O            0.398617745188    -0.909818974008    -1.296211489880    15.994914619570
         O            0.375247745188    -0.905858974008     1.299988510120    15.994914619570
         C           -2.206852254812     0.029981025992    -0.001751489880    12.000000000000
         H           -2.256502254812    -0.636958974008    -0.871331489880     1.007825032230
         H           -3.066922254812     0.707651025992    -0.025191489880     1.007825032230
         H           -2.267822254812    -0.589938974008     0.901238510120     1.007825032230

  Basis Set: AUG-CC-PVTZ
    Blend: AUG-CC-PVTZ
  Basis Set: (AUG-CC-PVTZ AUX)
    Blend: AUG-CC-PVTZ-JKFIT
	 Reference Energy          =    -679.9413155597517289 [Eh]
	 Singles Energy            =      -0.0000000000000000 [Eh]
	 Same-Spin Energy          =      -0.3821631125442417 [Eh]
	 Opposite-Spin Energy      =      -1.0937719332179587 [Eh]
	 Correlation Energy        =      -1.4759350457622005 [Eh]
	 Total Energy              =    -681.4172506055139138 [Eh]

	 ================> DF-SCS-MP2 Energies <==================
	-----------------------------------------------------------
	 SCS Same-Spin Scale       =       0.3333333333333333 [-]
	 SCS Opposite-Spin Scale   =       1.2000000000000000 [-]
	 SCS Same-Spin Energy      =      -0.1273877041814139 [Eh]
	 SCS Opposite-Spin Energy  =      -1.3125263198615504 [Eh]
	 SCS Correlation Energy    =      -1.4399140240429644 [Eh]
	 SCS Total Energy          =    -681.3812295837947204 [Eh]
	-----------------------------------------------------------

  Dipole Moment: [D]
     X:    -5.7284      Y:     0.1014      Z:    -0.0134     Total:     5.7293

*** Psi4 exiting successfully. Buy a developer a beer!
