                               Psi4 1.3.2 release

  ==> Input File <==

--------------------------------------------------------------------------
#psi4
#
memory 32 gb

molecule  {
-2 1
  P        0.4529150    -0.0635710     0.0011530
  O       -1.0138150     0.8238990    -0.0131870
  O        1.4026770     1.0178533     0.0075580
  O        0.4082150    -0.8988910    -1.2961470
  O        0.3848450    -0.8949310     1.3000530
  C       -2.1972550     0.0409090    -0.0016870
  H       -2.2469050    -0.6260310    -0.8712670
  H       -3.0573250     0.7185790    -0.0251270
  H       -2.2582250    -0.5790110     0.9013030
units angstrom
no_reorient  #important for SAPT in psi4, default
symmetry c1  #important for SAPT in psi4, default
}

set PROPERTIES_ORIGIN ["COM"]
properties('MP2/aug-cc-pvtz', properties = ['dipole'])
--------------------------------------------------------------------------

    Molecular point group: c1
  Charge       = -2
  Multiplicity = 1
  Basis Set: AUG-CC-PVTZ
    Blend: AUG-CC-PVTZ
  Basis Set: (AUG-CC-PVTZ AUX)
    Blend: AUG-CC-PVTZ-JKFIT

    Orbital Energies [Eh]
    ---------------------

    Doubly Occupied:

       1A    -79.634026     2A    -20.198936     3A    -20.091272
       4A    -20.091106     5A    -20.089458     6A    -10.966536
       7A     -7.153141     8A     -5.052283     9A     -5.050961
      10A     -5.049640    11A     -1.009808    12A     -0.923836
      13A     -0.851777    14A     -0.832569    15A     -0.606741
      16A     -0.361584    17A     -0.302144    18A     -0.288907
      19A     -0.251779    20A     -0.186205    21A     -0.180248
      22A     -0.156061    23A     -0.109702    24A     -0.086171
      25A     -0.077152    26A     -0.070025    27A     -0.041202
      28A     -0.028026    29A     -0.002703

  @DF-RHF Final Energy:  -679.95249553640883

   => Energetics <=

    Nuclear Repulsion Energy =            337.0282941858052368
    One-Electron Energy =               -1634.4735797076236850
    Two-Electron Energy =                 617.4927899854096722
    Total Energy =                       -679.9524955364088328
  Basis Set: (AUG-CC-PVTZ AUX)
    Blend: AUG-CC-PVTZ-RI
    Molecular point group: c1

    Geometry (in Angstrom), charge = -2, multiplicity = 1:

       Center              X                  Y                   Z               Mass
    ------------   -----------------  -----------------  -----------------  -----------------
         P            0.462512184537    -0.052643672490     0.001217950708    30.973761998420
         O           -1.004217815463     0.834826327510    -0.013122049292    15.994914619570
         O            1.412274184537     1.028780627510     0.007622950708    15.994914619570
         O            0.417812184537    -0.887963672490    -1.296082049292    15.994914619570
         O            0.394442184537    -0.884003672490     1.300117950708    15.994914619570
         C           -2.187657815463     0.051836327510    -0.001622049292    12.000000000000
         H           -2.237307815463    -0.615103672490    -0.871202049292     1.007825032230
         H           -3.047727815463     0.729506327510    -0.025062049292     1.007825032230
         H           -2.248627815463    -0.568083672490     0.901367950708     1.007825032230

  Basis Set: AUG-CC-PVTZ
    Blend: AUG-CC-PVTZ
  Basis Set: (AUG-CC-PVTZ AUX)
    Blend: AUG-CC-PVTZ-JKFIT
	 Reference Energy          =    -679.9524955364088328 [Eh]
	 Singles Energy            =      -0.0000000000000000 [Eh]
	 Same-Spin Energy          =      -0.3789225263772961 [Eh]
	 Opposite-Spin Energy      =      -1.0849431155392537 [Eh]
	 Correlation Energy        =      -1.4638656419165499 [Eh]
	 Total Energy              =    -681.4163611783253600 [Eh]

	 ================> DF-SCS-MP2 Energies <==================
	-----------------------------------------------------------
	 SCS Same-Spin Scale       =       0.3333333333333333 [-]
	 SCS Opposite-Spin Scale   =       1.2000000000000000 [-]
	 SCS Same-Spin Energy      =      -0.1263075087924320 [Eh]
	 SCS Opposite-Spin Energy  =      -1.3019317386471043 [Eh]
	 SCS Correlation Energy    =      -1.4282392474395365 [Eh]
	 SCS Total Energy          =    -681.3807347838484247 [Eh]
	-----------------------------------------------------------

  Dipole Moment: [D]
     X:    -4.6645      Y:     1.1827      Z:    -0.0066     Total:     4.8121

*** Psi4 exiting successfully. Buy a developer a beer!
