                               Psi4 1.3.2 release

  ==> Input File <==

--------------------------------------------------------------------------
#psi4
#
memory 32 gb

molecule  {
-2 1
  P        0.4529150    -0.0635710     0.0011530
  O       -1.0290799     0.7981647    -0.0132754
  O        1.4886940     1.0750852     0.0082089
  O        0.4082150    -0.8988910    -1.2961470
  O        0.3848450    -0.8949310     1.3000530
  C       -2.1972550     0.0409090    -0.0016870
  H       -2.2469050    -0.6260310    -0.8712670
  H       -3.0573250     0.7185790    -0.0251270
  H       -2.2582250    -0.5790110     0.9013030
units angstrom
no_reorient  #important for SAPT in psi4, default
symmetry c1  #important for SAPT in psi4, default
}

set PROPERTIES_ORIGIN ["COM"]
properties('MP2/aug-cc-pvtz', properties = ['dipole'])
--------------------------------------------------------------------------

    Molecular point group: c1
  Charge       = -2
  Multiplicity = 1
  Basis Set: AUG-CC-PVTZ
    Blend: AUG-CC-PVTZ
  Basis Set: (AUG-CC-PVTZ AUX)
    Blend: AUG-CC-PVTZ-JKFIT

    Orbital Energies [Eh]
    ---------------------

    Doubly Occupied:

       1A    -79.656078     2A    -20.205222     3A    -20.099789
       4A    -20.099635     5A    -20.097820     6A    -10.970296
       7A     -7.170789     8A     -5.070294     9A     -5.067963
      10A     -5.067841    11A     -1.020847    12A     -0.909736
      13A     -0.840228    14A     -0.839518    15A     -0.610637
      16A     -0.373034    17A     -0.311402    18A     -0.300250
      19A     -0.254784    20A     -0.182845    21A     -0.177681
      22A     -0.155484    23A     -0.112140    24A     -0.078419
      25A     -0.074482    26A     -0.074371    27A     -0.037562
      28A     -0.034090    29A     -0.006803

  @DF-RHF Final Energy:  -679.95645584894544

   => Energetics <=

    Nuclear Repulsion Energy =            333.0120043241078633
    One-Electron Energy =               -1626.1368382602890961
    Two-Electron Energy =                 613.1683780872357374
    Total Energy =                       -679.9564558489454384
  Basis Set: (AUG-CC-PVTZ AUX)
    Blend: AUG-CC-PVTZ-RI
    Molecular point group: c1

    Geometry (in Angstrom), charge = -2, multiplicity = 1:

       Center              X                  Y                   Z               Mass
    ------------   -----------------  -----------------  -----------------  -----------------
         P            0.452222079577    -0.057224647613     0.001136141348    30.973761998420
         O           -1.029772820423     0.804511052387    -0.013292258652    15.994914619570
         O            1.488001079577     1.081431552387     0.008192041348    15.994914619570
         O            0.407522079577    -0.892544647613    -1.296163858652    15.994914619570
         O            0.384152079577    -0.888584647613     1.300036141348    15.994914619570
         C           -2.197947920423     0.047255352387    -0.001703858652    12.000000000000
         H           -2.247597920423    -0.619684647613    -0.871283858652     1.007825032230
         H           -3.058017920423     0.724925352387    -0.025143858652     1.007825032230
         H           -2.258917920423    -0.572664647613     0.901286141348     1.007825032230

  Basis Set: AUG-CC-PVTZ
    Blend: AUG-CC-PVTZ
  Basis Set: (AUG-CC-PVTZ AUX)
    Blend: AUG-CC-PVTZ-JKFIT
	 Reference Energy          =    -679.9564558489454384 [Eh]
	 Singles Energy            =      -0.0000000000000000 [Eh]
	 Same-Spin Energy          =      -0.3803221167121279 [Eh]
	 Opposite-Spin Energy      =      -1.0884088025881731 [Eh]
	 Correlation Energy        =      -1.4687309193003011 [Eh]
	 Total Energy              =    -681.4251867682457942 [Eh]

	 ================> DF-SCS-MP2 Energies <==================
	-----------------------------------------------------------
	 SCS Same-Spin Scale       =       0.3333333333333333 [-]
	 SCS Opposite-Spin Scale   =       1.2000000000000000 [-]
	 SCS Same-Spin Energy      =      -0.1267740389040426 [Eh]
	 SCS Opposite-Spin Energy  =      -1.3060905631058077 [Eh]
	 SCS Correlation Energy    =      -1.4328646020098503 [Eh]
	 SCS Total Energy          =    -681.3893204509553243 [Eh]
	-----------------------------------------------------------

  Dipole Moment: [D]
     X:    -5.1587      Y:     0.7431      Z:    -0.0108     Total:     5.2119

*** Psi4 exiting successfully. Buy a developer a beer!
