                               Psi4 1.3.2 release

  ==> Input File <==

--------------------------------------------------------------------------
#psi4
#
memory 32 gb

molecule  {
-2 1
  P        0.4529150    -0.0635710     0.0011530
  O       -1.0355488     0.7846971     0.0645737
  O        1.4686650     1.0929890     0.0080030
  O        0.4082150    -0.8988910    -1.2961470
  O        0.3126758    -0.8617635     1.3149855
  C       -2.1972550     0.0409090    -0.0016870
  H       -2.2469050    -0.6260310    -0.8712670
  H       -3.0573250     0.7185790    -0.0251270
  H       -2.2582250    -0.5790110     0.9013030
units angstrom
no_reorient  #important for SAPT in psi4, default
symmetry c1  #important for SAPT in psi4, default
}

set PROPERTIES_ORIGIN ["COM"]
properties('MP2/aug-cc-pvtz', properties = ['dipole'])
--------------------------------------------------------------------------

    Molecular point group: c1
  Charge       = -2
  Multiplicity = 1
  Basis Set: AUG-CC-PVTZ
    Blend: AUG-CC-PVTZ
  Basis Set: (AUG-CC-PVTZ AUX)
    Blend: AUG-CC-PVTZ-JKFIT

    Orbital Energies [Eh]
    ---------------------

    Doubly Occupied:

       1A    -79.657076     2A    -20.197548     3A    -20.105857
       4A    -20.100838     5A    -20.096760     6A    -10.965113
       7A     -7.171758     8A     -5.071357     9A     -5.068945
      10A     -5.068738    11A     -1.020077    12A     -0.910310
      13A     -0.843859    14A     -0.840783    15A     -0.605411
      16A     -0.370942    17A     -0.309413    18A     -0.297749
      19A     -0.255409    20A     -0.183222    21A     -0.177057
      22A     -0.153428    23A     -0.108082    24A     -0.079978
      25A     -0.076069    26A     -0.073105    27A     -0.040893
      28A     -0.033359    29A     -0.009513

  @DF-RHF Final Energy:  -679.95421860022054

   => Energetics <=

    Nuclear Repulsion Energy =            333.6872464064273913
    One-Electron Energy =               -1627.4976336971833462
    Two-Electron Energy =                 613.8561686905353554
    Total Energy =                       -679.9542186002205426
  Basis Set: (AUG-CC-PVTZ AUX)
    Blend: AUG-CC-PVTZ-RI
    Molecular point group: c1

    Geometry (in Angstrom), charge = -2, multiplicity = 1:

       Center              X                  Y                   Z               Mass
    ------------   -----------------  -----------------  -----------------  -----------------
         P            0.466572110390    -0.062693686976    -0.012327963177    30.973761998420
         O           -1.021891689610     0.785574413024     0.051092736823    15.994914619570
         O            1.482322110390     1.093866313024    -0.005477963177    15.994914619570
         O            0.421872110390    -0.898013686976    -1.309627963177    15.994914619570
         O            0.326332910390    -0.860886186976     1.301504536823    15.994914619570
         C           -2.183597889610     0.041786313024    -0.015167963177    12.000000000000
         H           -2.233247889610    -0.625153686976    -0.884747963177     1.007825032230
         H           -3.043667889610     0.719456313024    -0.038607963177     1.007825032230
         H           -2.244567889610    -0.578133686976     0.887822036823     1.007825032230

  Basis Set: AUG-CC-PVTZ
    Blend: AUG-CC-PVTZ
  Basis Set: (AUG-CC-PVTZ AUX)
    Blend: AUG-CC-PVTZ-JKFIT
	 Reference Energy          =    -679.9542186002205426 [Eh]
	 Singles Energy            =      -0.0000000000000000 [Eh]
	 Same-Spin Energy          =      -0.3805467746298593 [Eh]
	 Opposite-Spin Energy      =      -1.0885389133846506 [Eh]
	 Correlation Energy        =      -1.4690856880145098 [Eh]
	 Total Energy              =    -681.4233042882350446 [Eh]

	 ================> DF-SCS-MP2 Energies <==================
	-----------------------------------------------------------
	 SCS Same-Spin Scale       =       0.3333333333333333 [-]
	 SCS Opposite-Spin Scale   =       1.2000000000000000 [-]
	 SCS Same-Spin Energy      =      -0.1268489248766198 [Eh]
	 SCS Opposite-Spin Energy  =      -1.3062466960615806 [Eh]
	 SCS Correlation Energy    =      -1.4330956209382004 [Eh]
	 SCS Total Energy          =    -681.3873142211587037 [Eh]
	-----------------------------------------------------------

  Dipole Moment: [D]
     X:    -4.8585      Y:     0.6692      Z:    -0.1647     Total:     4.9072

*** Psi4 exiting successfully. Buy a developer a beer!
