                               Psi4 1.3.2 release

  ==> Input File <==

--------------------------------------------------------------------------
#psi4
#
memory 32 gb

molecule  {
-2 1
  P        0.4210452    -0.1142127     0.0019176
  O       -1.0138150     0.8238990    -0.0131870
  O        1.4686650     1.0929890     0.0080030
  O        0.4082150    -0.8988910    -1.2961470
  O        0.3848450    -0.8949310     1.3000530
  C       -2.1692052     0.0000896    -0.0010458
  H       -2.2469050    -0.6260310    -0.8712670
  H       -3.0573250     0.7185790    -0.0251270
  H       -2.2582250    -0.5790110     0.9013030
units angstrom
no_reorient  #important for SAPT in psi4, default
symmetry c1  #important for SAPT in psi4, default
}

set PROPERTIES_ORIGIN ["COM"]
properties('MP2/aug-cc-pvtz', properties = ['dipole'])
--------------------------------------------------------------------------

    Molecular point group: c1
  Charge       = -2
  Multiplicity = 1
  Basis Set: AUG-CC-PVTZ
    Blend: AUG-CC-PVTZ
  Basis Set: (AUG-CC-PVTZ AUX)
    Blend: AUG-CC-PVTZ-JKFIT

    Orbital Energies [Eh]
    ---------------------

    Doubly Occupied:

       1A    -79.655129     2A    -20.209815     3A    -20.107326
       4A    -20.106840     5A    -20.084044     6A    -10.974230
       7A     -7.170450     8A     -5.069874     9A     -5.067760
      10A     -5.067324    11A     -1.017015    12A     -0.914813
      13A     -0.858308    14A     -0.815699    15A     -0.612855
      16A     -0.371300    17A     -0.320803    18A     -0.282191
      19A     -0.257898    20A     -0.190085    21A     -0.173620
      22A     -0.159552    23A     -0.121859    24A     -0.084097
      25A     -0.076645    26A     -0.068176    27A     -0.044272
      28A     -0.021973    29A     -0.002681

  @DF-RHF Final Energy:  -679.94647092525634

   => Energetics <=

    Nuclear Repulsion Energy =            333.3759734700354898
    One-Electron Energy =               -1626.8316204097711761
    Two-Electron Energy =                 613.5091760144794080
    Total Energy =                       -679.9464709252563352
  Basis Set: (AUG-CC-PVTZ AUX)
    Blend: AUG-CC-PVTZ-RI
    Molecular point group: c1

    Geometry (in Angstrom), charge = -2, multiplicity = 1:

       Center              X                  Y                   Z               Mass
    ------------   -----------------  -----------------  -----------------  -----------------
         P            0.426960316375    -0.095496394158     0.001632525594    30.973761998420
         O           -1.007899883625     0.842615305842    -0.013472074406    15.994914619570
         O            1.474580116375     1.111705305842     0.007717925594    15.994914619570
         O            0.414130116375    -0.880174694158    -1.296432074406    15.994914619570
         O            0.390760116375    -0.876214694158     1.299767925594    15.994914619570
         C           -2.163290083625     0.018805905842    -0.001330874406    12.000000000000
         H           -2.240989883625    -0.607314694158    -0.871552074406     1.007825032230
         H           -3.051409883625     0.737295305842    -0.025412074406     1.007825032230
         H           -2.252309883625    -0.560294694158     0.901017925594     1.007825032230

  Basis Set: AUG-CC-PVTZ
    Blend: AUG-CC-PVTZ
  Basis Set: (AUG-CC-PVTZ AUX)
    Blend: AUG-CC-PVTZ-JKFIT
	 Reference Energy          =    -679.9464709252563352 [Eh]
	 Singles Energy            =      -0.0000000000000000 [Eh]
	 Same-Spin Energy          =      -0.3808688897641518 [Eh]
	 Opposite-Spin Energy      =      -1.0901420178372323 [Eh]
	 Correlation Energy        =      -1.4710109076013842 [Eh]
	 Total Energy              =    -681.4174818328576748 [Eh]

	 ================> DF-SCS-MP2 Energies <==================
	-----------------------------------------------------------
	 SCS Same-Spin Scale       =       0.3333333333333333 [-]
	 SCS Opposite-Spin Scale   =       1.2000000000000000 [-]
	 SCS Same-Spin Energy      =      -0.1269562965880506 [Eh]
	 SCS Opposite-Spin Energy  =      -1.3081704214046788 [Eh]
	 SCS Correlation Energy    =      -1.4351267179927294 [Eh]
	 SCS Total Energy          =    -681.3815976432490515 [Eh]
	-----------------------------------------------------------

  Dipole Moment: [D]
     X:    -5.5638      Y:    -0.1901      Z:     0.0029     Total:     5.5670

*** Psi4 exiting successfully. Buy a developer a beer!
