                               Psi4 1.3.2 release

  ==> Input File <==

--------------------------------------------------------------------------
#psi4
#
memory 32 gb

molecule  {
-2 1
  P        0.4529150    -0.0635710     0.0011530
  O       -1.0138150     0.8238990    -0.0131870
  O        1.4686650     1.0929890     0.0080030
  O        0.4082150    -0.8988910    -1.2961470
  O        0.3892546    -0.8410751     1.2159097
  C       -2.1972550     0.0409090    -0.0016870
  H       -2.2469050    -0.6260310    -0.8712670
  H       -3.0573250     0.7185790    -0.0251270
  H       -2.2582250    -0.5790110     0.9013030
units angstrom
no_reorient  #important for SAPT in psi4, default
symmetry c1  #important for SAPT in psi4, default
}

set PROPERTIES_ORIGIN ["COM"]
properties('MP2/aug-cc-pvtz', properties = ['dipole'])
--------------------------------------------------------------------------

    Molecular point group: c1
  Charge       = -2
  Multiplicity = 1
  Basis Set: AUG-CC-PVTZ
    Blend: AUG-CC-PVTZ
  Basis Set: (AUG-CC-PVTZ AUX)
    Blend: AUG-CC-PVTZ-JKFIT

    Orbital Energies [Eh]
    ---------------------

    Doubly Occupied:

       1A    -79.634599     2A    -20.198598     3A    -20.094779
       4A    -20.090954     5A    -20.086208     6A    -10.969081
       7A     -7.153585     8A     -5.052704     9A     -5.051382
      10A     -5.050160    11A     -1.010338    12A     -0.925180
      13A     -0.851436    14A     -0.831106    15A     -0.608616
      16A     -0.362383    17A     -0.304227    18A     -0.290700
      19A     -0.251683    20A     -0.186292    21A     -0.179507
      22A     -0.160638    23A     -0.112320    24A     -0.082795
      25A     -0.078792    26A     -0.070119    27A     -0.036997
      28A     -0.028889    29A     -0.002052

  @DF-RHF Final Energy:  -679.95242753787306

   => Energetics <=

    Nuclear Repulsion Energy =            336.9670615940057701
    One-Electron Energy =               -1634.3267393840421846
    Two-Electron Energy =                 617.4072502521632941
    Total Energy =                       -679.9524275378730636
  Basis Set: (AUG-CC-PVTZ AUX)
    Blend: AUG-CC-PVTZ-RI
    Molecular point group: c1

    Geometry (in Angstrom), charge = -2, multiplicity = 1:

       Center              X                  Y                   Z               Mass
    ------------   -----------------  -----------------  -----------------  -----------------
         P            0.452273637653    -0.071404064097     0.013390936273    30.973761998420
         O           -1.014456362347     0.816065935903    -0.000949063727    15.994914619570
         O            1.468023637653     1.085155935903     0.020240936273    15.994914619570
         O            0.407573637653    -0.906724064097    -1.283909063727    15.994914619570
         O            0.388613237653    -0.848908164097     1.228147636273    15.994914619570
         C           -2.197896362347     0.033075935903     0.010550936273    12.000000000000
         H           -2.247546362347    -0.633864064097    -0.859029063727     1.007825032230
         H           -3.057966362347     0.710745935903    -0.012889063727     1.007825032230
         H           -2.258866362347    -0.586844064097     0.913540936273     1.007825032230

  Basis Set: AUG-CC-PVTZ
    Blend: AUG-CC-PVTZ
  Basis Set: (AUG-CC-PVTZ AUX)
    Blend: AUG-CC-PVTZ-JKFIT
	 Reference Energy          =    -679.9524275378730636 [Eh]
	 Singles Energy            =      -0.0000000000000000 [Eh]
	 Same-Spin Energy          =      -0.3788042823273292 [Eh]
	 Opposite-Spin Energy      =      -1.0847250183544279 [Eh]
	 Correlation Energy        =      -1.4635293006817571 [Eh]
	 Total Energy              =    -681.4159568385548482 [Eh]

	 ================> DF-SCS-MP2 Energies <==================
	-----------------------------------------------------------
	 SCS Same-Spin Scale       =       0.3333333333333333 [-]
	 SCS Opposite-Spin Scale   =       1.2000000000000000 [-]
	 SCS Same-Spin Energy      =      -0.1262680941091097 [Eh]
	 SCS Opposite-Spin Energy  =      -1.3016700220253135 [Eh]
	 SCS Correlation Energy    =      -1.4279381161344231 [Eh]
	 SCS Total Energy          =    -681.3803656540075053 [Eh]
	-----------------------------------------------------------

  Dipole Moment: [D]
     X:    -5.1780      Y:     0.2807      Z:     0.5838     Total:     5.2184

*** Psi4 exiting successfully. Buy a developer a beer!
