                               Psi4 1.3.2 release

  ==> Input File <==

--------------------------------------------------------------------------
#psi4
#
memory 32 gb

molecule  {
-2 1
  P        0.4529150    -0.0635710     0.0011530
  O       -1.0993694     0.8756652    -0.0140235
  O        1.4686650     1.0929890     0.0080030
  O        0.4082150    -0.8988910    -1.2961470
  O        0.3848450    -0.8949310     1.3000530
  C       -2.1972550     0.0409090    -0.0016870
  H       -2.2469050    -0.6260310    -0.8712670
  H       -3.0573250     0.7185790    -0.0251270
  H       -2.2582250    -0.5790110     0.9013030
units angstrom
no_reorient  #important for SAPT in psi4, default
symmetry c1  #important for SAPT in psi4, default
}

set PROPERTIES_ORIGIN ["COM"]
properties('MP2/aug-cc-pvtz', properties = ['dipole'])
--------------------------------------------------------------------------

    Molecular point group: c1
  Charge       = -2
  Multiplicity = 1
  Basis Set: AUG-CC-PVTZ
    Blend: AUG-CC-PVTZ
  Basis Set: (AUG-CC-PVTZ AUX)
    Blend: AUG-CC-PVTZ-JKFIT

    Orbital Energies [Eh]
    ---------------------

    Doubly Occupied:

       1A    -79.665764     2A    -20.200926     3A    -20.109608
       4A    -20.109450     5A    -20.103578     6A    -10.961216
       7A     -7.179850     8A     -5.079241     9A     -5.076842
      10A     -5.076807    11A     -1.006893    12A     -0.918023
      13A     -0.848100    14A     -0.845682    15A     -0.595790
      16A     -0.364250    17A     -0.304563    18A     -0.286124
      19A     -0.258409    20A     -0.184261    21A     -0.174630
      22A     -0.162106    23A     -0.105117    24A     -0.083200
      25A     -0.080417    26A     -0.074936    27A     -0.044645
      28A     -0.043188    29A     -0.014377

  @DF-RHF Final Energy:  -679.95066368130790

   => Energetics <=

    Nuclear Repulsion Energy =            330.0353105020652151
    One-Electron Energy =               -1620.0559637024614403
    Two-Electron Energy =                 610.0699895190883808
    Total Energy =                       -679.9506636813079012
  Basis Set: (AUG-CC-PVTZ AUX)
    Blend: AUG-CC-PVTZ-RI
    Molecular point group: c1

    Geometry (in Angstrom), charge = -2, multiplicity = 1:

       Center              X                  Y                   Z               Mass
    ------------   -----------------  -----------------  -----------------  -----------------
         P            0.465357899501    -0.071100140505     0.001274890023    30.973761998420
         O           -1.086926500499     0.868136059495    -0.013901609977    15.994914619570
         O            1.481107899501     1.085459859495     0.008124890023    15.994914619570
         O            0.420657899501    -0.906420140505    -1.296025109977    15.994914619570
         O            0.397287899501    -0.902460140505     1.300174890023    15.994914619570
         C           -2.184812100499     0.033379859495    -0.001565109977    12.000000000000
         H           -2.234462100499    -0.633560140505    -0.871145109977     1.007825032230
         H           -3.044882100499     0.711049859495    -0.025005109977     1.007825032230
         H           -2.245782100499    -0.586540140505     0.901424890023     1.007825032230

  Basis Set: AUG-CC-PVTZ
    Blend: AUG-CC-PVTZ
  Basis Set: (AUG-CC-PVTZ AUX)
    Blend: AUG-CC-PVTZ-JKFIT
	 Reference Energy          =    -679.9506636813079012 [Eh]
	 Singles Energy            =      -0.0000000000000000 [Eh]
	 Same-Spin Energy          =      -0.3813652623584062 [Eh]
	 Opposite-Spin Energy      =      -1.0912769312348671 [Eh]
	 Correlation Energy        =      -1.4726421935932734 [Eh]
	 Total Energy              =    -681.4233058749011889 [Eh]

	 ================> DF-SCS-MP2 Energies <==================
	-----------------------------------------------------------
	 SCS Same-Spin Scale       =       0.3333333333333333 [-]
	 SCS Opposite-Spin Scale   =       1.2000000000000000 [-]
	 SCS Same-Spin Energy      =      -0.1271217541194687 [Eh]
	 SCS Opposite-Spin Energy  =      -1.3095323174818405 [Eh]
	 SCS Correlation Energy    =      -1.4366540716013092 [Eh]
	 SCS Total Energy          =    -681.3873177529092118 [Eh]
	-----------------------------------------------------------

  Dipole Moment: [D]
     X:    -4.5425      Y:     0.4377      Z:    -0.0071     Total:     4.5636

*** Psi4 exiting successfully. Buy a developer a beer!
