                               Psi4 1.3.2 release

  ==> Input File <==

--------------------------------------------------------------------------
#psi4
#
memory 32 gb

molecule  {
-2 1
  P        0.4529150    -0.0635710     0.0011530
  O       -1.0215036     0.8110652    -0.0132318
  O        1.4787186     1.0840808     0.0081062
  O        0.4082150    -0.8988910    -1.2961470
  O        0.3848450    -0.8949310     1.3000530
  C       -2.1972550     0.0409090    -0.0016870
  H       -2.2469050    -0.6260310    -0.8712670
  H       -3.0573250     0.7185790    -0.0251270
  H       -2.2582250    -0.5790110     0.9013030
units angstrom
no_reorient  #important for SAPT in psi4, default
symmetry c1  #important for SAPT in psi4, default
}

set PROPERTIES_ORIGIN ["COM"]
properties('MP2/aug-cc-pvtz', properties = ['dipole'])
--------------------------------------------------------------------------

    Molecular point group: c1
  Charge       = -2
  Multiplicity = 1
  Basis Set: AUG-CC-PVTZ
    Blend: AUG-CC-PVTZ
  Basis Set: (AUG-CC-PVTZ AUX)
    Blend: AUG-CC-PVTZ-JKFIT

    Orbital Energies [Eh]
    ---------------------

    Doubly Occupied:

       1A    -79.655606     2A    -20.205607     3A    -20.100228
       4A    -20.100070     5A    -20.096732     6A    -10.971001
       7A     -7.170355     8A     -5.069861     9A     -5.067518
      10A     -5.067417    11A     -1.016483    12A     -0.908715
      13A     -0.840512    14A     -0.839251    15A     -0.611274
      16A     -0.370603    17A     -0.309333    18A     -0.297222
      19A     -0.254083    20A     -0.183253    21A     -0.177761
      22A     -0.156130    23A     -0.112739    24A     -0.077804
      25A     -0.074729    26A     -0.074252    27A     -0.037123
      28A     -0.034330    29A     -0.006864

  @DF-RHF Final Energy:  -679.95593220351088

   => Energetics <=

    Nuclear Repulsion Energy =            332.8441771923383499
    One-Electron Energy =               -1625.8265046436495140
    Two-Electron Energy =                 613.0263952478003375
    Total Energy =                       -679.9559322035108835
  Basis Set: (AUG-CC-PVTZ AUX)
    Blend: AUG-CC-PVTZ-RI
    Molecular point group: c1

    Geometry (in Angstrom), charge = -2, multiplicity = 1:

       Center              X                  Y                   Z               Mass
    ------------   -----------------  -----------------  -----------------  -----------------
         P            0.452571001952    -0.060409191495     0.001144736784    30.973761998420
         O           -1.021847598048     0.814227008505    -0.013240063216    15.994914619570
         O            1.478374601952     1.087242608505     0.008097936784    15.994914619570
         O            0.407871001952    -0.895729191495    -1.296155263216    15.994914619570
         O            0.384501001952    -0.891769191495     1.300044736784    15.994914619570
         C           -2.197598998048     0.044070808505    -0.001695263216    12.000000000000
         H           -2.247248998048    -0.622869191495    -0.871275263216     1.007825032230
         H           -3.057668998048     0.721740808505    -0.025135263216     1.007825032230
         H           -2.258568998048    -0.575849191495     0.901294736784     1.007825032230

  Basis Set: AUG-CC-PVTZ
    Blend: AUG-CC-PVTZ
  Basis Set: (AUG-CC-PVTZ AUX)
    Blend: AUG-CC-PVTZ-JKFIT
	 Reference Energy          =    -679.9559322035108835 [Eh]
	 Singles Energy            =      -0.0000000000000000 [Eh]
	 Same-Spin Energy          =      -0.3804324962786405 [Eh]
	 Opposite-Spin Energy      =      -1.0888448481032462 [Eh]
	 Correlation Energy        =      -1.4692773443818867 [Eh]
	 Total Energy              =    -681.4252095478927913 [Eh]

	 ================> DF-SCS-MP2 Energies <==================
	-----------------------------------------------------------
	 SCS Same-Spin Scale       =       0.3333333333333333 [-]
	 SCS Opposite-Spin Scale   =       1.2000000000000000 [-]
	 SCS Same-Spin Energy      =      -0.1268108320928802 [Eh]
	 SCS Opposite-Spin Energy  =      -1.3066138177238955 [Eh]
	 SCS Correlation Energy    =      -1.4334246498167758 [Eh]
	 SCS Total Energy          =    -681.3893568533276266 [Eh]
	-----------------------------------------------------------

  Dipole Moment: [D]
     X:    -5.1789      Y:     0.6929      Z:    -0.0104     Total:     5.2251

*** Psi4 exiting successfully. Buy a developer a beer!
