                               Psi4 1.3.2 release

  ==> Input File <==

--------------------------------------------------------------------------
#psi4
#
memory 32 gb

molecule  {
-2 1
  P        0.4529150    -0.0635710     0.0011530
  O       -0.8427061     0.7203666    -0.0115141
  O        1.4686650     1.0929890     0.0080030
  O        0.4082150    -0.8988910    -1.2961470
  O        0.3848450    -0.8949310     1.3000530
  C       -2.1972550     0.0409090    -0.0016870
  H       -2.2469050    -0.6260310    -0.8712670
  H       -3.0573250     0.7185790    -0.0251270
  H       -2.2582250    -0.5790110     0.9013030
units angstrom
no_reorient  #important for SAPT in psi4, default
symmetry c1  #important for SAPT in psi4, default
}

set PROPERTIES_ORIGIN ["COM"]
properties('MP2/aug-cc-pvtz', properties = ['dipole'])
--------------------------------------------------------------------------

    Molecular point group: c1
  Charge       = -2
  Multiplicity = 1
  Basis Set: AUG-CC-PVTZ
    Blend: AUG-CC-PVTZ
  Basis Set: (AUG-CC-PVTZ AUX)
    Blend: AUG-CC-PVTZ-JKFIT

    Orbital Energies [Eh]
    ---------------------

    Doubly Occupied:

       1A    -79.628231     2A    -20.209455     3A    -20.082391
       4A    -20.082216     5A    -20.079190     6A    -10.997280
       7A     -7.147166     8A     -5.047545     9A     -5.044078
      10A     -5.043895    11A     -1.040798    12A     -0.885187
      13A     -0.826238    14A     -0.825518    15A     -0.645322
      16A     -0.377408    17A     -0.316001    18A     -0.315822
      19A     -0.240694    20A     -0.199935    21A     -0.196582
      22A     -0.137336    23A     -0.117384    24A     -0.069609
      25A     -0.061943    26A     -0.060877    27A     -0.018160
      28A     -0.016014    29A      0.008133

  @DF-RHF Final Energy:  -679.92385715817693

   => Energetics <=

    Nuclear Repulsion Energy =            338.8466393124113551
    One-Electron Energy =               -1638.1327095078761431
    Two-Electron Energy =                 619.3622130372879155
    Total Energy =                       -679.9238571581769293
  Basis Set: (AUG-CC-PVTZ AUX)
    Blend: AUG-CC-PVTZ-RI
    Molecular point group: c1

    Geometry (in Angstrom), charge = -2, multiplicity = 1:

       Center              X                  Y                   Z               Mass
    ------------   -----------------  -----------------  -----------------  -----------------
         P            0.428029081042    -0.048513688736     0.000909925741    30.973761998420
         O           -0.867592018958     0.735423911264    -0.011757174259    15.994914619570
         O            1.443779081042     1.108046311264     0.007759925741    15.994914619570
         O            0.383329081042    -0.883833688736    -1.296390074259    15.994914619570
         O            0.359959081042    -0.879873688736     1.299809925741    15.994914619570
         C           -2.222140918958     0.055966311264    -0.001930074259    12.000000000000
         H           -2.271790918958    -0.610973688736    -0.871510074259     1.007825032230
         H           -3.082210918958     0.733636311264    -0.025370074259     1.007825032230
         H           -2.283110918958    -0.563953688736     0.901059925741     1.007825032230

  Basis Set: AUG-CC-PVTZ
    Blend: AUG-CC-PVTZ
  Basis Set: (AUG-CC-PVTZ AUX)
    Blend: AUG-CC-PVTZ-JKFIT
	 Reference Energy          =    -679.9238571581769293 [Eh]
	 Singles Energy            =      -0.0000000000000000 [Eh]
	 Same-Spin Energy          =      -0.3797970333758491 [Eh]
	 Opposite-Spin Energy      =      -1.0869099017058030 [Eh]
	 Correlation Energy        =      -1.4667069350816522 [Eh]
	 Total Energy              =    -681.3905640932586039 [Eh]

	 ================> DF-SCS-MP2 Energies <==================
	-----------------------------------------------------------
	 SCS Same-Spin Scale       =       0.3333333333333333 [-]
	 SCS Opposite-Spin Scale   =       1.2000000000000000 [-]
	 SCS Same-Spin Energy      =      -0.1265990111252830 [Eh]
	 SCS Opposite-Spin Energy  =      -1.3042918820469636 [Eh]
	 SCS Correlation Energy    =      -1.4308908931722466 [Eh]
	 SCS Total Energy          =    -681.3547480513491337 [Eh]
	-----------------------------------------------------------

  Dipole Moment: [D]
     X:    -6.4823      Y:     1.0891      Z:    -0.0154     Total:     6.5731

*** Psi4 exiting successfully. Buy a developer a beer!
