                               Psi4 1.3.2 release

  ==> Input File <==

--------------------------------------------------------------------------
#psi4
#
memory 32 gb

molecule  {
-2 1
  P        0.4529150    -0.0635710     0.0011530
  O       -1.0138150     0.8238990    -0.0131870
  O        1.4686650     1.0929890     0.0080030
  O        0.4082150    -0.8988910    -1.2961470
  O        0.3848450    -0.8949310     1.3000530
  C       -2.3640469    -0.0694442    -0.0000662
  H       -2.2469050    -0.6260310    -0.8712670
  H       -3.0573250     0.7185790    -0.0251270
  H       -2.2582250    -0.5790110     0.9013030
units angstrom
no_reorient  #important for SAPT in psi4, default
symmetry c1  #important for SAPT in psi4, default
}

set PROPERTIES_ORIGIN ["COM"]
properties('MP2/aug-cc-pvtz', properties = ['dipole'])
--------------------------------------------------------------------------

    Molecular point group: c1
  Charge       = -2
  Multiplicity = 1
  Basis Set: AUG-CC-PVTZ
    Blend: AUG-CC-PVTZ
  Basis Set: (AUG-CC-PVTZ AUX)
    Blend: AUG-CC-PVTZ-JKFIT

    Orbital Energies [Eh]
    ---------------------

    Doubly Occupied:

       1A    -79.648908     2A    -20.198836     3A    -20.096504
       4A    -20.096328     5A    -20.092296     6A    -10.969887
       7A     -7.163603     8A     -5.062986     9A     -5.060860
      10A     -5.060782    11A     -0.966980    12A     -0.889790
      13A     -0.836596    14A     -0.834990    15A     -0.638756
      16A     -0.351213    17A     -0.326059    18A     -0.296536
      19A     -0.217688    20A     -0.185025    21A     -0.183269
      22A     -0.141961    23A     -0.116995    24A     -0.071872
      25A     -0.070167    26A     -0.069208    27A     -0.029874
      28A     -0.028582    29A     -0.003298

  @DF-RHF Final Energy:  -679.92014586925461

   => Energetics <=

    Nuclear Repulsion Energy =            328.9487925414381948
    One-Electron Energy =               -1618.3181780492382131
    Two-Electron Energy =                 609.4492396385453503
    Total Energy =                       -679.9201458692546112
  Basis Set: (AUG-CC-PVTZ AUX)
    Blend: AUG-CC-PVTZ-RI
    Molecular point group: c1

    Geometry (in Angstrom), charge = -2, multiplicity = 1:

       Center              X                  Y                   Z               Mass
    ------------   -----------------  -----------------  -----------------  -----------------
         P            0.471114267448    -0.051530263233     0.000976378723    30.973761998420
         O           -0.995615732552     0.835939736767    -0.013363621277    15.994914619570
         O            1.486864267448     1.105029736767     0.007826378723    15.994914619570
         O            0.426414267448    -0.886850263233    -1.296323621277    15.994914619570
         O            0.403044267448    -0.882890263233     1.299876378723    15.994914619570
         C           -2.345847632552    -0.057403463233    -0.000242821277    12.000000000000
         H           -2.228705732552    -0.613990263233    -0.871443621277     1.007825032230
         H           -3.039125732552     0.730619736767    -0.025303621277     1.007825032230
         H           -2.240025732552    -0.566970263233     0.901126378723     1.007825032230

  Basis Set: AUG-CC-PVTZ
    Blend: AUG-CC-PVTZ
  Basis Set: (AUG-CC-PVTZ AUX)
    Blend: AUG-CC-PVTZ-JKFIT
	 Reference Energy          =    -679.9201458692546112 [Eh]
	 Singles Energy            =      -0.0000000000000000 [Eh]
	 Same-Spin Energy          =      -0.3821388682437855 [Eh]
	 Opposite-Spin Energy      =      -1.0949577808239925 [Eh]
	 Correlation Energy        =      -1.4770966490677779 [Eh]
	 Total Energy              =    -681.3972425183224004 [Eh]

	 ================> DF-SCS-MP2 Energies <==================
	-----------------------------------------------------------
	 SCS Same-Spin Scale       =       0.3333333333333333 [-]
	 SCS Opposite-Spin Scale   =       1.2000000000000000 [-]
	 SCS Same-Spin Energy      =      -0.1273796227479285 [Eh]
	 SCS Opposite-Spin Energy  =      -1.3139493369887909 [Eh]
	 SCS Correlation Energy    =      -1.4413289597367194 [Eh]
	 SCS Total Energy          =    -681.3614748289912768 [Eh]
	-----------------------------------------------------------

  Dipole Moment: [D]
     X:    -5.7410      Y:     0.4295      Z:    -0.0058     Total:     5.7570

*** Psi4 exiting successfully. Buy a developer a beer!
