                               Psi4 1.3.2 release

  ==> Input File <==

--------------------------------------------------------------------------
#psi4
#
memory 32 gb

molecule  {
-2 1
  P        0.4529150    -0.0635710     0.0011530
  O       -1.0215095     0.8110968     0.0127394
  O        1.4686650     1.0929890     0.0080030
  O        0.4082150    -0.8988910    -1.2961470
  O        0.3607581    -0.8841240     1.3054283
  C       -2.1972550     0.0409090    -0.0016870
  H       -2.2469050    -0.6260310    -0.8712670
  H       -3.0573250     0.7185790    -0.0251270
  H       -2.2582250    -0.5790110     0.9013030
units angstrom
no_reorient  #important for SAPT in psi4, default
symmetry c1  #important for SAPT in psi4, default
}

set PROPERTIES_ORIGIN ["COM"]
properties('MP2/aug-cc-pvtz', properties = ['dipole'])
--------------------------------------------------------------------------

    Molecular point group: c1
  Charge       = -2
  Multiplicity = 1
  Basis Set: AUG-CC-PVTZ
    Blend: AUG-CC-PVTZ
  Basis Set: (AUG-CC-PVTZ AUX)
    Blend: AUG-CC-PVTZ-JKFIT

    Orbital Energies [Eh]
    ---------------------

    Doubly Occupied:

       1A    -79.655782     2A    -20.203242     3A    -20.102297
       4A    -20.099428     5A    -20.097383     6A    -10.969473
       7A     -7.170528     8A     -5.070066     9A     -5.067689
      10A     -5.067578    11A     -1.014982    12A     -0.908554
      13A     -0.841534    14A     -0.839944    15A     -0.609737
      16A     -0.369218    17A     -0.307881    18A     -0.295812
      19A     -0.253997    20A     -0.183560    21A     -0.177360
      22A     -0.155792    23A     -0.111463    24A     -0.078000
      25A     -0.075088    26A     -0.074336    27A     -0.037920
      28A     -0.034685    29A     -0.007837

  @DF-RHF Final Energy:  -679.95567587808205

   => Energetics <=

    Nuclear Repulsion Energy =            333.0105005143123549
    One-Electron Energy =               -1626.1700236981930630
    Two-Electron Energy =                 613.2038473057987176
    Total Energy =                       -679.9556758780820473
  Basis Set: (AUG-CC-PVTZ AUX)
    Blend: AUG-CC-PVTZ-RI
    Molecular point group: c1

    Geometry (in Angstrom), charge = -2, multiplicity = 1:

       Center              X                  Y                   Z               Mass
    ------------   -----------------  -----------------  -----------------  -----------------
         P            0.457537215535    -0.063281143630    -0.003399253236    30.973761998420
         O           -1.016887284465     0.811386656370     0.008187146764    15.994914619570
         O            1.473287215535     1.093278856370     0.003450746764    15.994914619570
         O            0.412837215535    -0.898601143630    -1.300699253236    15.994914619570
         O            0.365380315535    -0.883834143630     1.300876046764    15.994914619570
         C           -2.192632784465     0.041198856370    -0.006239253236    12.000000000000
         H           -2.242282784465    -0.625741143630    -0.875819253236     1.007825032230
         H           -3.052702784465     0.718868856370    -0.029679253236     1.007825032230
         H           -2.253602784465    -0.578721143630     0.896750746764     1.007825032230

  Basis Set: AUG-CC-PVTZ
    Blend: AUG-CC-PVTZ
  Basis Set: (AUG-CC-PVTZ AUX)
    Blend: AUG-CC-PVTZ-JKFIT
	 Reference Energy          =    -679.9556758780820473 [Eh]
	 Singles Energy            =      -0.0000000000000000 [Eh]
	 Same-Spin Energy          =      -0.3805087804699961 [Eh]
	 Opposite-Spin Energy      =      -1.0889600052492918 [Eh]
	 Correlation Energy        =      -1.4694687857192879 [Eh]
	 Total Energy              =    -681.4251446638013476 [Eh]

	 ================> DF-SCS-MP2 Energies <==================
	-----------------------------------------------------------
	 SCS Same-Spin Scale       =       0.3333333333333333 [-]
	 SCS Opposite-Spin Scale   =       1.2000000000000000 [-]
	 SCS Same-Spin Energy      =      -0.1268362601566654 [Eh]
	 SCS Opposite-Spin Energy  =      -1.3067520062991502 [Eh]
	 SCS Correlation Energy    =      -1.4335882664558155 [Eh]
	 SCS Total Energy          =    -681.3892641445378331 [Eh]
	-----------------------------------------------------------

  Dipole Moment: [D]
     X:    -5.0859      Y:     0.6514      Z:    -0.0612     Total:     5.1278

*** Psi4 exiting successfully. Buy a developer a beer!
