                               Psi4 1.3.2 release

  ==> Input File <==

--------------------------------------------------------------------------
#psi4
#
memory 32 gb

molecule  {
-2 1
  P        0.4529150    -0.0635710     0.0011530
  O       -0.9653588     0.8994490    -0.0128957
  O        1.4067463     1.1445652     0.0073731
  O        0.4082150    -0.8988910    -1.2961470
  O        0.3848450    -0.8949310     1.3000530
  C       -2.1972550     0.0409090    -0.0016870
  H       -2.2469050    -0.6260310    -0.8712670
  H       -3.0573250     0.7185790    -0.0251270
  H       -2.2582250    -0.5790110     0.9013030
units angstrom
no_reorient  #important for SAPT in psi4, default
symmetry c1  #important for SAPT in psi4, default
}

set PROPERTIES_ORIGIN ["COM"]
properties('MP2/aug-cc-pvtz', properties = ['dipole'])
--------------------------------------------------------------------------

    Molecular point group: c1
  Charge       = -2
  Multiplicity = 1
  Basis Set: AUG-CC-PVTZ
    Blend: AUG-CC-PVTZ
  Basis Set: (AUG-CC-PVTZ AUX)
    Blend: AUG-CC-PVTZ-JKFIT

    Orbital Energies [Eh]
    ---------------------

    Doubly Occupied:

       1A    -79.653481     2A    -20.208150     3A    -20.103797
       4A    -20.103627     5A    -20.089599     6A    -10.974590
       7A     -7.168452     8A     -5.068017     9A     -5.065564
      10A     -5.065495    11A     -0.991434    12A     -0.900965
      13A     -0.843031    14A     -0.837442    15A     -0.615195
      16A     -0.355359    17A     -0.296797    18A     -0.280896
      19A     -0.245364    20A     -0.186453    21A     -0.179116
      22A     -0.158054    23A     -0.115841    24A     -0.078056
      25A     -0.073488    26A     -0.073048    27A     -0.036326
      28A     -0.032165    29A     -0.007536

  @DF-RHF Final Energy:  -679.94232873461203

   => Energetics <=

    Nuclear Repulsion Energy =            331.8339291147863150
    One-Electron Energy =               -1623.9378429344612869
    Two-Electron Energy =                 612.1615850850629386
    Total Energy =                       -679.9423287346120333
  Basis Set: (AUG-CC-PVTZ AUX)
    Blend: AUG-CC-PVTZ-RI
    Molecular point group: c1

    Geometry (in Angstrom), charge = -2, multiplicity = 1:

       Center              X                  Y                   Z               Mass
    ------------   -----------------  -----------------  -----------------  -----------------
         P            0.454872935552    -0.082060413201     0.001202476013    30.973761998420
         O           -0.963400864448     0.880959586799    -0.012846223987    15.994914619570
         O            1.408704235552     1.126075786799     0.007422576013    15.994914619570
         O            0.410172935552    -0.917380413201    -1.296097523987    15.994914619570
         O            0.386802935552    -0.913420413201     1.300102476013    15.994914619570
         C           -2.195297064448     0.022419586799    -0.001637523987    12.000000000000
         H           -2.244947064448    -0.644520413201    -0.871217523987     1.007825032230
         H           -3.055367064448     0.700089586799    -0.025077523987     1.007825032230
         H           -2.256267064448    -0.597500413201     0.901352476013     1.007825032230

  Basis Set: AUG-CC-PVTZ
    Blend: AUG-CC-PVTZ
  Basis Set: (AUG-CC-PVTZ AUX)
    Blend: AUG-CC-PVTZ-JKFIT
	 Reference Energy          =    -679.9423287346120333 [Eh]
	 Singles Energy            =      -0.0000000000000000 [Eh]
	 Same-Spin Energy          =      -0.3816543374546889 [Eh]
	 Opposite-Spin Energy      =      -1.0928313324645917 [Eh]
	 Correlation Energy        =      -1.4744856699192805 [Eh]
	 Total Energy              =    -681.4168144045313511 [Eh]

	 ================> DF-SCS-MP2 Energies <==================
	-----------------------------------------------------------
	 SCS Same-Spin Scale       =       0.3333333333333333 [-]
	 SCS Opposite-Spin Scale   =       1.2000000000000000 [-]
	 SCS Same-Spin Energy      =      -0.1272181124848963 [Eh]
	 SCS Opposite-Spin Energy  =      -1.3113975989575100 [Eh]
	 SCS Correlation Energy    =      -1.4386157114424063 [Eh]
	 SCS Total Energy          =    -681.3809444460544000 [Eh]
	-----------------------------------------------------------

  Dipole Moment: [D]
     X:    -5.2146      Y:     0.3716      Z:    -0.0077     Total:     5.2278

*** Psi4 exiting successfully. Buy a developer a beer!
