                               Psi4 1.3.2 release

  ==> Input File <==

--------------------------------------------------------------------------
#psi4
#
memory 32 gb

molecule  {
-2 1
  P        0.4529150    -0.0635710     0.0011530
  O       -1.0138150     0.8238990    -0.0131870
  O        1.6006411     1.2432605     0.0088930
  O        0.4082150    -0.8988910    -1.2961470
  O        0.3848450    -0.8949310     1.3000530
  C       -2.1972550     0.0409090    -0.0016870
  H       -2.2469050    -0.6260310    -0.8712670
  H       -3.0573250     0.7185790    -0.0251270
  H       -2.2582250    -0.5790110     0.9013030
units angstrom
no_reorient  #important for SAPT in psi4, default
symmetry c1  #important for SAPT in psi4, default
}

set PROPERTIES_ORIGIN ["COM"]
properties('MP2/aug-cc-pvtz', properties = ['dipole'])
--------------------------------------------------------------------------

    Molecular point group: c1
  Charge       = -2
  Multiplicity = 1
  Basis Set: AUG-CC-PVTZ
    Blend: AUG-CC-PVTZ
  Basis Set: (AUG-CC-PVTZ AUX)
    Blend: AUG-CC-PVTZ-JKFIT

    Orbital Energies [Eh]
    ---------------------

    Doubly Occupied:

       1A    -79.684921     2A    -20.218765     3A    -20.117875
       4A    -20.117727     5A    -20.106032     6A    -10.981076
       7A     -7.196321     8A     -5.095818     9A     -5.093466
      10A     -5.092875    11A     -1.021663    12A     -0.908867
      13A     -0.856029    14A     -0.792854    15A     -0.621582
      16A     -0.381013    17A     -0.316998    18A     -0.304756
      19A     -0.260719    20A     -0.188168    21A     -0.181111
      22A     -0.155560    23A     -0.122869    24A     -0.086352
      25A     -0.072289    26A     -0.058451    27A     -0.046266
      28A     -0.022228    29A     -0.009591

  @DF-RHF Final Energy:  -679.91952714040031

   => Energetics <=

    Nuclear Repulsion Energy =            325.1693891599703079
    One-Electron Energy =               -1609.9533472016764790
    Two-Electron Energy =                 604.8644309013059228
    Total Energy =                       -679.9195271404003051
  Basis Set: (AUG-CC-PVTZ AUX)
    Blend: AUG-CC-PVTZ-RI
    Molecular point group: c1

    Geometry (in Angstrom), charge = -2, multiplicity = 1:

       Center              X                  Y                   Z               Mass
    ------------   -----------------  -----------------  -----------------  -----------------
         P            0.433720510970    -0.085426639311     0.001023789826    30.973761998420
         O           -1.033009489030     0.802043360689    -0.013316210174    15.994914619570
         O            1.581446610970     1.221404860689     0.008763789826    15.994914619570
         O            0.389020510970    -0.920746639311    -1.296276210174    15.994914619570
         O            0.365650510970    -0.916786639311     1.299923789826    15.994914619570
         C           -2.216449489030     0.019053360689    -0.001816210174    12.000000000000
         H           -2.266099489030    -0.647886639311    -0.871396210174     1.007825032230
         H           -3.076519489030     0.696723360689    -0.025256210174     1.007825032230
         H           -2.277419489030    -0.600866639311     0.901173789826     1.007825032230

  Basis Set: AUG-CC-PVTZ
    Blend: AUG-CC-PVTZ
  Basis Set: (AUG-CC-PVTZ AUX)
    Blend: AUG-CC-PVTZ-JKFIT
	 Reference Energy          =    -679.9195271404003051 [Eh]
	 Singles Energy            =      -0.0000000000000000 [Eh]
	 Same-Spin Energy          =      -0.3836102602345106 [Eh]
	 Opposite-Spin Energy      =      -1.0981129169582280 [Eh]
	 Correlation Energy        =      -1.4817231771927386 [Eh]
	 Total Energy              =    -681.4012503175930533 [Eh]

	 ================> DF-SCS-MP2 Energies <==================
	-----------------------------------------------------------
	 SCS Same-Spin Scale       =       0.3333333333333333 [-]
	 SCS Opposite-Spin Scale   =       1.2000000000000000 [-]
	 SCS Same-Spin Energy      =      -0.1278700867448369 [Eh]
	 SCS Opposite-Spin Energy  =      -1.3177355003498736 [Eh]
	 SCS Correlation Energy    =      -1.4456055870947104 [Eh]
	 SCS Total Energy          =    -681.3651327274950518 [Eh]
	-----------------------------------------------------------

  Dipole Moment: [D]
     X:    -6.2576      Y:    -0.4398      Z:    -0.0168     Total:     6.2731

*** Psi4 exiting successfully. Buy a developer a beer!
