                               Psi4 1.3.2 release

  ==> Input File <==

--------------------------------------------------------------------------
#psi4
#
memory 32 gb

molecule  {
-2 1
  P        0.4044523    -0.1391087     0.0022930
  O       -1.0138150     0.8238990    -0.0131870
  O        1.4686650     1.0929890     0.0080030
  O        0.4082150    -0.8988910    -1.2961470
  O        0.3848450    -0.8949310     1.3000530
  C       -2.1546502    -0.0199468    -0.0007306
  H       -2.2469050    -0.6260310    -0.8712670
  H       -3.0573250     0.7185790    -0.0251270
  H       -2.2582250    -0.5790110     0.9013030
units angstrom
no_reorient  #important for SAPT in psi4, default
symmetry c1  #important for SAPT in psi4, default
}

set PROPERTIES_ORIGIN ["COM"]
properties('MP2/aug-cc-pvtz', properties = ['dipole'])
--------------------------------------------------------------------------

    Molecular point group: c1
  Charge       = -2
  Multiplicity = 1
  Basis Set: AUG-CC-PVTZ
    Blend: AUG-CC-PVTZ
  Basis Set: (AUG-CC-PVTZ AUX)
    Blend: AUG-CC-PVTZ-JKFIT

    Orbital Energies [Eh]
    ---------------------

    Doubly Occupied:

       1A    -79.655187     2A    -20.212078     3A    -20.110868
       4A    -20.110224     5A    -20.078403     6A    -10.976055
       7A     -7.171018     8A     -5.070362     9A     -5.068427
      10A     -5.067767    11A     -1.019948    12A     -0.920835
      13A     -0.867051    14A     -0.802448    15A     -0.614002
      16A     -0.372848    17A     -0.327846    18A     -0.277465
      19A     -0.260872    20A     -0.194075    21A     -0.173111
      22A     -0.160494    23A     -0.126551    24A     -0.088928
      25A     -0.079520    26A     -0.062562    27A     -0.049497
      28A     -0.013437    29A      0.001789

  @DF-RHF Final Energy:  -679.93707308415901

   => Energetics <=

    Nuclear Repulsion Energy =            333.7511469236458765
    One-Electron Energy =               -1627.5162646031312761
    Two-Electron Energy =                 613.8280445953264461
    Total Energy =                       -679.9370730841590103
  Basis Set: (AUG-CC-PVTZ AUX)
    Blend: AUG-CC-PVTZ-RI
    Molecular point group: c1

    Geometry (in Angstrom), charge = -2, multiplicity = 1:

       Center              X                  Y                   Z               Mass
    ------------   -----------------  -----------------  -----------------  -----------------
         P            0.413452469228    -0.111194466053     0.001867805706    30.973761998420
         O           -1.004814830772     0.851813233947    -0.013612194294    15.994914619570
         O            1.477665169228     1.120903233947     0.007577805706    15.994914619570
         O            0.417215169228    -0.870976766053    -1.296572194294    15.994914619570
         O            0.393845169228    -0.867016766053     1.299627805706    15.994914619570
         C           -2.145650030772     0.007967433947    -0.001155794294    12.000000000000
         H           -2.237904830772    -0.598116766053    -0.871692194294     1.007825032230
         H           -3.048324830772     0.746493233947    -0.025552194294     1.007825032230
         H           -2.249224830772    -0.551096766053     0.900877805706     1.007825032230

  Basis Set: AUG-CC-PVTZ
    Blend: AUG-CC-PVTZ
  Basis Set: (AUG-CC-PVTZ AUX)
    Blend: AUG-CC-PVTZ-JKFIT
	 Reference Energy          =    -679.9370730841590103 [Eh]
	 Singles Energy            =      -0.0000000000000000 [Eh]
	 Same-Spin Energy          =      -0.3811482503526196 [Eh]
	 Opposite-Spin Energy      =      -1.0908520691300598 [Eh]
	 Correlation Energy        =      -1.4720003194826794 [Eh]
	 Total Energy              =    -681.4090734036417416 [Eh]

	 ================> DF-SCS-MP2 Energies <==================
	-----------------------------------------------------------
	 SCS Same-Spin Scale       =       0.3333333333333333 [-]
	 SCS Opposite-Spin Scale   =       1.2000000000000000 [-]
	 SCS Same-Spin Energy      =      -0.1270494167842065 [Eh]
	 SCS Opposite-Spin Energy  =      -1.3090224829560717 [Eh]
	 SCS Correlation Energy    =      -1.4360718997402782 [Eh]
	 SCS Total Energy          =    -681.3731449838992376 [Eh]
	-----------------------------------------------------------

  Dipole Moment: [D]
     X:    -5.7505      Y:    -0.6069      Z:     0.0090     Total:     5.7825

*** Psi4 exiting successfully. Buy a developer a beer!
