                               Psi4 1.3.2 release

  ==> Input File <==

--------------------------------------------------------------------------
#psi4
#
memory 32 gb

molecule  {
-2 1
  P        0.4529150    -0.0635710     0.0011530
  O       -1.0138150     0.8238990    -0.0131870
  O        1.4686650     1.0929890     0.0080030
  O        0.4082150    -0.8988910    -1.2961470
  O        0.3848450    -0.8949310     1.3000530
  C       -2.0304631     0.1512622    -0.0033078
  H       -2.2469050    -0.6260310    -0.8712670
  H       -3.0573250     0.7185790    -0.0251270
  H       -2.2582250    -0.5790110     0.9013030
units angstrom
no_reorient  #important for SAPT in psi4, default
symmetry c1  #important for SAPT in psi4, default
}

set PROPERTIES_ORIGIN ["COM"]
properties('MP2/aug-cc-pvtz', properties = ['dipole'])
--------------------------------------------------------------------------

    Molecular point group: c1
  Charge       = -2
  Multiplicity = 1
  Basis Set: AUG-CC-PVTZ
    Blend: AUG-CC-PVTZ
  Basis Set: (AUG-CC-PVTZ AUX)
    Blend: AUG-CC-PVTZ-JKFIT

    Orbital Energies [Eh]
    ---------------------

    Doubly Occupied:

       1A    -79.668140     2A    -20.224796     3A    -20.109536
       4A    -20.109431     5A    -20.104828     6A    -10.988246
       7A     -7.183176     8A     -5.082938     9A     -5.080068
      10A     -5.079988    11A     -1.113295    12A     -0.925607
      13A     -0.849552    14A     -0.848275    15A     -0.582382
      16A     -0.418561    17A     -0.338099    18A     -0.327317
      19A     -0.267126    20A     -0.182674    21A     -0.174924
      22A     -0.142244    23A     -0.089107    24A     -0.088029
      25A     -0.082347    26A     -0.081818    27A     -0.047105
      28A     -0.045622    29A     -0.015149

  @DF-RHF Final Energy:  -679.92026425774884

   => Energetics <=

    Nuclear Repulsion Energy =            337.0792030056632598
    One-Electron Energy =               -1633.4981767057358866
    Two-Electron Energy =                 616.4987094423238432
    Total Energy =                       -679.9202642577488405
  Basis Set: (AUG-CC-PVTZ AUX)
    Blend: AUG-CC-PVTZ-RI
    Molecular point group: c1

    Geometry (in Angstrom), charge = -2, multiplicity = 1:

       Center              X                  Y                   Z               Mass
    ------------   -----------------  -----------------  -----------------  -----------------
         P            0.434715662277    -0.075612383265     0.001330082105    30.973761998420
         O           -1.032014337723     0.811857616735    -0.013009917895    15.994914619570
         O            1.450465662277     1.080947616735     0.008180082105    15.994914619570
         O            0.390015662277    -0.910932383265    -1.295969917895    15.994914619570
         O            0.366645662277    -0.906972383265     1.300230082105    15.994914619570
         C           -2.048662437723     0.139220816735    -0.003130717895    12.000000000000
         H           -2.265104337723    -0.638072383265    -0.871089917895     1.007825032230
         H           -3.075524337723     0.706537616735    -0.024949917895     1.007825032230
         H           -2.276424337723    -0.591052383265     0.901480082105     1.007825032230

  Basis Set: AUG-CC-PVTZ
    Blend: AUG-CC-PVTZ
  Basis Set: (AUG-CC-PVTZ AUX)
    Blend: AUG-CC-PVTZ-JKFIT
	 Reference Energy          =    -679.9202642577488405 [Eh]
	 Singles Energy            =      -0.0000000000000000 [Eh]
	 Same-Spin Energy          =      -0.3814764418004150 [Eh]
	 Opposite-Spin Energy      =      -1.0884359630575537 [Eh]
	 Correlation Energy        =      -1.4699124048579688 [Eh]
	 Total Energy              =    -681.3901766626067911 [Eh]

	 ================> DF-SCS-MP2 Energies <==================
	-----------------------------------------------------------
	 SCS Same-Spin Scale       =       0.3333333333333333 [-]
	 SCS Opposite-Spin Scale   =       1.2000000000000000 [-]
	 SCS Same-Spin Energy      =      -0.1271588139334716 [Eh]
	 SCS Opposite-Spin Energy  =      -1.3061231556690645 [Eh]
	 SCS Correlation Energy    =      -1.4332819696025361 [Eh]
	 SCS Total Energy          =    -681.3535462273513303 [Eh]
	-----------------------------------------------------------

  Dipole Moment: [D]
     X:    -3.7584      Y:     1.0658      Z:    -0.0174     Total:     3.9066

*** Psi4 exiting successfully. Buy a developer a beer!
