                               Psi4 1.3.2 release

  ==> Input File <==

--------------------------------------------------------------------------
#psi4
#
memory 32 gb

molecule  {
-2 1
  P        0.4529150    -0.0635710     0.0011530
  O       -0.9946318     0.7904474    -0.0766890
  O        1.4686650     1.0929890     0.0080030
  O        0.4082150    -0.8988910    -1.2961470
  O        0.3848450    -0.8949310     1.3000530
  C       -2.1972550     0.0409090    -0.0016870
  H       -2.1963943    -0.6048263    -0.8885176
  H       -3.0573250     0.7185790    -0.0251270
  H       -2.2582250    -0.5790110     0.9013030
units angstrom
no_reorient  #important for SAPT in psi4, default
symmetry c1  #important for SAPT in psi4, default
}

set PROPERTIES_ORIGIN ["COM"]
properties('MP2/aug-cc-pvtz', properties = ['dipole'])
--------------------------------------------------------------------------

    Molecular point group: c1
  Charge       = -2
  Multiplicity = 1
  Basis Set: AUG-CC-PVTZ
    Blend: AUG-CC-PVTZ
  Basis Set: (AUG-CC-PVTZ AUX)
    Blend: AUG-CC-PVTZ-JKFIT

    Orbital Energies [Eh]
    ---------------------

    Doubly Occupied:

       1A    -79.651859     2A    -20.204432     3A    -20.100297
       4A    -20.094961     5A    -20.094138     6A    -10.973338
       7A     -7.166970     8A     -5.066549     9A     -5.064163
      10A     -5.064041    11A     -1.018321    12A     -0.905263
      13A     -0.839201    14A     -0.836648    15A     -0.614604
      16A     -0.370076    17A     -0.314047    18A     -0.298942
      19A     -0.251101    20A     -0.183678    21A     -0.178999
      22A     -0.152887    23A     -0.113544    24A     -0.076869
      25A     -0.073351    26A     -0.071872    27A     -0.035296
      28A     -0.030696    29A     -0.004772

  @DF-RHF Final Energy:  -679.95366275106073

   => Energetics <=

    Nuclear Repulsion Energy =            333.9226454505400170
    One-Electron Energy =               -1628.0507896574431470
    Two-Electron Energy =                 614.1744814558422831
    Total Energy =                       -679.9536627510607332
  Basis Set: (AUG-CC-PVTZ AUX)
    Blend: AUG-CC-PVTZ-RI
    Molecular point group: c1

    Geometry (in Angstrom), charge = -2, multiplicity = 1:

       Center              X                  Y                   Z               Mass
    ------------   -----------------  -----------------  -----------------  -----------------
         P            0.449662103504    -0.058900479835     0.010546973066    30.973761998420
         O           -0.997884696496     0.795117920165    -0.067295026934    15.994914619570
         O            1.465412103504     1.097659520165     0.017396973066    15.994914619570
         O            0.404962103504    -0.894220479835    -1.286753026934    15.994914619570
         O            0.381592103504    -0.890260479835     1.309446973066    15.994914619570
         C           -2.200507896496     0.045579520165     0.007706973066    12.000000000000
         H           -2.199647196496    -0.600155779835    -0.879123626934     1.007825032230
         H           -3.060577896496     0.723249520165    -0.015733026934     1.007825032230
         H           -2.261477896496    -0.574340479835     0.910696973066     1.007825032230

  Basis Set: AUG-CC-PVTZ
    Blend: AUG-CC-PVTZ
  Basis Set: (AUG-CC-PVTZ AUX)
    Blend: AUG-CC-PVTZ-JKFIT
	 Reference Energy          =    -679.9536627510607332 [Eh]
	 Singles Energy            =      -0.0000000000000000 [Eh]
	 Same-Spin Energy          =      -0.3803501497986495 [Eh]
	 Opposite-Spin Energy      =      -1.0884921200514370 [Eh]
	 Correlation Energy        =      -1.4688422698500865 [Eh]
	 Total Energy              =    -681.4225050209108758 [Eh]

	 ================> DF-SCS-MP2 Energies <==================
	-----------------------------------------------------------
	 SCS Same-Spin Scale       =       0.3333333333333333 [-]
	 SCS Opposite-Spin Scale   =       1.2000000000000000 [-]
	 SCS Same-Spin Energy      =      -0.1267833832662165 [Eh]
	 SCS Opposite-Spin Energy  =      -1.3061905440617243 [Eh]
	 SCS Correlation Energy    =      -1.4329739273279407 [Eh]
	 SCS Total Energy          =    -681.3866366783886406 [Eh]
	-----------------------------------------------------------

  Dipole Moment: [D]
     X:    -5.3549      Y:     0.7488      Z:     0.0769     Total:     5.4076

*** Psi4 exiting successfully. Buy a developer a beer!
