                               Psi4 1.3.2 release

  ==> Input File <==

--------------------------------------------------------------------------
#psi4
#
memory 32 gb

molecule  {
-2 1
  P        0.4529150    -0.0635710     0.0011530
  O       -1.0006623     0.8018309    -0.0555359
  O        1.4686650     1.0929890     0.0080030
  O        0.4082150    -0.8988910    -1.2961470
  O        0.3848450    -0.8949310     1.3000530
  C       -2.1972550     0.0409090    -0.0016870
  H       -2.2132378    -0.6120942    -0.8830353
  H       -3.0573250     0.7185790    -0.0251270
  H       -2.2582250    -0.5790110     0.9013030
units angstrom
no_reorient  #important for SAPT in psi4, default
symmetry c1  #important for SAPT in psi4, default
}

set PROPERTIES_ORIGIN ["COM"]
properties('MP2/aug-cc-pvtz', properties = ['dipole'])
--------------------------------------------------------------------------

    Molecular point group: c1
  Charge       = -2
  Multiplicity = 1
  Basis Set: AUG-CC-PVTZ
    Blend: AUG-CC-PVTZ
  Basis Set: (AUG-CC-PVTZ AUX)
    Blend: AUG-CC-PVTZ-JKFIT

    Orbital Energies [Eh]
    ---------------------

    Doubly Occupied:

       1A    -79.652911     2A    -20.204994     3A    -20.100375
       4A    -20.096797     5A    -20.094588     6A    -10.972819
       7A     -7.167911     8A     -5.067465     9A     -5.065091
      10A     -5.064986    11A     -1.016337    12A     -0.906014
      13A     -0.839591    14A     -0.837511    15A     -0.613739
      16A     -0.369491    17A     -0.311447    18A     -0.297897
      19A     -0.251795    20A     -0.183717    21A     -0.178630
      22A     -0.154095    23A     -0.113530    24A     -0.076876
      25A     -0.073991    26A     -0.072621    27A     -0.035634
      28A     -0.032086    29A     -0.005463

  @DF-RHF Final Energy:  -679.95463459899076

   => Energetics <=

    Nuclear Repulsion Energy =            333.5184790818606757
    One-Electron Energy =               -1627.2294235389297228
    Two-Electron Energy =                 613.7563098580782253
    Total Energy =                       -679.9546345989907650
  Basis Set: (AUG-CC-PVTZ AUX)
    Blend: AUG-CC-PVTZ-RI
    Molecular point group: c1

    Geometry (in Angstrom), charge = -2, multiplicity = 1:

       Center              X                  Y                   Z               Mass
    ------------   -----------------  -----------------  -----------------  -----------------
         P            0.450693525903    -0.060489480307     0.007420250623    30.973761998420
         O           -1.002883774097     0.804912419693    -0.049268649377    15.994914619570
         O            1.466443525903     1.096070519693     0.014270250623    15.994914619570
         O            0.405993525903    -0.895809480307    -1.289879749377    15.994914619570
         O            0.382623525903    -0.891849480307     1.306320250623    15.994914619570
         C           -2.199476474097     0.043990519693     0.004580250623    12.000000000000
         H           -2.215459274097    -0.609012680307    -0.876768049377     1.007825032230
         H           -3.059546474097     0.721660519693    -0.018859749377     1.007825032230
         H           -2.260446474097    -0.575929480307     0.907570250623     1.007825032230

  Basis Set: AUG-CC-PVTZ
    Blend: AUG-CC-PVTZ
  Basis Set: (AUG-CC-PVTZ AUX)
    Blend: AUG-CC-PVTZ-JKFIT
	 Reference Energy          =    -679.9546345989907650 [Eh]
	 Singles Energy            =      -0.0000000000000000 [Eh]
	 Same-Spin Energy          =      -0.3803946250119977 [Eh]
	 Opposite-Spin Energy      =      -1.0887182510119651 [Eh]
	 Correlation Energy        =      -1.4691128760239627 [Eh]
	 Total Energy              =    -681.4237474750146930 [Eh]

	 ================> DF-SCS-MP2 Energies <==================
	-----------------------------------------------------------
	 SCS Same-Spin Scale       =       0.3333333333333333 [-]
	 SCS Opposite-Spin Scale   =       1.2000000000000000 [-]
	 SCS Same-Spin Energy      =      -0.1267982083373326 [Eh]
	 SCS Opposite-Spin Energy  =      -1.3064619012143581 [Eh]
	 SCS Correlation Energy    =      -1.4332601095516906 [Eh]
	 SCS Total Energy          =    -681.3878947085424898 [Eh]
	-----------------------------------------------------------

  Dipole Moment: [D]
     X:    -5.3058      Y:     0.7137      Z:     0.0476     Total:     5.3538

*** Psi4 exiting successfully. Buy a developer a beer!
