                               Psi4 1.3.2 release

  ==> Input File <==

--------------------------------------------------------------------------
#psi4
#
memory 32 gb

molecule  {
-2 1
  P        0.4529150    -0.0635710     0.0011530
  O       -1.0070574     0.8129825    -0.0343664
  O        1.4686650     1.0929890     0.0080030
  O        0.4082150    -0.8988910    -1.2961470
  O        0.3848450    -0.8949310     1.3000530
  C       -2.1972550     0.0409090    -0.0016870
  H       -2.2300764    -0.6191631    -0.8772845
  H       -3.0573250     0.7185790    -0.0251270
  H       -2.2582250    -0.5790110     0.9013030
units angstrom
no_reorient  #important for SAPT in psi4, default
symmetry c1  #important for SAPT in psi4, default
}

set PROPERTIES_ORIGIN ["COM"]
properties('MP2/aug-cc-pvtz', properties = ['dipole'])
--------------------------------------------------------------------------

    Molecular point group: c1
  Charge       = -2
  Multiplicity = 1
  Basis Set: AUG-CC-PVTZ
    Blend: AUG-CC-PVTZ
  Basis Set: (AUG-CC-PVTZ AUX)
    Blend: AUG-CC-PVTZ-JKFIT

    Orbital Energies [Eh]
    ---------------------

    Doubly Occupied:

       1A    -79.654018     2A    -20.205514     3A    -20.100504
       4A    -20.098653     5A    -20.095095     6A    -10.972260
       7A     -7.168909     8A     -5.068440     9A     -5.066075
      10A     -5.065985    11A     -1.014332    12A     -0.906818
      13A     -0.840118    14A     -0.838302    15A     -0.612836
      16A     -0.368881    17A     -0.309183    18A     -0.296374
      19A     -0.252528    20A     -0.183714    21A     -0.178253
      22A     -0.155361    23A     -0.113447    24A     -0.076977
      25A     -0.074571    26A     -0.073356    27A     -0.036060
      28A     -0.033399    29A     -0.006184

  @DF-RHF Final Energy:  -679.95508883354842

   => Energetics <=

    Nuclear Repulsion Energy =            333.1047320075326184
    One-Electron Energy =               -1626.3873454547119763
    Two-Electron Energy =                 613.3275246136308851
    Total Energy =                       -679.9550888335484160
  Basis Set: (AUG-CC-PVTZ AUX)
    Blend: AUG-CC-PVTZ-RI
    Molecular point group: c1

    Geometry (in Angstrom), charge = -2, multiplicity = 1:

       Center              X                  Y                   Z               Mass
    ------------   -----------------  -----------------  -----------------  -----------------
         P            0.451777930409    -0.062046577137     0.004288682456    30.973761998420
         O           -1.008194469591     0.814506922863    -0.031230717544    15.994914619570
         O            1.467527930409     1.094513422863     0.011138682456    15.994914619570
         O            0.407077930409    -0.897366577137    -1.293011317544    15.994914619570
         O            0.383707930409    -0.893406577137     1.303188682456    15.994914619570
         C           -2.198392069591     0.042433422863     0.001448682456    12.000000000000
         H           -2.231213469591    -0.617638677137    -0.874148817544     1.007825032230
         H           -3.058462069591     0.720103422863    -0.021991317544     1.007825032230
         H           -2.259362069591    -0.577486577137     0.904438682456     1.007825032230

  Basis Set: AUG-CC-PVTZ
    Blend: AUG-CC-PVTZ
  Basis Set: (AUG-CC-PVTZ AUX)
    Blend: AUG-CC-PVTZ-JKFIT
	 Reference Energy          =    -679.9550888335484160 [Eh]
	 Singles Energy            =      -0.0000000000000000 [Eh]
	 Same-Spin Energy          =      -0.3804644009695206 [Eh]
	 Opposite-Spin Energy      =      -1.0889927315096428 [Eh]
	 Correlation Energy        =      -1.4694571324791634 [Eh]
	 Total Energy              =    -681.4245459660276083 [Eh]

	 ================> DF-SCS-MP2 Energies <==================
	-----------------------------------------------------------
	 SCS Same-Spin Scale       =       0.3333333333333333 [-]
	 SCS Opposite-Spin Scale   =       1.2000000000000000 [-]
	 SCS Same-Spin Energy      =      -0.1268214669898402 [Eh]
	 SCS Opposite-Spin Energy  =      -1.3067912778115713 [Eh]
	 SCS Correlation Energy    =      -1.4336127448014115 [Eh]
	 SCS Total Energy          =    -681.3887015783498100 [Eh]
	-----------------------------------------------------------

  Dipole Moment: [D]
     X:    -5.2525      Y:     0.6786      Z:     0.0186     Total:     5.2962

*** Psi4 exiting successfully. Buy a developer a beer!
