                               Psi4 1.3.2 release

  ==> Input File <==

--------------------------------------------------------------------------
#psi4
#
memory 32 gb

molecule  {
-2 1
  P        0.4529150    -0.0635710     0.0011530
  O       -0.9970882     0.8486886    -0.0650188
  O        1.4686650     1.0929890     0.0080030
  O        0.4082150    -0.8988910    -1.2961470
  O        0.4330737    -0.9157821     1.2881172
  C       -2.1972550     0.0409090    -0.0016870
  H       -2.2469050    -0.6260310    -0.8712670
  H       -3.0573250     0.7185790    -0.0251270
  H       -2.2582250    -0.5790110     0.9013030
units angstrom
no_reorient  #important for SAPT in psi4, default
symmetry c1  #important for SAPT in psi4, default
}

set PROPERTIES_ORIGIN ["COM"]
properties('MP2/aug-cc-pvtz', properties = ['dipole'])
--------------------------------------------------------------------------

    Molecular point group: c1
  Charge       = -2
  Multiplicity = 1
  Basis Set: AUG-CC-PVTZ
    Blend: AUG-CC-PVTZ
  Basis Set: (AUG-CC-PVTZ AUX)
    Blend: AUG-CC-PVTZ-JKFIT

    Orbital Energies [Eh]
    ---------------------

    Doubly Occupied:

       1A    -79.654061     2A    -20.211252     3A    -20.103043
       4A    -20.097009     5A    -20.092242     6A    -10.976035
       7A     -7.168931     8A     -5.068393     9A     -5.066095
      10A     -5.065996    11A     -1.006820    12A     -0.905923
      13A     -0.839775    14A     -0.836501    15A     -0.616210
      16A     -0.366059    17A     -0.306554    18A     -0.290697
      19A     -0.251715    20A     -0.183836    21A     -0.179696
      22A     -0.157674    23A     -0.116992    24A     -0.076991
      25A     -0.075135    26A     -0.071677    27A     -0.035095
      28A     -0.032409    29A     -0.005031

  @DF-RHF Final Energy:  -679.95111727035430

   => Energetics <=

    Nuclear Repulsion Energy =            332.0466133787506919
    One-Electron Energy =               -1624.2797668537957634
    Two-Electron Energy =                 612.2820362046908258
    Total Energy =                       -679.9511172703543025
  Basis Set: (AUG-CC-PVTZ AUX)
    Blend: AUG-CC-PVTZ-RI
    Molecular point group: c1

    Geometry (in Angstrom), charge = -2, multiplicity = 1:

       Center              X                  Y                   Z               Mass
    ------------   -----------------  -----------------  -----------------  -----------------
         P            0.443467910814    -0.064144134210     0.010427517637    30.973761998420
         O           -1.006535289186     0.848115465790    -0.055744282363    15.994914619570
         O            1.459217910814     1.092415865790     0.017277517637    15.994914619570
         O            0.398767910814    -0.899464134210    -1.286872482363    15.994914619570
         O            0.423626610814    -0.916355234210     1.297391717637    15.994914619570
         C           -2.206702089186     0.040335865790     0.007587517637    12.000000000000
         H           -2.256352089186    -0.626604134210    -0.861992482363     1.007825032230
         H           -3.066772089186     0.718005865790    -0.015852482363     1.007825032230
         H           -2.267672089186    -0.579584134210     0.910577517637     1.007825032230

  Basis Set: AUG-CC-PVTZ
    Blend: AUG-CC-PVTZ
  Basis Set: (AUG-CC-PVTZ AUX)
    Blend: AUG-CC-PVTZ-JKFIT
	 Reference Energy          =    -679.9511172703543025 [Eh]
	 Singles Energy            =      -0.0000000000000000 [Eh]
	 Same-Spin Energy          =      -0.3807893047666775 [Eh]
	 Opposite-Spin Energy      =      -1.0902979165586961 [Eh]
	 Correlation Energy        =      -1.4710872213253736 [Eh]
	 Total Energy              =    -681.4222044916796222 [Eh]

	 ================> DF-SCS-MP2 Energies <==================
	-----------------------------------------------------------
	 SCS Same-Spin Scale       =       0.3333333333333333 [-]
	 SCS Opposite-Spin Scale   =       1.2000000000000000 [-]
	 SCS Same-Spin Energy      =      -0.1269297682555592 [Eh]
	 SCS Opposite-Spin Energy  =      -1.3083574998704353 [Eh]
	 SCS Correlation Energy    =      -1.4352872681259945 [Eh]
	 SCS Total Energy          =    -681.3864045384802921 [Eh]
	-----------------------------------------------------------

  Dipole Moment: [D]
     X:    -5.4043      Y:     0.6302      Z:     0.0911     Total:     5.4417

*** Psi4 exiting successfully. Buy a developer a beer!
