                               Psi4 1.3.2 release

  ==> Input File <==

--------------------------------------------------------------------------
#psi4
#
memory 32 gb

molecule  {
-2 1
  P        0.4529150    -0.0635710     0.0011530
  O       -1.0284095     0.8450132     0.0291759
  O        1.4686650     1.0929890     0.0080030
  O        0.4082150    -0.8988910    -1.2961470
  O        0.3848450    -0.8949310     1.3000530
  C       -2.1972550     0.0409090    -0.0016870
  H       -2.2805117    -0.6391553    -0.8584392
  H       -3.0573250     0.7185790    -0.0251270
  H       -2.2582250    -0.5790110     0.9013030
units angstrom
no_reorient  #important for SAPT in psi4, default
symmetry c1  #important for SAPT in psi4, default
}

set PROPERTIES_ORIGIN ["COM"]
properties('MP2/aug-cc-pvtz', properties = ['dipole'])
--------------------------------------------------------------------------

    Molecular point group: c1
  Charge       = -2
  Multiplicity = 1
  Basis Set: AUG-CC-PVTZ
    Blend: AUG-CC-PVTZ
  Basis Set: (AUG-CC-PVTZ AUX)
    Blend: AUG-CC-PVTZ-JKFIT

    Orbital Energies [Eh]
    ---------------------

    Doubly Occupied:

       1A    -79.657626     2A    -20.206753     3A    -20.104310
       4A    -20.101192     5A    -20.096952     6A    -10.970392
       7A     -7.172210     8A     -5.071682     9A     -5.069331
      10A     -5.069259    11A     -1.008203    12A     -0.909522
      13A     -0.842637    14A     -0.840120    15A     -0.609955
      16A     -0.366765    17A     -0.304761    18A     -0.288951
      19A     -0.254753    20A     -0.183528    21A     -0.177121
      22A     -0.159437    23A     -0.112759    24A     -0.078219
      25A     -0.076152    26A     -0.074852    27A     -0.038442
      28A     -0.036272    29A     -0.008515

  @DF-RHF Final Energy:  -679.95341413975302

   => Energetics <=

    Nuclear Repulsion Energy =            331.8126007493116845
    One-Electron Energy =               -1623.7506864152194339
    Two-Electron Energy =                 611.9846715261546706
    Total Energy =                       -679.9534141397530220
  Basis Set: (AUG-CC-PVTZ AUX)
    Blend: AUG-CC-PVTZ-RI
    Molecular point group: c1

    Geometry (in Angstrom), charge = -2, multiplicity = 1:

       Center              X                  Y                   Z               Mass
    ------------   -----------------  -----------------  -----------------  -----------------
         P            0.455345543154    -0.066521877786    -0.005125535166    30.973761998420
         O           -1.025978956846     0.842062322214     0.022897364834    15.994914619570
         O            1.471095543154     1.090038122214     0.001724464834    15.994914619570
         O            0.410645543154    -0.901841877786    -1.302425535166    15.994914619570
         O            0.387275543154    -0.897881877786     1.293774464834    15.994914619570
         C           -2.194824456846     0.037958122214    -0.007965535166    12.000000000000
         H           -2.278081156846    -0.642106177786    -0.864717735166     1.007825032230
         H           -3.054894456846     0.715628122214    -0.031405535166     1.007825032230
         H           -2.255794456846    -0.581961877786     0.895024464834     1.007825032230

  Basis Set: AUG-CC-PVTZ
    Blend: AUG-CC-PVTZ
  Basis Set: (AUG-CC-PVTZ AUX)
    Blend: AUG-CC-PVTZ-JKFIT
	 Reference Energy          =    -679.9534141397530220 [Eh]
	 Singles Energy            =      -0.0000000000000000 [Eh]
	 Same-Spin Energy          =      -0.3808178290317987 [Eh]
	 Opposite-Spin Energy      =      -1.0900890213300509 [Eh]
	 Correlation Energy        =      -1.4709068503618496 [Eh]
	 Total Energy              =    -681.4243209901148930 [Eh]

	 ================> DF-SCS-MP2 Energies <==================
	-----------------------------------------------------------
	 SCS Same-Spin Scale       =       0.3333333333333333 [-]
	 SCS Opposite-Spin Scale   =       1.2000000000000000 [-]
	 SCS Same-Spin Energy      =      -0.1269392763439329 [Eh]
	 SCS Opposite-Spin Energy  =      -1.3081068255960611 [Eh]
	 SCS Correlation Energy    =      -1.4350461019399940 [Eh]
	 SCS Total Energy          =    -681.3884602416929965 [Eh]
	-----------------------------------------------------------

  Dipole Moment: [D]
     X:    -5.0702      Y:     0.5738      Z:    -0.0657     Total:     5.1030

*** Psi4 exiting successfully. Buy a developer a beer!
