                               Psi4 1.3.2 release

  ==> Input File <==

--------------------------------------------------------------------------
#psi4
#
memory 32 gb

molecule  {
-2 1
  P        0.4829978    -0.0118481     0.0003710
  O       -1.0138150     0.8238990    -0.0131870
  O        1.4686650     1.0929890     0.0080030
  O        0.4082150    -0.8988910    -1.2961470
  O        0.3848450    -0.8949310     1.3000530
  C       -2.2238630     0.0826824    -0.0023423
  H       -2.2469050    -0.6260310    -0.8712670
  H       -3.0573250     0.7185790    -0.0251270
  H       -2.2582250    -0.5790110     0.9013030
units angstrom
no_reorient  #important for SAPT in psi4, default
symmetry c1  #important for SAPT in psi4, default
}

set PROPERTIES_ORIGIN ["COM"]
properties('MP2/aug-cc-pvtz', properties = ['dipole'])
--------------------------------------------------------------------------

    Molecular point group: c1
  Charge       = -2
  Multiplicity = 1
  Basis Set: AUG-CC-PVTZ
    Blend: AUG-CC-PVTZ
  Basis Set: (AUG-CC-PVTZ AUX)
    Blend: AUG-CC-PVTZ-JKFIT

    Orbital Energies [Eh]
    ---------------------

    Doubly Occupied:

       1A    -79.655078     2A    -20.203076     3A    -20.107561
       4A    -20.094821     5A    -20.094647     6A    -10.970509
       7A     -7.170166     8A     -5.069632     9A     -5.067656
      10A     -5.066910    11A     -1.009450    12A     -0.916524
      13A     -0.848177    14A     -0.823533    15A     -0.612947
      16A     -0.365183    17A     -0.308755    18A     -0.294964
      19A     -0.251870    20A     -0.185435    21A     -0.180864
      22A     -0.152557    23A     -0.107444    24A     -0.088685
      25A     -0.073748    26A     -0.067387    27A     -0.042646
      28A     -0.025770    29A     -0.004180

  @DF-RHF Final Energy:  -679.94793300370156

   => Energetics <=

    Nuclear Repulsion Energy =            332.0851616735990888
    One-Electron Energy =               -1624.3458387267123726
    Two-Electron Energy =                 612.3127440494117764
    Total Energy =                       -679.9479330037015643
  Basis Set: (AUG-CC-PVTZ AUX)
    Blend: AUG-CC-PVTZ-RI
    Molecular point group: c1

    Geometry (in Angstrom), charge = -2, multiplicity = 1:

       Center              X                  Y                   Z               Mass
    ------------   -----------------  -----------------  -----------------  -----------------
         P            0.477428581588    -0.030973654812     0.000662974255    30.973761998420
         O           -1.019384218412     0.804773445188    -0.012895025745    15.994914619570
         O            1.463095781588     1.073863445188     0.008294974255    15.994914619570
         O            0.402645781588    -0.918016554812    -1.295855025745    15.994914619570
         O            0.379275781588    -0.914056554812     1.300344974255    15.994914619570
         C           -2.229432218412     0.063556845188    -0.002050325745    12.000000000000
         H           -2.252474218412    -0.645156554812    -0.870975025745     1.007825032230
         H           -3.062894218412     0.699453445188    -0.024835025745     1.007825032230
         H           -2.263794218412    -0.598136554812     0.901594974255     1.007825032230

  Basis Set: AUG-CC-PVTZ
    Blend: AUG-CC-PVTZ
  Basis Set: (AUG-CC-PVTZ AUX)
    Blend: AUG-CC-PVTZ-JKFIT
	 Reference Energy          =    -679.9479330037015643 [Eh]
	 Singles Energy            =      -0.0000000000000000 [Eh]
	 Same-Spin Energy          =      -0.3805472716023769 [Eh]
	 Opposite-Spin Energy      =      -1.0892402212819314 [Eh]
	 Correlation Energy        =      -1.4697874928843082 [Eh]
	 Total Energy              =    -681.4177204965858436 [Eh]

	 ================> DF-SCS-MP2 Energies <==================
	-----------------------------------------------------------
	 SCS Same-Spin Scale       =       0.3333333333333333 [-]
	 SCS Opposite-Spin Scale   =       1.2000000000000000 [-]
	 SCS Same-Spin Energy      =      -0.1268490905341256 [Eh]
	 SCS Opposite-Spin Energy  =      -1.3070882655383176 [Eh]
	 SCS Correlation Energy    =      -1.4339373560724433 [Eh]
	 SCS Total Energy          =    -681.3818703597739841 [Eh]
	-----------------------------------------------------------

  Dipole Moment: [D]
     X:    -4.8348      Y:     1.4712      Z:    -0.0236     Total:     5.0537

*** Psi4 exiting successfully. Buy a developer a beer!
