                               Psi4 1.3.2 release

  ==> Input File <==

--------------------------------------------------------------------------
#psi4
#
memory 32 gb

molecule  {
-2 1
  P        0.4529150    -0.0635710     0.0011530
  O       -1.0177182     0.8175314    -0.0002238
  O        1.4686650     1.0929890     0.0080030
  O        0.4082150    -0.8988910    -1.2961470
  O        0.3727985    -0.8895589     1.3027902
  C       -2.1972550     0.0409090    -0.0016870
  H       -2.2469050    -0.6260310    -0.8712670
  H       -3.0573250     0.7185790    -0.0251270
  H       -2.2582250    -0.5790110     0.9013030
units angstrom
no_reorient  #important for SAPT in psi4, default
symmetry c1  #important for SAPT in psi4, default
}

set PROPERTIES_ORIGIN ["COM"]
properties('MP2/aug-cc-pvtz', properties = ['dipole'])
--------------------------------------------------------------------------

    Molecular point group: c1
  Charge       = -2
  Multiplicity = 1
  Basis Set: AUG-CC-PVTZ
    Blend: AUG-CC-PVTZ
  Basis Set: (AUG-CC-PVTZ AUX)
    Blend: AUG-CC-PVTZ-JKFIT

    Orbital Energies [Eh]
    ---------------------

    Doubly Occupied:

       1A    -79.655475     2A    -20.204622     3A    -20.101410
       4A    -20.100063     5A    -20.096520     6A    -10.970570
       7A     -7.170240     8A     -5.069763     9A     -5.067395
      10A     -5.067302    11A     -1.013652    12A     -0.908114
      13A     -0.841137    14A     -0.839512    15A     -0.610819
      16A     -0.368734    17A     -0.307594    18A     -0.295104
      19A     -0.253642    20A     -0.183621    21A     -0.177584
      22A     -0.156265    23A     -0.112372    24A     -0.077577
      25A     -0.074938    26A     -0.074381    27A     -0.037237
      28A     -0.034710    29A     -0.007390

  @DF-RHF Final Energy:  -679.95546586783951

   => Energetics <=

    Nuclear Repulsion Energy =            332.8454250193069583
    One-Electron Energy =               -1625.8462941967377446
    Two-Electron Energy =                 613.0454033095912791
    Total Energy =                       -679.9554658678395072
  Basis Set: (AUG-CC-PVTZ AUX)
    Blend: AUG-CC-PVTZ-RI
    Molecular point group: c1

    Geometry (in Angstrom), charge = -2, multiplicity = 1:

       Center              X                  Y                   Z               Mass
    ------------   -----------------  -----------------  -----------------  -----------------
         P            0.455234671092    -0.063426538861    -0.001130217907    30.973761998420
         O           -1.015398528908     0.817675861139    -0.002507017907    15.994914619570
         O            1.470984671092     1.093133461139     0.005719782093    15.994914619570
         O            0.410534671092    -0.898746538861    -1.298430217907    15.994914619570
         O            0.375118171092    -0.889414438861     1.300506982093    15.994914619570
         C           -2.194935328908     0.041053461139    -0.003970217907    12.000000000000
         H           -2.244585328908    -0.625886538861    -0.873550217907     1.007825032230
         H           -3.055005328908     0.718723461139    -0.027410217907     1.007825032230
         H           -2.255905328908    -0.578866538861     0.899019782093     1.007825032230

  Basis Set: AUG-CC-PVTZ
    Blend: AUG-CC-PVTZ
  Basis Set: (AUG-CC-PVTZ AUX)
    Blend: AUG-CC-PVTZ-JKFIT
	 Reference Energy          =    -679.9554658678395072 [Eh]
	 Singles Energy            =      -0.0000000000000000 [Eh]
	 Same-Spin Energy          =      -0.3805281487432057 [Eh]
	 Opposite-Spin Energy      =      -1.0891251626140903 [Eh]
	 Correlation Energy        =      -1.4696533113572960 [Eh]
	 Total Energy              =    -681.4251191791968267 [Eh]

	 ================> DF-SCS-MP2 Energies <==================
	-----------------------------------------------------------
	 SCS Same-Spin Scale       =       0.3333333333333333 [-]
	 SCS Opposite-Spin Scale   =       1.2000000000000000 [-]
	 SCS Same-Spin Energy      =      -0.1268427162477352 [Eh]
	 SCS Opposite-Spin Energy  =      -1.3069501951369082 [Eh]
	 SCS Correlation Energy    =      -1.4337929113846435 [Eh]
	 SCS Total Energy          =    -681.3892587792241784 [Eh]
	-----------------------------------------------------------

  Dipole Moment: [D]
     X:    -5.1410      Y:     0.6474      Z:    -0.0355     Total:     5.1818

*** Psi4 exiting successfully. Buy a developer a beer!
