                               Psi4 1.3.2 release

  ==> Input File <==

--------------------------------------------------------------------------
#psi4
#
memory 32 gb

molecule  {
-2 1
  P        0.4529150    -0.0635710     0.0011530
  O       -1.0138150     0.8238990    -0.0131870
  O        1.4686650     1.0929890     0.0080030
  O        0.4082150    -0.8988910    -1.2961470
  O        0.3848450    -0.8949310     1.3000530
  C       -2.2806510    -0.0142676    -0.0008766
  H       -2.2469050    -0.6260310    -0.8712670
  H       -3.0573250     0.7185790    -0.0251270
  H       -2.2582250    -0.5790110     0.9013030
units angstrom
no_reorient  #important for SAPT in psi4, default
symmetry c1  #important for SAPT in psi4, default
}

set PROPERTIES_ORIGIN ["COM"]
properties('MP2/aug-cc-pvtz', properties = ['dipole'])
--------------------------------------------------------------------------

    Molecular point group: c1
  Charge       = -2
  Multiplicity = 1
  Basis Set: AUG-CC-PVTZ
    Blend: AUG-CC-PVTZ
  Basis Set: (AUG-CC-PVTZ AUX)
    Blend: AUG-CC-PVTZ-JKFIT

    Orbital Energies [Eh]
    ---------------------

    Doubly Occupied:

       1A    -79.651419     2A    -20.201433     3A    -20.098171
       4A    -20.097999     5A    -20.093423     6A    -10.968936
       7A     -7.166148     8A     -5.065583     9A     -5.063364
      10A     -5.063286    11A     -0.984366    12A     -0.898690
      13A     -0.838292    14A     -0.836493    15A     -0.626283
      16A     -0.355543    17A     -0.314519    18A     -0.293099
      19A     -0.235520    20A     -0.184814    21A     -0.182734
      22A     -0.150817    23A     -0.116320    24A     -0.073882
      25A     -0.071984    26A     -0.071656    27A     -0.033009
      28A     -0.031071    29A     -0.004685

  @DF-RHF Final Energy:  -679.94287165433343

   => Energetics <=

    Nuclear Repulsion Energy =            330.7582178344108002
    One-Electron Energy =               -1621.8551081457246710
    Two-Electron Energy =                 611.1540186569804973
    Total Energy =                       -679.9428716543334303
  Basis Set: (AUG-CC-PVTZ AUX)
    Blend: AUG-CC-PVTZ-RI
    Molecular point group: c1

    Geometry (in Angstrom), charge = -2, multiplicity = 1:

       Center              X                  Y                   Z               Mass
    ------------   -----------------  -----------------  -----------------  -----------------
         P            0.462014621611    -0.057550793241     0.001064804568    30.973761998420
         O           -1.004715378389     0.829919206759    -0.013275195432    15.994914619570
         O            1.477764621611     1.099009206759     0.007914804568    15.994914619570
         O            0.417314621611    -0.892870793241    -1.296235195432    15.994914619570
         O            0.393944621611    -0.888910793241     1.299964804568    15.994914619570
         C           -2.271551378389    -0.008247393241    -0.000964795432    12.000000000000
         H           -2.237805378389    -0.620010793241    -0.871355195432     1.007825032230
         H           -3.048225378389     0.724599206759    -0.025215195432     1.007825032230
         H           -2.249125378389    -0.572990793241     0.901214804568     1.007825032230

  Basis Set: AUG-CC-PVTZ
    Blend: AUG-CC-PVTZ
  Basis Set: (AUG-CC-PVTZ AUX)
    Blend: AUG-CC-PVTZ-JKFIT
	 Reference Energy          =    -679.9428716543334303 [Eh]
	 Singles Energy            =      -0.0000000000000000 [Eh]
	 Same-Spin Energy          =      -0.3810524691271244 [Eh]
	 Opposite-Spin Energy      =      -1.0915495127537156 [Eh]
	 Correlation Energy        =      -1.4726019818808400 [Eh]
	 Total Energy              =    -681.4154736362143012 [Eh]

	 ================> DF-SCS-MP2 Energies <==================
	-----------------------------------------------------------
	 SCS Same-Spin Scale       =       0.3333333333333333 [-]
	 SCS Opposite-Spin Scale   =       1.2000000000000000 [-]
	 SCS Same-Spin Energy      =      -0.1270174897090415 [Eh]
	 SCS Opposite-Spin Energy  =      -1.3098594153044587 [Eh]
	 SCS Correlation Energy    =      -1.4368769050135002 [Eh]
	 SCS Total Energy          =    -681.3797485593469219 [Eh]
	-----------------------------------------------------------

  Dipole Moment: [D]
     X:    -5.5680      Y:     0.5090      Z:    -0.0075     Total:     5.5912

*** Psi4 exiting successfully. Buy a developer a beer!
