                               Psi4 1.3.2 release

  ==> Input File <==

--------------------------------------------------------------------------
#psi4
#
memory 32 gb

molecule  {
-2 1
  P        0.4529150    -0.0635710     0.0011530
  O       -1.0173291     0.8292680    -0.0025956
  O        1.4686650     1.0929890     0.0080030
  O        0.4082150    -0.8988910    -1.2961470
  O        0.3848450    -0.8949310     1.3000530
  C       -2.1972550     0.0409090    -0.0016870
  H       -2.2553140    -0.6293889    -0.8681588
  H       -3.0573250     0.7185790    -0.0251270
  H       -2.2582250    -0.5790110     0.9013030
units angstrom
no_reorient  #important for SAPT in psi4, default
symmetry c1  #important for SAPT in psi4, default
}

set PROPERTIES_ORIGIN ["COM"]
properties('MP2/aug-cc-pvtz', properties = ['dipole'])
--------------------------------------------------------------------------

    Molecular point group: c1
  Charge       = -2
  Multiplicity = 1
  Basis Set: AUG-CC-PVTZ
    Blend: AUG-CC-PVTZ
  Basis Set: (AUG-CC-PVTZ AUX)
    Blend: AUG-CC-PVTZ-JKFIT

    Orbital Energies [Eh]
    ---------------------

    Doubly Occupied:

       1A    -79.655772     2A    -20.206199     3A    -20.101467
       4A    -20.100793     5A    -20.095962     6A    -10.971358
       7A     -7.170505     8A     -5.070004     9A     -5.067648
      10A     -5.067573    11A     -1.011287    12A     -0.908119
      13A     -0.841229    14A     -0.839291    15A     -0.611423
      16A     -0.367887    17A     -0.306574    18A     -0.293115
      19A     -0.253659    20A     -0.183645    21A     -0.177686
      22A     -0.157354    23A     -0.113189    24A     -0.077415
      25A     -0.075305    26A     -0.074334    27A     -0.036991
      28A     -0.035090    29A     -0.007318

  @DF-RHF Final Energy:  -679.95481391277769

   => Energetics <=

    Nuclear Repulsion Energy =            332.4675853064165381
    One-Electron Energy =               -1625.0884202106656176
    Two-Electron Energy =                 612.6660209914713278
    Total Energy =                       -679.9548139127776949
  Basis Set: (AUG-CC-PVTZ AUX)
    Blend: AUG-CC-PVTZ-RI
    Molecular point group: c1

    Geometry (in Angstrom), charge = -2, multiplicity = 1:

       Center              X                  Y                   Z               Mass
    ------------   -----------------  -----------------  -----------------  -----------------
         P            0.453503111398    -0.064321412806    -0.000415654210    30.973761998420
         O           -1.016740988602     0.828517587194    -0.004164254210    15.994914619570
         O            1.469253111398     1.092238587194     0.006434345790    15.994914619570
         O            0.408803111398    -0.899641412806    -1.297715654210    15.994914619570
         O            0.385433111398    -0.895681412806     1.298484345790    15.994914619570
         C           -2.196666888602     0.040158587194    -0.003255654210    12.000000000000
         H           -2.254725888602    -0.630139312806    -0.869727454210     1.007825032230
         H           -3.056736888602     0.717828587194    -0.026695654210     1.007825032230
         H           -2.257636888602    -0.579761412806     0.899734345790     1.007825032230

  Basis Set: AUG-CC-PVTZ
    Blend: AUG-CC-PVTZ
  Basis Set: (AUG-CC-PVTZ AUX)
    Blend: AUG-CC-PVTZ-JKFIT
	 Reference Energy          =    -679.9548139127776949 [Eh]
	 Singles Energy            =      -0.0000000000000000 [Eh]
	 Same-Spin Energy          =      -0.3806148108352667 [Eh]
	 Opposite-Spin Energy      =      -1.0894912213519796 [Eh]
	 Correlation Energy        =      -1.4701060321872463 [Eh]
	 Total Energy              =    -681.4249199449649268 [Eh]

	 ================> DF-SCS-MP2 Energies <==================
	-----------------------------------------------------------
	 SCS Same-Spin Scale       =       0.3333333333333333 [-]
	 SCS Opposite-Spin Scale   =       1.2000000000000000 [-]
	 SCS Same-Spin Energy      =      -0.1268716036117555 [Eh]
	 SCS Opposite-Spin Energy  =      -1.3073894656223755 [Eh]
	 SCS Correlation Energy    =      -1.4342610692341311 [Eh]
	 SCS Total Energy          =    -681.3890749820118344 [Eh]
	-----------------------------------------------------------

  Dipole Moment: [D]
     X:    -5.1655      Y:     0.6261      Z:    -0.0241     Total:     5.2033

*** Psi4 exiting successfully. Buy a developer a beer!
