                               Psi4 1.3.2 release

  ==> Input File <==

--------------------------------------------------------------------------
#psi4
#
memory 32 gb

molecule  {
-2 1
  P        0.4529150    -0.0635710     0.0011530
  O       -1.1849239     0.9274314    -0.0148599
  O        1.4686650     1.0929890     0.0080030
  O        0.4082150    -0.8988910    -1.2961470
  O        0.3848450    -0.8949310     1.3000530
  C       -2.1972550     0.0409090    -0.0016870
  H       -2.2469050    -0.6260310    -0.8712670
  H       -3.0573250     0.7185790    -0.0251270
  H       -2.2582250    -0.5790110     0.9013030
units angstrom
no_reorient  #important for SAPT in psi4, default
symmetry c1  #important for SAPT in psi4, default
}

set PROPERTIES_ORIGIN ["COM"]
properties('MP2/aug-cc-pvtz', properties = ['dipole'])
--------------------------------------------------------------------------

    Molecular point group: c1
  Charge       = -2
  Multiplicity = 1
  Basis Set: AUG-CC-PVTZ
    Blend: AUG-CC-PVTZ
  Basis Set: (AUG-CC-PVTZ AUX)
    Blend: AUG-CC-PVTZ-JKFIT

    Orbital Energies [Eh]
    ---------------------

    Doubly Occupied:

       1A    -79.675079     2A    -20.194448     3A    -20.118449
       4A    -20.118288     5A    -20.111392     6A    -10.952231
       7A     -7.188977     8A     -5.088337     9A     -5.085743
      10A     -5.085738    11A     -1.005012    12A     -0.927659
      13A     -0.855408    14A     -0.852401    15A     -0.580902
      16A     -0.360961    17A     -0.302209    18A     -0.283144
      19A     -0.259312    20A     -0.187928    21A     -0.179483
      22A     -0.161714    23A     -0.095610    24A     -0.089787
      25A     -0.086737    26A     -0.070309    27A     -0.051665
      28A     -0.051278    29A     -0.021814

  @DF-RHF Final Energy:  -679.93801206740545

   => Energetics <=

    Nuclear Repulsion Energy =            327.5974358952889247
    One-Electron Energy =               -1614.9868683703095940
    Two-Electron Energy =                 607.4514204076151600
    Total Energy =                       -679.9380120674054524
  Basis Set: (AUG-CC-PVTZ AUX)
    Blend: AUG-CC-PVTZ-RI
    Molecular point group: c1

    Geometry (in Angstrom), charge = -2, multiplicity = 1:

       Center              X                  Y                   Z               Mass
    ------------   -----------------  -----------------  -----------------  -----------------
         P            0.477800848683    -0.078628957761     0.001396535087    30.973761998420
         O           -1.160038051317     0.912373442239    -0.014616364913    15.994914619570
         O            1.493550848683     1.077931042239     0.008246535087    15.994914619570
         O            0.433100848683    -0.913948957761    -1.295903464913    15.994914619570
         O            0.409730848683    -0.909988957761     1.300296535087    15.994914619570
         C           -2.172369151317     0.025851042239    -0.001443464913    12.000000000000
         H           -2.222019151317    -0.641088957761    -0.871023464913     1.007825032230
         H           -3.032439151317     0.703521042239    -0.024883464913     1.007825032230
         H           -2.233339151317    -0.594068957761     0.901546535087     1.007825032230

  Basis Set: AUG-CC-PVTZ
    Blend: AUG-CC-PVTZ
  Basis Set: (AUG-CC-PVTZ AUX)
    Blend: AUG-CC-PVTZ-JKFIT
	 Reference Energy          =    -679.9380120674054524 [Eh]
	 Singles Energy            =      -0.0000000000000000 [Eh]
	 Same-Spin Energy          =      -0.3823880440784200 [Eh]
	 Opposite-Spin Energy      =      -1.0935918879766826 [Eh]
	 Correlation Energy        =      -1.4759799320551026 [Eh]
	 Total Energy              =    -681.4139919994605634 [Eh]

	 ================> DF-SCS-MP2 Energies <==================
	-----------------------------------------------------------
	 SCS Same-Spin Scale       =       0.3333333333333333 [-]
	 SCS Opposite-Spin Scale   =       1.2000000000000000 [-]
	 SCS Same-Spin Energy      =      -0.1274626813594733 [Eh]
	 SCS Opposite-Spin Energy  =      -1.3123102655720191 [Eh]
	 SCS Correlation Energy    =      -1.4397729469314924 [Eh]
	 SCS Total Energy          =    -681.3777850143369506 [Eh]
	-----------------------------------------------------------

  Dipole Moment: [D]
     X:    -3.8916      Y:     0.2387      Z:    -0.0041     Total:     3.8989

*** Psi4 exiting successfully. Buy a developer a beer!
