                               Psi4 1.3.2 release

  ==> Input File <==

--------------------------------------------------------------------------
#psi4
#
memory 32 gb

molecule  {
-2 1
  P        0.4529150    -0.0635710     0.0011530
  O       -1.0438934     0.7721679    -0.0133594
  O        1.5084076     1.0568346     0.0084126
  O        0.4082150    -0.8988910    -1.2961470
  O        0.3848450    -0.8949310     1.3000530
  C       -2.1972550     0.0409090    -0.0016870
  H       -2.2469050    -0.6260310    -0.8712670
  H       -3.0573250     0.7185790    -0.0251270
  H       -2.2582250    -0.5790110     0.9013030
units angstrom
no_reorient  #important for SAPT in psi4, default
symmetry c1  #important for SAPT in psi4, default
}

set PROPERTIES_ORIGIN ["COM"]
properties('MP2/aug-cc-pvtz', properties = ['dipole'])
--------------------------------------------------------------------------

    Molecular point group: c1
  Charge       = -2
  Multiplicity = 1
  Basis Set: AUG-CC-PVTZ
    Blend: AUG-CC-PVTZ
  Basis Set: (AUG-CC-PVTZ AUX)
    Blend: AUG-CC-PVTZ-JKFIT

    Orbital Energies [Eh]
    ---------------------

    Doubly Occupied:

       1A    -79.657142     2A    -20.204432     3A    -20.100035
       4A    -20.098969     5A    -20.098822     6A    -10.968785
       7A     -7.171775     8A     -5.071282     9A     -5.068964
      10A     -5.068803    11A     -1.030122    12A     -0.911722
      13A     -0.840098    14A     -0.839689    15A     -0.609341
      16A     -0.378060    17A     -0.315782    18A     -0.306607
      19A     -0.255959    20A     -0.182080    21A     -0.177617
      22A     -0.153906    23A     -0.110804    24A     -0.079700
      25A     -0.074940    26A     -0.073706    27A     -0.038282
      28A     -0.033636    29A     -0.006708

  @DF-RHF Final Energy:  -679.95632470444139

   => Energetics <=

    Nuclear Repulsion Energy =            333.3644040685478558
    One-Electron Energy =               -1626.7859246354166771
    Two-Electron Energy =                 613.4651958624274357
    Total Energy =                       -679.9563247044413856
  Basis Set: (AUG-CC-PVTZ AUX)
    Blend: AUG-CC-PVTZ-RI
    Molecular point group: c1

    Geometry (in Angstrom), charge = -2, multiplicity = 1:

       Center              X                  Y                   Z               Mass
    ------------   -----------------  -----------------  -----------------  -----------------
         P            0.451509414605    -0.050789356078     0.001118732316    30.973761998420
         O           -1.045298985395     0.784949543922    -0.013393667684    15.994914619570
         O            1.507002014605     1.069616243922     0.008378332316    15.994914619570
         O            0.406809414605    -0.886109356078    -1.296181267684    15.994914619570
         O            0.383439414605    -0.882149356078     1.300018732316    15.994914619570
         C           -2.198660585395     0.053690643922    -0.001721267684    12.000000000000
         H           -2.248310585395    -0.613249356078    -0.871301267684     1.007825032230
         H           -3.058730585395     0.731360643922    -0.025161267684     1.007825032230
         H           -2.259630585395    -0.566229356078     0.901268732316     1.007825032230

  Basis Set: AUG-CC-PVTZ
    Blend: AUG-CC-PVTZ
  Basis Set: (AUG-CC-PVTZ AUX)
    Blend: AUG-CC-PVTZ-JKFIT
	 Reference Energy          =    -679.9563247044413856 [Eh]
	 Singles Energy            =      -0.0000000000000000 [Eh]
	 Same-Spin Energy          =      -0.3801484939303059 [Eh]
	 Opposite-Spin Energy      =      -1.0876345043280680 [Eh]
	 Correlation Energy        =      -1.4677829982583739 [Eh]
	 Total Energy              =    -681.4241077026997573 [Eh]

	 ================> DF-SCS-MP2 Energies <==================
	-----------------------------------------------------------
	 SCS Same-Spin Scale       =       0.3333333333333333 [-]
	 SCS Opposite-Spin Scale   =       1.2000000000000000 [-]
	 SCS Same-Spin Energy      =      -0.1267161646434353 [Eh]
	 SCS Opposite-Spin Energy  =      -1.3051614051936815 [Eh]
	 SCS Correlation Energy    =      -1.4318775698371169 [Eh]
	 SCS Total Energy          =    -681.3882022742784557 [Eh]
	-----------------------------------------------------------

  Dipole Moment: [D]
     X:    -5.1071      Y:     0.8462      Z:    -0.0116     Total:     5.1767

*** Psi4 exiting successfully. Buy a developer a beer!
