                               Psi4 1.3.2 release

  ==> Input File <==

--------------------------------------------------------------------------
#psi4
#
memory 32 gb

molecule  {
-2 1
  P        0.4529150    -0.0635710     0.0011530
  O       -0.9880610     0.8606684    -0.0909084
  O        1.4686650     1.0929890     0.0080030
  O        0.4082150    -0.8988910    -1.2961470
  O        0.4572008    -0.9258198     1.2815603
  C       -2.1972550     0.0409090    -0.0016870
  H       -2.2469050    -0.6260310    -0.8712670
  H       -3.0573250     0.7185790    -0.0251270
  H       -2.2582250    -0.5790110     0.9013030
units angstrom
no_reorient  #important for SAPT in psi4, default
symmetry c1  #important for SAPT in psi4, default
}

set PROPERTIES_ORIGIN ["COM"]
properties('MP2/aug-cc-pvtz', properties = ['dipole'])
--------------------------------------------------------------------------

    Molecular point group: c1
  Charge       = -2
  Multiplicity = 1
  Basis Set: AUG-CC-PVTZ
    Blend: AUG-CC-PVTZ
  Basis Set: (AUG-CC-PVTZ AUX)
    Blend: AUG-CC-PVTZ-JKFIT

    Orbital Energies [Eh]
    ---------------------

    Doubly Occupied:

       1A    -79.653558     2A    -20.213776     3A    -20.104149
       4A    -20.095270     5A    -20.090562     6A    -10.978192
       7A     -7.168475     8A     -5.067919     9A     -5.065652
      10A     -5.065518    11A     -1.004055    12A     -0.905058
      13A     -0.839222    14A     -0.835204    15A     -0.618347
      16A     -0.364896    17A     -0.306241    18A     -0.288742
      19A     -0.250801    20A     -0.183907    21A     -0.180948
      22A     -0.157774    23A     -0.118794    24A     -0.077393
      25A     -0.074724    26A     -0.070271    27A     -0.034395
      28A     -0.030891    29A     -0.004044

  @DF-RHF Final Energy:  -679.94789856392913

   => Energetics <=

    Nuclear Repulsion Energy =            331.7402939233876396
    One-Electron Energy =               -1623.6788250267684361
    Two-Electron Energy =                 611.9906325394515534
    Total Energy =                       -679.9478985639291295
  Basis Set: (AUG-CC-PVTZ AUX)
    Blend: AUG-CC-PVTZ-RI
    Molecular point group: c1

    Geometry (in Angstrom), charge = -2, multiplicity = 1:

       Center              X                  Y                   Z               Mass
    ------------   -----------------  -----------------  -----------------  -----------------
         P            0.438645987127    -0.064426591025     0.015146499697    30.973761998420
         O           -1.002330012873     0.859812808975    -0.076914900303    15.994914619570
         O            1.454395987127     1.092133408975     0.021996499697    15.994914619570
         O            0.393945987127    -0.899746591025    -1.282153500303    15.994914619570
         O            0.442931787127    -0.926675391025     1.295553799697    15.994914619570
         C           -2.211524012873     0.040053408975     0.012306499697    12.000000000000
         H           -2.261174012873    -0.626886591025    -0.857273500303     1.007825032230
         H           -3.071594012873     0.717723408975    -0.011133500303     1.007825032230
         H           -2.272494012873    -0.579866591025     0.915296499697     1.007825032230

  Basis Set: AUG-CC-PVTZ
    Blend: AUG-CC-PVTZ
  Basis Set: (AUG-CC-PVTZ AUX)
    Blend: AUG-CC-PVTZ-JKFIT
	 Reference Energy          =    -679.9478985639291295 [Eh]
	 Singles Energy            =      -0.0000000000000000 [Eh]
	 Same-Spin Energy          =      -0.3809672602408768 [Eh]
	 Opposite-Spin Energy      =      -1.0909246665763108 [Eh]
	 Correlation Energy        =      -1.4718919268171877 [Eh]
	 Total Energy              =    -681.4197904907463226 [Eh]

	 ================> DF-SCS-MP2 Energies <==================
	-----------------------------------------------------------
	 SCS Same-Spin Scale       =       0.3333333333333333 [-]
	 SCS Opposite-Spin Scale   =       1.2000000000000000 [-]
	 SCS Same-Spin Energy      =      -0.1269890867469589 [Eh]
	 SCS Opposite-Spin Energy  =      -1.3091095998915729 [Eh]
	 SCS Correlation Energy    =      -1.4360986866385319 [Eh]
	 SCS Total Energy          =    -681.3839972505676315 [Eh]
	-----------------------------------------------------------

  Dipole Moment: [D]
     X:    -5.5029      Y:     0.6247      Z:     0.1407     Total:     5.5401

*** Psi4 exiting successfully. Buy a developer a beer!
