                               Psi4 1.3.2 release

  ==> Input File <==

--------------------------------------------------------------------------
#psi4
#
memory 32 gb

molecule  {
-2 1
  P        0.4529150    -0.0635710     0.0011530
  O       -1.0287548     0.7980282     0.0386623
  O        1.4686650     1.0929890     0.0080030
  O        0.4082150    -0.8988910    -1.2961470
  O        0.3366993    -0.8730670     1.3104063
  C       -2.1972550     0.0409090    -0.0016870
  H       -2.2469050    -0.6260310    -0.8712670
  H       -3.0573250     0.7185790    -0.0251270
  H       -2.2582250    -0.5790110     0.9013030
units angstrom
no_reorient  #important for SAPT in psi4, default
symmetry c1  #important for SAPT in psi4, default
}

set PROPERTIES_ORIGIN ["COM"]
properties('MP2/aug-cc-pvtz', properties = ['dipole'])
--------------------------------------------------------------------------

    Molecular point group: c1
  Charge       = -2
  Multiplicity = 1
  Basis Set: AUG-CC-PVTZ
    Blend: AUG-CC-PVTZ
  Basis Set: (AUG-CC-PVTZ AUX)
    Blend: AUG-CC-PVTZ-JKFIT

    Orbital Energies [Eh]
    ---------------------

    Doubly Occupied:

       1A    -79.656417     2A    -20.200429     3A    -20.104075
       4A    -20.099112     5A    -20.098121     6A    -10.967286
       7A     -7.171129     8A     -5.070696     9A     -5.068303
      10A     -5.068146    11A     -1.017579    12A     -0.909434
      13A     -0.842592    14A     -0.840499    15A     -0.607573
      16A     -0.370125    17A     -0.308569    18A     -0.296971
      19A     -0.254700    20A     -0.183411    21A     -0.177098
      22A     -0.154690    23A     -0.109705    24A     -0.078967
      25A     -0.075639    26A     -0.073765    27A     -0.039384
      28A     -0.034253    29A     -0.008699

  @DF-RHF Final Energy:  -679.95541233787753

   => Energetics <=

    Nuclear Repulsion Energy =            333.3456594841258607
    One-Electron Energy =               -1626.8274126542821705
    Two-Electron Energy =                 613.5263408322787200
    Total Energy =                       -679.9554123378775330
  Basis Set: (AUG-CC-PVTZ AUX)
    Blend: AUG-CC-PVTZ-RI
    Molecular point group: c1

    Geometry (in Angstrom), charge = -2, multiplicity = 1:

       Center              X                  Y                   Z               Mass
    ------------   -----------------  -----------------  -----------------  -----------------
         P            0.462090048238    -0.062988578814    -0.007893444989    30.973761998420
         O           -1.019579751762     0.798610621186     0.029615855011    15.994914619570
         O            1.477840048238     1.093571421186    -0.001043444989    15.994914619570
         O            0.417390048238    -0.898308578814    -1.305193444989    15.994914619570
         O            0.345874348238    -0.872484578814     1.301359855011    15.994914619570
         C           -2.188079951762     0.041491421186    -0.010733444989    12.000000000000
         H           -2.237729951762    -0.625448578814    -0.880313444989     1.007825032230
         H           -3.048149951762     0.719161421186    -0.034173444989     1.007825032230
         H           -2.249049951762    -0.578428578814     0.892256555011     1.007825032230

  Basis Set: AUG-CC-PVTZ
    Blend: AUG-CC-PVTZ
  Basis Set: (AUG-CC-PVTZ AUX)
    Blend: AUG-CC-PVTZ-JKFIT
	 Reference Energy          =    -679.9554123378775330 [Eh]
	 Singles Energy            =      -0.0000000000000000 [Eh]
	 Same-Spin Energy          =      -0.3805043067088419 [Eh]
	 Opposite-Spin Energy      =      -1.0887010103830024 [Eh]
	 Correlation Energy        =      -1.4692053170918442 [Eh]
	 Total Energy              =    -681.4246176549693246 [Eh]

	 ================> DF-SCS-MP2 Energies <==================
	-----------------------------------------------------------
	 SCS Same-Spin Scale       =       0.3333333333333333 [-]
	 SCS Opposite-Spin Scale   =       1.2000000000000000 [-]
	 SCS Same-Spin Energy      =      -0.1268347689029473 [Eh]
	 SCS Opposite-Spin Energy  =      -1.3064412124596028 [Eh]
	 SCS Correlation Energy    =      -1.4332759813625500 [Eh]
	 SCS Total Energy          =    -681.3886883192400319 [Eh]
	-----------------------------------------------------------

  Dipole Moment: [D]
     X:    -4.9735      Y:     0.6600      Z:    -0.1128     Total:     5.0183

*** Psi4 exiting successfully. Buy a developer a beer!
