                               Psi4 1.3.2 release

  ==> Input File <==

--------------------------------------------------------------------------
#psi4
#
memory 32 gb

molecule  {
-2 1
  P        0.4606047    -0.0507392     0.0009591
  O       -1.0138150     0.8238990    -0.0131870
  O        1.4686650     1.0929890     0.0080030
  O        0.4082150    -0.8988910    -1.2961470
  O        0.3848450    -0.8949310     1.3000530
  C       -2.2040435     0.0512649    -0.0018495
  H       -2.2469050    -0.6260310    -0.8712670
  H       -3.0573250     0.7185790    -0.0251270
  H       -2.2582250    -0.5790110     0.9013030
units angstrom
no_reorient  #important for SAPT in psi4, default
symmetry c1  #important for SAPT in psi4, default
}

set PROPERTIES_ORIGIN ["COM"]
properties('MP2/aug-cc-pvtz', properties = ['dipole'])
--------------------------------------------------------------------------

    Molecular point group: c1
  Charge       = -2
  Multiplicity = 1
  Basis Set: AUG-CC-PVTZ
    Blend: AUG-CC-PVTZ
  Basis Set: (AUG-CC-PVTZ AUX)
    Blend: AUG-CC-PVTZ-JKFIT

    Orbital Energies [Eh]
    ---------------------

    Doubly Occupied:

       1A    -79.655180     2A    -20.205171     3A    -20.099119
       4A    -20.099040     5A    -20.098615     6A    -10.971248
       7A     -7.169953     8A     -5.069464     9A     -5.067181
      10A     -5.066953    11A     -1.011396    12A     -0.907934
      13A     -0.843090    14A     -0.836464    15A     -0.611965
      16A     -0.367462    17A     -0.304138    18A     -0.297770
      19A     -0.252547    20A     -0.182548    21A     -0.179580
      22A     -0.155718    23A     -0.111477    24A     -0.079585
      25A     -0.073953    26A     -0.073025    27A     -0.039168
      28A     -0.032330    29A     -0.006851

  @DF-RHF Final Energy:  -679.95482582246052

   => Energetics <=

    Nuclear Repulsion Energy =            332.5227324909605500
    One-Electron Energy =               -1625.2172690154181964
    Two-Electron Energy =                 612.7397107019970690
    Total Energy =                       -679.9548258224605206
  Basis Set: (AUG-CC-PVTZ AUX)
    Blend: AUG-CC-PVTZ-RI
    Molecular point group: c1

    Geometry (in Angstrom), charge = -2, multiplicity = 1:

       Center              X                  Y                   Z               Mass
    ------------   -----------------  -----------------  -----------------  -----------------
         P            0.459179666122    -0.055483428016     0.001031671176    30.973761998420
         O           -1.015240033878     0.819154771984    -0.013114428824    15.994914619570
         O            1.467239966122     1.088244771984     0.008075571176    15.994914619570
         O            0.406789966122    -0.903635228016    -1.296074428824    15.994914619570
         O            0.383419966122    -0.899675228016     1.300125571176    15.994914619570
         C           -2.205468533878     0.046520671984    -0.001776928824    12.000000000000
         H           -2.248330033878    -0.630775228016    -0.871194428824     1.007825032230
         H           -3.058750033878     0.713834771984    -0.025054428824     1.007825032230
         H           -2.259650033878    -0.583755228016     0.901375571176     1.007825032230

  Basis Set: AUG-CC-PVTZ
    Blend: AUG-CC-PVTZ
  Basis Set: (AUG-CC-PVTZ AUX)
    Blend: AUG-CC-PVTZ-JKFIT
	 Reference Energy          =    -679.9548258224605206 [Eh]
	 Singles Energy            =      -0.0000000000000000 [Eh]
	 Same-Spin Energy          =      -0.3805290631075531 [Eh]
	 Opposite-Spin Energy      =      -1.0892258642952615 [Eh]
	 Correlation Energy        =      -1.4697549274028145 [Eh]
	 Total Energy              =    -681.4245807498633667 [Eh]

	 ================> DF-SCS-MP2 Energies <==================
	-----------------------------------------------------------
	 SCS Same-Spin Scale       =       0.3333333333333333 [-]
	 SCS Opposite-Spin Scale   =       1.2000000000000000 [-]
	 SCS Same-Spin Energy      =      -0.1268430210358510 [Eh]
	 SCS Opposite-Spin Energy  =      -1.3070710371543137 [Eh]
	 SCS Correlation Energy    =      -1.4339140581901648 [Eh]
	 SCS Total Energy          =    -681.3887398806506326 [Eh]
	-----------------------------------------------------------

  Dipole Moment: [D]
     X:    -5.1045      Y:     0.8513      Z:    -0.0133     Total:     5.1750

*** Psi4 exiting successfully. Buy a developer a beer!
