                               Psi4 1.3.2 release

  ==> Input File <==

--------------------------------------------------------------------------
#psi4
#
memory 32 gb

molecule  {
0 1
  S       -0.8349460    -1.1774250     0.0297960
  N       -0.1696500     1.2952110    -0.2577190
  C        1.7075131    -0.2334922    -0.8706016
  C        0.3234810     0.0737960    -0.3165740
  C        2.6425650     0.1799470     0.6157020
  C       -2.0442290     0.0157050     0.2553730
  C       -1.5038950     1.2642780     0.0601800
  H        1.8995250    -1.2779630    -0.8129470
  H        2.0693290     0.3522120    -1.4641890
  H        2.5091790     1.2412210     0.8363590
  H        3.6994690    -0.0050250     0.4023620
  H        2.3648890    -0.3937430     1.5043860
  H       -3.0646880    -0.2455350     0.5019360
  H       -2.0550810     2.1952630     0.1367680
units angstrom
no_reorient  #important for SAPT in psi4, default
symmetry c1  #important for SAPT in psi4, default
}

set PROPERTIES_ORIGIN ["COM"]
properties('MP2/aug-cc-pvtz', properties = ['dipole'])
--------------------------------------------------------------------------

    Molecular point group: c1
  Charge       = 0
  Multiplicity = 1
  Basis Set: AUG-CC-PVTZ
    Blend: AUG-CC-PVTZ
  Basis Set: (AUG-CC-PVTZ AUX)
    Blend: AUG-CC-PVTZ-JKFIT

    Orbital Energies [Eh]
    ---------------------

    Doubly Occupied:

       1A    -91.992543     2A    -15.561420     3A    -11.317950
       4A    -11.268238     5A    -11.258752     6A    -11.246778
       7A    -11.238017     8A     -8.993411     9A     -6.674339
      10A     -6.673828    11A     -6.673076    12A     -1.272830
      13A     -1.061447    14A     -1.055323    15A     -0.962136
      16A     -0.884987    17A     -0.790513    18A     -0.744464
      19A     -0.682469    20A     -0.658532    21A     -0.580864
      22A     -0.568388    23A     -0.557456    24A     -0.542359
      25A     -0.522111    26A     -0.500527    27A     -0.449057
      28A     -0.422600    29A     -0.385862    30A     -0.318268

  @DF-RHF Final Energy:  -645.41425290237510

   => Energetics <=

    Nuclear Repulsion Energy =            348.9468782267451274
    One-Electron Energy =               -1577.0051740796511694
    Two-Electron Energy =                 582.6440429505308884
    Total Energy =                       -645.4142529023750967
  Basis Set: (AUG-CC-PVTZ AUX)
    Blend: AUG-CC-PVTZ-RI
    Molecular point group: c1

    Geometry (in Angstrom), charge = 0, multiplicity = 1:

       Center              X                  Y                   Z               Mass
    ------------   -----------------  -----------------  -----------------  -----------------
         S           -0.763419372729    -1.159518768305     0.070616576204    31.972071174400
         N           -0.098123372729     1.313117231695    -0.216898423796    14.003074004430
         C            1.779039727271    -0.215585968305    -0.829781023796    12.000000000000
         C            0.395007627271     0.091702231695    -0.275753423796    12.000000000000
         C            2.714091627271     0.197853231695     0.656522576204    12.000000000000
         C           -1.972702372729     0.033611231695     0.296193576204    12.000000000000
         C           -1.432368372729     1.282184231695     0.101000576204    12.000000000000
         H            1.971051627271    -1.260056768305    -0.772126423796     1.007825032230
         H            2.140855627271     0.370118231695    -1.423368423796     1.007825032230
         H            2.580705627271     1.259127231695     0.877179576204     1.007825032230
         H            3.770995627271     0.012881231695     0.443182576204     1.007825032230
         H            2.436415627271    -0.375836768305     1.545206576204     1.007825032230
         H           -2.993161372729    -0.227628768305     0.542756576204     1.007825032230
         H           -1.983554372729     2.213169231695     0.177588576204     1.007825032230

  Basis Set: AUG-CC-PVTZ
    Blend: AUG-CC-PVTZ
  Basis Set: (AUG-CC-PVTZ AUX)
    Blend: AUG-CC-PVTZ-JKFIT
	 Reference Energy          =    -645.4142529023750967 [Eh]
	 Singles Energy            =      -0.0000000000000000 [Eh]
	 Same-Spin Energy          =      -0.3328547717670770 [Eh]
	 Opposite-Spin Energy      =      -1.0431582848254930 [Eh]
	 Correlation Energy        =      -1.3760130565925699 [Eh]
	 Total Energy              =    -646.7902659589676659 [Eh]

	 ================> DF-SCS-MP2 Energies <==================
	-----------------------------------------------------------
	 SCS Same-Spin Scale       =       0.3333333333333333 [-]
	 SCS Opposite-Spin Scale   =       1.2000000000000000 [-]
	 SCS Same-Spin Energy      =      -0.1109515905890257 [Eh]
	 SCS Opposite-Spin Energy  =      -1.2517899417905916 [Eh]
	 SCS Correlation Energy    =      -1.3627415323796173 [Eh]
	 SCS Total Energy          =    -646.7769944347546698 [Eh]
	-----------------------------------------------------------

  Dipole Moment: [D]
     X:    -0.1992      Y:    -1.2571      Z:     0.2105     Total:     1.2900

*** Psi4 exiting successfully. Buy a developer a beer!
