                               Psi4 1.3.2 release

  ==> Input File <==

--------------------------------------------------------------------------
#psi4
#
memory 32 gb

molecule  {
0 1
  S       -0.8349460    -1.1774250     0.0297960
  N       -0.1696500     1.2952110    -0.2577190
  C        1.7694220    -0.2160770    -0.5775760
  C        0.3234810     0.0737960    -0.3165740
  C        2.6425650     0.1799470     0.6157020
  C       -2.0442290     0.0157050     0.2553730
  C       -1.5038950     1.2642780     0.0601800
  H        1.8995250    -1.2779630    -0.8129470
  H        2.0693290     0.3522120    -1.4641890
  H        2.5091790     1.2412210     0.8363590
  H        3.6994690    -0.0050250     0.4023620
  H        2.3648890    -0.3937430     1.5043860
  H       -3.0646880    -0.2455350     0.5019360
  H       -2.1009090     2.1844573    -0.0576106
units angstrom
no_reorient  #important for SAPT in psi4, default
symmetry c1  #important for SAPT in psi4, default
}

set PROPERTIES_ORIGIN ["COM"]
properties('MP2/aug-cc-pvtz', properties = ['dipole'])
--------------------------------------------------------------------------

    Molecular point group: c1
  Charge       = 0
  Multiplicity = 1
  Basis Set: AUG-CC-PVTZ
    Blend: AUG-CC-PVTZ
  Basis Set: (AUG-CC-PVTZ AUX)
    Blend: AUG-CC-PVTZ-JKFIT

    Orbital Energies [Eh]
    ---------------------

    Doubly Occupied:

       1A    -91.994591     2A    -15.565281     3A    -11.312843
       4A    -11.270675     5A    -11.261874     6A    -11.245814
       7A    -11.224163     8A     -8.995346     9A     -6.676245
      10A     -6.675735    11A     -6.675021    12A     -1.274946
      13A     -1.072248    14A     -1.061879    15A     -0.974620
      16A     -0.869946    17A     -0.791018    18A     -0.729010
      19A     -0.678447    20A     -0.629045    21A     -0.603237
      22A     -0.568921    23A     -0.556588    24A     -0.520504
      25A     -0.512136    26A     -0.501366    27A     -0.495899
      28A     -0.424971    29A     -0.387526    30A     -0.328604

  @DF-RHF Final Energy:  -645.48337880811721

   => Energetics <=

    Nuclear Repulsion Energy =            350.9250796971056729
    One-Electron Energy =               -1581.0599183006268049
    Two-Electron Energy =                 584.6514597954038663
    Total Energy =                       -645.4833788081172088
  Basis Set: (AUG-CC-PVTZ AUX)
    Blend: AUG-CC-PVTZ-RI
    Molecular point group: c1

    Geometry (in Angstrom), charge = 0, multiplicity = 1:

       Center              X                  Y                   Z               Mass
    ------------   -----------------  -----------------  -----------------  -----------------
         S           -0.769583406039    -1.161271332089     0.041240216658    31.972071174400
         N           -0.104287406039     1.311364667911    -0.246274783342    14.003074004430
         C            1.834784593961    -0.199923332089    -0.566131783342    12.000000000000
         C            0.388843593961     0.089949667911    -0.305129783342    12.000000000000
         C            2.707927593961     0.196100667911     0.627146216658    12.000000000000
         C           -1.978866406039     0.031858667911     0.266817216658    12.000000000000
         C           -1.438532406039     1.280431667911     0.071624216658    12.000000000000
         H            1.964887593961    -1.261809332089    -0.801502783342     1.007825032230
         H            2.134691593961     0.368365667911    -1.452744783342     1.007825032230
         H            2.574541593961     1.257374667911     0.847803216658     1.007825032230
         H            3.764831593961     0.011128667911     0.413806216658     1.007825032230
         H            2.430251593961    -0.377589332089     1.515830216658     1.007825032230
         H           -2.999325406039    -0.229381332089     0.513380216658     1.007825032230
         H           -2.035546406039     2.200610967911    -0.046166383342     1.007825032230

  Basis Set: AUG-CC-PVTZ
    Blend: AUG-CC-PVTZ
  Basis Set: (AUG-CC-PVTZ AUX)
    Blend: AUG-CC-PVTZ-JKFIT
	 Reference Energy          =    -645.4833788081172088 [Eh]
	 Singles Energy            =      -0.0000000000000000 [Eh]
	 Same-Spin Energy          =      -0.3324848312484294 [Eh]
	 Opposite-Spin Energy      =      -1.0400283426126973 [Eh]
	 Correlation Energy        =      -1.3725131738611267 [Eh]
	 Total Energy              =    -646.8558919819782886 [Eh]

	 ================> DF-SCS-MP2 Energies <==================
	-----------------------------------------------------------
	 SCS Same-Spin Scale       =       0.3333333333333333 [-]
	 SCS Opposite-Spin Scale   =       1.2000000000000000 [-]
	 SCS Same-Spin Energy      =      -0.1108282770828098 [Eh]
	 SCS Opposite-Spin Energy  =      -1.2480340111352366 [Eh]
	 SCS Correlation Energy    =      -1.3588622882180463 [Eh]
	 SCS Total Energy          =    -646.8422410963352149 [Eh]
	-----------------------------------------------------------

  Dipole Moment: [D]
     X:    -0.3482      Y:    -1.2886      Z:     0.1190     Total:     1.3401

*** Psi4 exiting successfully. Buy a developer a beer!
