                               Psi4 1.3.2 release

  ==> Input File <==

--------------------------------------------------------------------------
#psi4
#
memory 32 gb

molecule  {
0 1
  S       -0.8349460    -1.1774250     0.0297960
  N       -0.1696500     1.2952110    -0.2577190
  C        1.7694220    -0.2160770    -0.5775760
  C        0.3234810     0.0737960    -0.3165740
  C        2.6425650     0.1799470     0.6157020
  C       -2.0442290     0.0157050     0.2553730
  C       -1.5038950     1.2642780     0.0601800
  H        1.8995250    -1.2779630    -0.8129470
  H        2.0693290     0.3522120    -1.4641890
  H        2.5091790     1.2412210     0.8363590
  H        3.6994690    -0.0050250     0.4023620
  H        2.3648890    -0.3937430     1.5043860
  H       -3.0646880    -0.2455350     0.5019360
  H       -2.0550810     2.1952630     0.1367680
units angstrom
no_reorient  #important for SAPT in psi4, default
symmetry c1  #important for SAPT in psi4, default
}

set PROPERTIES_ORIGIN ["COM"]
properties('MP2/aug-cc-pvtz', properties = ['dipole'])
--------------------------------------------------------------------------

    Molecular point group: c1
  Charge       = 0
  Multiplicity = 1
  Basis Set: AUG-CC-PVTZ
    Blend: AUG-CC-PVTZ
  Basis Set: (AUG-CC-PVTZ AUX)
    Blend: AUG-CC-PVTZ-JKFIT

    Orbital Energies [Eh]
    ---------------------

    Doubly Occupied:

       1A    -91.994260     2A    -15.565168     3A    -11.312713
       4A    -11.269156     5A    -11.261225     6A    -11.245724
       7A    -11.224180     8A     -8.995015     9A     -6.675918
      10A     -6.675407    11A     -6.674692    12A     -1.274812
      13A     -1.072253    14A     -1.061597    15A     -0.975173
      16A     -0.870140    17A     -0.791901    18A     -0.729354
      19A     -0.680942    20A     -0.628978    21A     -0.602008
      22A     -0.572254    23A     -0.556112    24A     -0.518395
      25A     -0.512140    26A     -0.503733    27A     -0.496398
      28A     -0.424848    29A     -0.387467    30A     -0.328550

  @DF-RHF Final Energy:  -645.48598075440873

   => Energetics <=

    Nuclear Repulsion Energy =            351.0051574722680812
    One-Electron Energy =               -1581.2212476704441997
    Two-Electron Energy =                 584.7301094437673328
    Total Energy =                       -645.4859807544087289
  Basis Set: (AUG-CC-PVTZ AUX)
    Blend: AUG-CC-PVTZ-RI
    Molecular point group: c1

    Geometry (in Angstrom), charge = 0, multiplicity = 1:

       Center              X                  Y                   Z               Mass
    ------------   -----------------  -----------------  -----------------  -----------------
         S           -0.769992028866    -1.161367680515     0.039507050625    31.972071174400
         N           -0.104696028866     1.311268319485    -0.248007949375    14.003074004430
         C            1.834375971134    -0.200019680515    -0.567864949375    12.000000000000
         C            0.388434971134     0.089853319485    -0.306862949375    12.000000000000
         C            2.707518971134     0.196004319485     0.625413050625    12.000000000000
         C           -1.979275028866     0.031762319485     0.265084050625    12.000000000000
         C           -1.438941028866     1.280335319485     0.069891050625    12.000000000000
         H            1.964478971134    -1.261905680515    -0.803235949375     1.007825032230
         H            2.134282971134     0.368269319485    -1.454477949375     1.007825032230
         H            2.574132971134     1.257278319485     0.846070050625     1.007825032230
         H            3.764422971134     0.011032319485     0.412073050625     1.007825032230
         H            2.429842971134    -0.377685680515     1.514097050625     1.007825032230
         H           -2.999734028866    -0.229477680515     0.511647050625     1.007825032230
         H           -1.990127028866     2.211320319485     0.146479050625     1.007825032230

  Basis Set: AUG-CC-PVTZ
    Blend: AUG-CC-PVTZ
  Basis Set: (AUG-CC-PVTZ AUX)
    Blend: AUG-CC-PVTZ-JKFIT
	 Reference Energy          =    -645.4859807544087289 [Eh]
	 Singles Energy            =      -0.0000000000000000 [Eh]
	 Same-Spin Energy          =      -0.3323255581848141 [Eh]
	 Opposite-Spin Energy      =      -1.0396975855828046 [Eh]
	 Correlation Energy        =      -1.3720231437676187 [Eh]
	 Total Energy              =    -646.8580038981763209 [Eh]

	 ================> DF-SCS-MP2 Energies <==================
	-----------------------------------------------------------
	 SCS Same-Spin Scale       =       0.3333333333333333 [-]
	 SCS Opposite-Spin Scale   =       1.2000000000000000 [-]
	 SCS Same-Spin Energy      =      -0.1107751860616047 [Eh]
	 SCS Opposite-Spin Energy  =      -1.2476371026993653 [Eh]
	 SCS Correlation Energy    =      -1.3584122887609700 [Eh]
	 SCS Total Energy          =    -646.8443930431697027 [Eh]
	-----------------------------------------------------------

  Dipole Moment: [D]
     X:    -0.3325      Y:    -1.2525      Z:     0.2665     Total:     1.3230

*** Psi4 exiting successfully. Buy a developer a beer!
