                               Psi4 1.3.2 release

  ==> Input File <==

--------------------------------------------------------------------------
#psi4
#
memory 32 gb

molecule  {
0 1
  S       -0.8349460    -1.1774250     0.0297960
  N       -0.1696500     1.2952110    -0.2577190
  C        1.7694220    -0.2160770    -0.5775760
  C        0.3234810     0.0737960    -0.3165740
  C        2.6425650     0.1799470     0.6157020
  C       -2.0442290     0.0157050     0.2553730
  C       -1.5038950     1.2642780     0.0601800
  H        1.8995250    -1.2779630    -0.8129470
  H        2.0693290     0.3522120    -1.4641890
  H        2.5091790     1.2412210     0.8363590
  H        3.6994690    -0.0050250     0.4023620
  H        2.3648890    -0.3937430     1.5043860
  H       -3.0420009    -0.2405298     0.5991998
  H       -2.0550810     2.1952630     0.1367680
units angstrom
no_reorient  #important for SAPT in psi4, default
symmetry c1  #important for SAPT in psi4, default
}

set PROPERTIES_ORIGIN ["COM"]
properties('MP2/aug-cc-pvtz', properties = ['dipole'])
--------------------------------------------------------------------------

    Molecular point group: c1
  Charge       = 0
  Multiplicity = 1
  Basis Set: AUG-CC-PVTZ
    Blend: AUG-CC-PVTZ
  Basis Set: (AUG-CC-PVTZ AUX)
    Blend: AUG-CC-PVTZ-JKFIT

    Orbital Energies [Eh]
    ---------------------

    Doubly Occupied:

       1A    -91.994244     2A    -15.565204     3A    -11.312806
       4A    -11.269281     5A    -11.261508     6A    -11.245754
       7A    -11.224336     8A     -8.995002     9A     -6.675904
      10A     -6.675392    11A     -6.674677    12A     -1.274872
      13A     -1.072288    14A     -1.061535    15A     -0.975179
      16A     -0.870173    17A     -0.791480    18A     -0.729287
      19A     -0.680667    20A     -0.629092    21A     -0.601381
      22A     -0.571012    23A     -0.558210    24A     -0.517062
      25A     -0.512380    26A     -0.503956    27A     -0.496552
      28A     -0.424880    29A     -0.387450    30A     -0.328524

  @DF-RHF Final Energy:  -645.48551043428768

   => Energetics <=

    Nuclear Repulsion Energy =            350.9918300950267849
    One-Electron Energy =               -1581.1945065454638097
    Two-Electron Energy =                 584.7171660161494628
    Total Energy =                       -645.4855104342876757
  Basis Set: (AUG-CC-PVTZ AUX)
    Blend: AUG-CC-PVTZ-RI
    Molecular point group: c1

    Geometry (in Angstrom), charge = 0, multiplicity = 1:

       Center              X                  Y                   Z               Mass
    ------------   -----------------  -----------------  -----------------  -----------------
         S           -0.770194317138    -1.161412309104     0.038639803333    31.972071174400
         N           -0.104898317138     1.311223690896    -0.248875196667    14.003074004430
         C            1.834173682862    -0.200064309104    -0.568732196667    12.000000000000
         C            0.388232682862     0.089808690896    -0.307730196667    12.000000000000
         C            2.707316682862     0.195959690896     0.624545803333    12.000000000000
         C           -1.979477317138     0.031717690896     0.264216803333    12.000000000000
         C           -1.439143317138     1.280290690896     0.069023803333    12.000000000000
         H            1.964276682862    -1.261950309104    -0.804103196667     1.007825032230
         H            2.134080682862     0.368224690896    -1.455345196667     1.007825032230
         H            2.573930682862     1.257233690896     0.845202803333     1.007825032230
         H            3.764220682862     0.010987690896     0.411205803333     1.007825032230
         H            2.429640682862    -0.377730309104     1.513229803333     1.007825032230
         H           -2.977249217138    -0.224517109104     0.608043603333     1.007825032230
         H           -1.990329317138     2.211275690896     0.145611803333     1.007825032230

  Basis Set: AUG-CC-PVTZ
    Blend: AUG-CC-PVTZ
  Basis Set: (AUG-CC-PVTZ AUX)
    Blend: AUG-CC-PVTZ-JKFIT
	 Reference Energy          =    -645.4855104342876757 [Eh]
	 Singles Energy            =      -0.0000000000000000 [Eh]
	 Same-Spin Energy          =      -0.3323515100504186 [Eh]
	 Opposite-Spin Energy      =      -1.0397531621989020 [Eh]
	 Correlation Energy        =      -1.3721046722493206 [Eh]
	 Total Energy              =    -646.8576151065369686 [Eh]

	 ================> DF-SCS-MP2 Energies <==================
	-----------------------------------------------------------
	 SCS Same-Spin Scale       =       0.3333333333333333 [-]
	 SCS Opposite-Spin Scale   =       1.2000000000000000 [-]
	 SCS Same-Spin Energy      =      -0.1107838366834729 [Eh]
	 SCS Opposite-Spin Energy  =      -1.2477037946386824 [Eh]
	 SCS Correlation Energy    =      -1.3584876313221552 [Eh]
	 SCS Total Energy          =    -646.8439980656098669 [Eh]
	-----------------------------------------------------------

  Dipole Moment: [D]
     X:    -0.3071      Y:    -1.2470      Z:     0.3462     Total:     1.3301

*** Psi4 exiting successfully. Buy a developer a beer!
