                               Psi4 1.3.2 release

  ==> Input File <==

--------------------------------------------------------------------------
#psi4
#
memory 32 gb

molecule  {
0 1
  S       -0.8349460    -1.1774250     0.0297960
  N       -0.1696500     1.2952110    -0.2577190
  C        1.7694220    -0.2160770    -0.5775760
  C        0.3234810     0.0737960    -0.3165740
  C        2.6425650     0.1799470     0.6157020
  C       -2.0442290     0.0157050     0.2553730
  C       -1.5038950     1.2642780     0.0601800
  H        1.8995250    -1.2779630    -0.8129470
  H        2.0693290     0.3522120    -1.4641890
  H        2.5091790     1.2412210     0.8363590
  H        3.6994690    -0.0050250     0.4023620
  H        2.3648890    -0.3937430     1.5043860
  H       -3.0646880    -0.2455350     0.5019360
  H       -2.1238230     2.1790545    -0.1547999
units angstrom
no_reorient  #important for SAPT in psi4, default
symmetry c1  #important for SAPT in psi4, default
}

set PROPERTIES_ORIGIN ["COM"]
properties('MP2/aug-cc-pvtz', properties = ['dipole'])
--------------------------------------------------------------------------

    Molecular point group: c1
  Charge       = 0
  Multiplicity = 1
  Basis Set: AUG-CC-PVTZ
    Blend: AUG-CC-PVTZ
  Basis Set: (AUG-CC-PVTZ AUX)
    Blend: AUG-CC-PVTZ-JKFIT

    Orbital Energies [Eh]
    ---------------------

    Doubly Occupied:

       1A    -91.994967     2A    -15.565448     3A    -11.313020
       4A    -11.272515     5A    -11.262613     6A    -11.245938
       7A    -11.224220     8A     -8.995724     9A     -6.676619
      10A     -6.676110    11A     -6.675397    12A     -1.275122
      13A     -1.072277    14A     -1.062215    15A     -0.974039
      16A     -0.869766    17A     -0.790070    18A     -0.728735
      19A     -0.675742    20A     -0.628820    21A     -0.603566
      22A     -0.567202    23A     -0.556613    24A     -0.521573
      25A     -0.512257    26A     -0.500367    27A     -0.494369
      28A     -0.425136    29A     -0.387596    30A     -0.328627

  @DF-RHF Final Energy:  -645.47977509171847

   => Energetics <=

    Nuclear Repulsion Energy =            350.8364347190358217
    One-Electron Energy =               -1580.8790964257561882
    Two-Electron Energy =                 584.5628866150018439
    Total Energy =                       -645.4797750917184658
  Basis Set: (AUG-CC-PVTZ AUX)
    Blend: AUG-CC-PVTZ-RI
    Molecular point group: c1

    Geometry (in Angstrom), charge = 0, multiplicity = 1:

       Center              X                  Y                   Z               Mass
    ------------   -----------------  -----------------  -----------------  -----------------
         S           -0.769379094626    -1.161223158322     0.042106799675    31.972071174400
         N           -0.104083094626     1.311412841678    -0.245408200325    14.003074004430
         C            1.834988905374    -0.199875158322    -0.565265200325    12.000000000000
         C            0.389047905374     0.089997841678    -0.304263200325    12.000000000000
         C            2.708131905374     0.196148841678     0.628012799675    12.000000000000
         C           -1.978662094626     0.031906841678     0.267683799675    12.000000000000
         C           -1.438328094626     1.280479841678     0.072490799675    12.000000000000
         H            1.965091905374    -1.261761158322    -0.800636200325     1.007825032230
         H            2.134895905374     0.368413841678    -1.451878200325     1.007825032230
         H            2.574745905374     1.257422841678     0.848669799675     1.007825032230
         H            3.765035905374     0.011176841678     0.414672799675     1.007825032230
         H            2.430455905374    -0.377541158322     1.516696799675     1.007825032230
         H           -2.999121094626    -0.229333158322     0.514246799675     1.007825032230
         H           -2.058256094626     2.195256341678    -0.142489100325     1.007825032230

  Basis Set: AUG-CC-PVTZ
    Blend: AUG-CC-PVTZ
  Basis Set: (AUG-CC-PVTZ AUX)
    Blend: AUG-CC-PVTZ-JKFIT
	 Reference Energy          =    -645.4797750917184658 [Eh]
	 Singles Energy            =      -0.0000000000000000 [Eh]
	 Same-Spin Energy          =      -0.3326728040401468 [Eh]
	 Opposite-Spin Energy      =      -1.0404850934210215 [Eh]
	 Correlation Energy        =      -1.3731578974611682 [Eh]
	 Total Energy              =    -646.8529329891796351 [Eh]

	 ================> DF-SCS-MP2 Energies <==================
	-----------------------------------------------------------
	 SCS Same-Spin Scale       =       0.3333333333333333 [-]
	 SCS Opposite-Spin Scale   =       1.2000000000000000 [-]
	 SCS Same-Spin Energy      =      -0.1108909346800489 [Eh]
	 SCS Opposite-Spin Energy  =      -1.2485821121052256 [Eh]
	 SCS Correlation Energy    =      -1.3594730467852745 [Eh]
	 SCS Total Energy          =    -646.8392481385037627 [Eh]
	-----------------------------------------------------------

  Dipole Moment: [D]
     X:    -0.3411      Y:    -1.3257      Z:     0.0461     Total:     1.3696

*** Psi4 exiting successfully. Buy a developer a beer!
