                               Psi4 1.3.2 release

  ==> Input File <==

--------------------------------------------------------------------------
#psi4
#
memory 32 gb

molecule  {
0 1
  S       -0.8349460    -1.1774250     0.0297960
  N       -0.1696500     1.2952110    -0.2577190
  C        1.7591039    -0.2189795    -0.6264136
  C        0.3234810     0.0737960    -0.3165740
  C        2.6425650     0.1799470     0.6157020
  C       -2.0442290     0.0157050     0.2553730
  C       -1.5038950     1.2642780     0.0601800
  H        1.8995250    -1.2779630    -0.8129470
  H        2.0693290     0.3522120    -1.4641890
  H        2.5091790     1.2412210     0.8363590
  H        3.6994690    -0.0050250     0.4023620
  H        2.3648890    -0.3937430     1.5043860
  H       -3.0646880    -0.2455350     0.5019360
  H       -2.0550810     2.1952630     0.1367680
units angstrom
no_reorient  #important for SAPT in psi4, default
symmetry c1  #important for SAPT in psi4, default
}

set PROPERTIES_ORIGIN ["COM"]
properties('MP2/aug-cc-pvtz', properties = ['dipole'])
--------------------------------------------------------------------------

    Molecular point group: c1
  Charge       = 0
  Multiplicity = 1
  Basis Set: AUG-CC-PVTZ
    Blend: AUG-CC-PVTZ
  Basis Set: (AUG-CC-PVTZ AUX)
    Blend: AUG-CC-PVTZ-JKFIT

    Orbital Energies [Eh]
    ---------------------

    Doubly Occupied:

       1A    -91.993985     2A    -15.564639     3A    -11.312958
       4A    -11.268966     5A    -11.260817     6A    -11.244215
       7A    -11.226442     8A     -8.994751     9A     -6.675659
      10A     -6.675149    11A     -6.674430    12A     -1.274502
      13A     -1.068671    14A     -1.061137    15A     -0.971984
      16A     -0.872590    17A     -0.791781    18A     -0.731282
      19A     -0.681041    20A     -0.632750    21A     -0.597819
      22A     -0.570674    23A     -0.555675    24A     -0.515710
      25A     -0.511330    26A     -0.507207    27A     -0.498395
      28A     -0.424662    29A     -0.387295    30A     -0.327568

  @DF-RHF Final Energy:  -645.48434575009207

   => Energetics <=

    Nuclear Repulsion Energy =            350.6895791034851300
    One-Electron Energy =               -1580.5996823257316919
    Two-Electron Energy =                 584.4257574721544870
    Total Energy =                       -645.4843457500920749
  Basis Set: (AUG-CC-PVTZ AUX)
    Blend: AUG-CC-PVTZ-RI
    Molecular point group: c1

    Geometry (in Angstrom), charge = 0, multiplicity = 1:

       Center              X                  Y                   Z               Mass
    ------------   -----------------  -----------------  -----------------  -----------------
         S           -0.768896591485    -1.161059532019     0.044691971555    31.972071174400
         N           -0.103600591485     1.311576467981    -0.242823028445    14.003074004430
         C            1.825153308515    -0.202614032019    -0.611517628445    12.000000000000
         C            0.389530408515     0.090161467981    -0.301678028445    12.000000000000
         C            2.708614408515     0.196312467981     0.630597971555    12.000000000000
         C           -1.978179591485     0.032070467981     0.270268971555    12.000000000000
         C           -1.437845591485     1.280643467981     0.075075971555    12.000000000000
         H            1.965574408515    -1.261597532019    -0.798051028445     1.007825032230
         H            2.135378408515     0.368577467981    -1.449293028445     1.007825032230
         H            2.575228408515     1.257586467981     0.851254971555     1.007825032230
         H            3.765518408515     0.011340467981     0.417257971555     1.007825032230
         H            2.430938408515    -0.377377532019     1.519281971555     1.007825032230
         H           -2.998638591485    -0.229169532019     0.516831971555     1.007825032230
         H           -1.989031591485     2.211628467981     0.151663971555     1.007825032230

  Basis Set: AUG-CC-PVTZ
    Blend: AUG-CC-PVTZ
  Basis Set: (AUG-CC-PVTZ AUX)
    Blend: AUG-CC-PVTZ-JKFIT
	 Reference Energy          =    -645.4843457500920749 [Eh]
	 Singles Energy            =      -0.0000000000000000 [Eh]
	 Same-Spin Energy          =      -0.3320992548324618 [Eh]
	 Opposite-Spin Energy      =      -1.0395343472867982 [Eh]
	 Correlation Energy        =      -1.3716336021192599 [Eh]
	 Total Energy              =    -646.8559793522113068 [Eh]

	 ================> DF-SCS-MP2 Energies <==================
	-----------------------------------------------------------
	 SCS Same-Spin Scale       =       0.3333333333333333 [-]
	 SCS Opposite-Spin Scale   =       1.2000000000000000 [-]
	 SCS Same-Spin Energy      =      -0.1106997516108206 [Eh]
	 SCS Opposite-Spin Energy  =      -1.2474412167441578 [Eh]
	 SCS Correlation Energy    =      -1.3581409683549783 [Eh]
	 SCS Total Energy          =    -646.8424867184470486 [Eh]
	-----------------------------------------------------------

  Dipole Moment: [D]
     X:    -0.3161      Y:    -1.2573      Z:     0.2407     Total:     1.3185

*** Psi4 exiting successfully. Buy a developer a beer!
