                               Psi4 1.3.2 release

  ==> Input File <==

--------------------------------------------------------------------------
#psi4
#
memory 32 gb

molecule  {
0 1
  S       -0.8349460    -1.1774250     0.0297960
  N       -0.1696500     1.2952110    -0.2577190
  C        1.7694220    -0.2160770    -0.5775760
  C        0.3234810     0.0737960    -0.3165740
  C        2.6425650     0.1799470     0.6157020
  C       -2.0442290     0.0157050     0.2553730
  C       -1.5038950     1.2642780     0.0601800
  H        1.8995250    -1.2779630    -0.8129470
  H        2.0693290     0.3522120    -1.4641890
  H        2.5091790     1.2412210     0.8363590
  H        3.6994690    -0.0050250     0.4023620
  H        2.3648890    -0.3937430     1.5043860
  H       -3.0079702    -0.2330219     0.7450954
  H       -2.0550810     2.1952630     0.1367680
units angstrom
no_reorient  #important for SAPT in psi4, default
symmetry c1  #important for SAPT in psi4, default
}

set PROPERTIES_ORIGIN ["COM"]
properties('MP2/aug-cc-pvtz', properties = ['dipole'])
--------------------------------------------------------------------------

    Molecular point group: c1
  Charge       = 0
  Multiplicity = 1
  Basis Set: AUG-CC-PVTZ
    Blend: AUG-CC-PVTZ
  Basis Set: (AUG-CC-PVTZ AUX)
    Blend: AUG-CC-PVTZ-JKFIT

    Orbital Energies [Eh]
    ---------------------

    Doubly Occupied:

       1A    -91.994139     2A    -15.565473     3A    -11.313363
       4A    -11.270091     5A    -11.263019     6A    -11.245977
       7A    -11.224741     8A     -8.994917     9A     -6.675817
      10A     -6.675294    11A     -6.674584    12A     -1.275263
      13A     -1.072477    14A     -1.061209    15A     -0.975181
      16A     -0.870294    17A     -0.789302    18A     -0.729020
      19A     -0.678933    20A     -0.628708    21A     -0.600390
      22A     -0.568771    23A     -0.560607    24A     -0.515097
      25A     -0.512485    26A     -0.504360    27A     -0.496545
      28A     -0.425094    29A     -0.387440    30A     -0.328591

  @DF-RHF Final Energy:  -645.48262973462295

   => Energetics <=

    Nuclear Repulsion Energy =            350.9068556690716036
    One-Electron Energy =               -1581.0246066515248913
    Two-Electron Energy =                 584.6351212478303978
    Total Energy =                       -645.4826297346229467
  Basis Set: (AUG-CC-PVTZ AUX)
    Blend: AUG-CC-PVTZ-RI
    Molecular point group: c1

    Geometry (in Angstrom), charge = 0, multiplicity = 1:

       Center              X                  Y                   Z               Mass
    ------------   -----------------  -----------------  -----------------  -----------------
         S           -0.770497749992    -1.161479252879     0.037338933287    31.972071174400
         N           -0.105201749992     1.311156747121    -0.250176066713    14.003074004430
         C            1.833870250008    -0.200131252879    -0.570033066713    12.000000000000
         C            0.387929250008     0.089741747121    -0.309031066713    12.000000000000
         C            2.707013250008     0.195892747121     0.623244933287    12.000000000000
         C           -1.979780749992     0.031650747121     0.262915933287    12.000000000000
         C           -1.439446749992     1.280223747121     0.067722933287    12.000000000000
         H            1.963973250008    -1.262017252879    -0.805404066713     1.007825032230
         H            2.133777250008     0.368157747121    -1.456646066713     1.007825032230
         H            2.573627250008     1.257166747121     0.843901933287     1.007825032230
         H            3.763917250008     0.010920747121     0.409904933287     1.007825032230
         H            2.429337250008    -0.377797252879     1.511928933287     1.007825032230
         H           -2.943521949992    -0.217076152879     0.752638333287     1.007825032230
         H           -1.990632749992     2.211208747121     0.144310933287     1.007825032230

  Basis Set: AUG-CC-PVTZ
    Blend: AUG-CC-PVTZ
  Basis Set: (AUG-CC-PVTZ AUX)
    Blend: AUG-CC-PVTZ-JKFIT
	 Reference Energy          =    -645.4826297346229467 [Eh]
	 Singles Energy            =      -0.0000000000000000 [Eh]
	 Same-Spin Energy          =      -0.3324996215459912 [Eh]
	 Opposite-Spin Energy      =      -1.0400728195986018 [Eh]
	 Correlation Energy        =      -1.3725724411445930 [Eh]
	 Total Energy              =    -646.8552021757675448 [Eh]

	 ================> DF-SCS-MP2 Energies <==================
	-----------------------------------------------------------
	 SCS Same-Spin Scale       =       0.3333333333333333 [-]
	 SCS Opposite-Spin Scale   =       1.2000000000000000 [-]
	 SCS Same-Spin Energy      =      -0.1108332071819971 [Eh]
	 SCS Opposite-Spin Energy  =      -1.2480873835183222 [Eh]
	 SCS Correlation Energy    =      -1.3589205907003192 [Eh]
	 SCS Total Energy          =    -646.8415503253232828 [Eh]
	-----------------------------------------------------------

  Dipole Moment: [D]
     X:    -0.2428      Y:    -1.2292      Z:     0.4574     Total:     1.3338

*** Psi4 exiting successfully. Buy a developer a beer!
