                               Psi4 1.3.2 release

  ==> Input File <==

--------------------------------------------------------------------------
#psi4
#
memory 32 gb

molecule  {
0 1
  S       -0.8349460    -1.1774250     0.0297960
  N       -0.1696500     1.2952110    -0.2577190
  C        1.7281494    -0.2276872    -0.7729264
  C        0.3234810     0.0737960    -0.3165740
  C        2.6425650     0.1799470     0.6157020
  C       -2.0442290     0.0157050     0.2553730
  C       -1.5038950     1.2642780     0.0601800
  H        1.8995250    -1.2779630    -0.8129470
  H        2.0693290     0.3522120    -1.4641890
  H        2.5091790     1.2412210     0.8363590
  H        3.6994690    -0.0050250     0.4023620
  H        2.3648890    -0.3937430     1.5043860
  H       -3.0646880    -0.2455350     0.5019360
  H       -2.0550810     2.1952630     0.1367680
units angstrom
no_reorient  #important for SAPT in psi4, default
symmetry c1  #important for SAPT in psi4, default
}

set PROPERTIES_ORIGIN ["COM"]
properties('MP2/aug-cc-pvtz', properties = ['dipole'])
--------------------------------------------------------------------------

    Molecular point group: c1
  Charge       = 0
  Multiplicity = 1
  Basis Set: AUG-CC-PVTZ
    Blend: AUG-CC-PVTZ
  Basis Set: (AUG-CC-PVTZ AUX)
    Blend: AUG-CC-PVTZ-JKFIT

    Orbital Energies [Eh]
    ---------------------

    Doubly Occupied:

       1A    -91.993149     2A    -15.562818     3A    -11.315294
       4A    -11.268501     5A    -11.259586     6A    -11.243720
       7A    -11.233250     8A     -8.993967     9A     -6.674887
      10A     -6.674378    11A     -6.673641    12A     -1.273536
      13A     -1.062705    14A     -1.058320    15A     -0.964783
      16A     -0.879838    17A     -0.791172    18A     -0.738406
      19A     -0.681446    20A     -0.648736    21A     -0.587013
      22A     -0.568734    23A     -0.555967    24A     -0.533585
      25A     -0.520765    26A     -0.501035    27A     -0.470109
      28A     -0.423679    29A     -0.386565    30A     -0.322894

  @DF-RHF Final Energy:  -645.45355739078320

   => Energetics <=

    Nuclear Repulsion Energy =            349.6838082205925957
    One-Electron Energy =               -1578.5497773579240857
    Two-Electron Energy =                 583.4124117465481731
    Total Energy =                       -645.4535573907832031
  Basis Set: (AUG-CC-PVTZ AUX)
    Blend: AUG-CC-PVTZ-RI
    Molecular point group: c1

    Geometry (in Angstrom), charge = 0, multiplicity = 1:

       Center              X                  Y                   Z               Mass
    ------------   -----------------  -----------------  -----------------  -----------------
         S           -0.765610258108    -1.160135065297     0.060246734344    31.972071174400
         N           -0.100314258108     1.312500934703    -0.227268265656    14.003074004430
         C            1.797485141892    -0.210397265297    -0.742475665656    12.000000000000
         C            0.392816741892     0.091085934703    -0.286123265656    12.000000000000
         C            2.711900741892     0.197236934703     0.646152734344    12.000000000000
         C           -1.974893258108     0.032994934703     0.285823734344    12.000000000000
         C           -1.434559258108     1.281567934703     0.090630734344    12.000000000000
         H            1.968860741892    -1.260673065297    -0.782496265656     1.007825032230
         H            2.138664741892     0.369501934703    -1.433738265656     1.007825032230
         H            2.578514741892     1.258510934703     0.866809734344     1.007825032230
         H            3.768804741892     0.012264934703     0.432812734344     1.007825032230
         H            2.434224741892    -0.376453065297     1.534836734344     1.007825032230
         H           -2.995352258108    -0.228245065297     0.532386734344     1.007825032230
         H           -1.985745258108     2.212552934703     0.167218734344     1.007825032230

  Basis Set: AUG-CC-PVTZ
    Blend: AUG-CC-PVTZ
  Basis Set: (AUG-CC-PVTZ AUX)
    Blend: AUG-CC-PVTZ-JKFIT
	 Reference Energy          =    -645.4535573907832031 [Eh]
	 Singles Energy            =      -0.0000000000000000 [Eh]
	 Same-Spin Energy          =      -0.3322015221549349 [Eh]
	 Opposite-Spin Energy      =      -1.0408316338778933 [Eh]
	 Correlation Energy        =      -1.3730331560328284 [Eh]
	 Total Energy              =    -646.8265905468160781 [Eh]

	 ================> DF-SCS-MP2 Energies <==================
	-----------------------------------------------------------
	 SCS Same-Spin Scale       =       0.3333333333333333 [-]
	 SCS Opposite-Spin Scale   =       1.2000000000000000 [-]
	 SCS Same-Spin Energy      =      -0.1107338407183116 [Eh]
	 SCS Opposite-Spin Energy  =      -1.2489979606534720 [Eh]
	 SCS Correlation Energy    =      -1.3597318013717836 [Eh]
	 SCS Total Energy          =    -646.8132891921550254 [Eh]
	-----------------------------------------------------------

  Dipole Moment: [D]
     X:    -0.2537      Y:    -1.2626      Z:     0.2017     Total:     1.3035

*** Psi4 exiting successfully. Buy a developer a beer!
