                               Psi4 1.3.2 release

  ==> Input File <==

--------------------------------------------------------------------------
#psi4
#
memory 32 gb

molecule  {
0 1
  S       -0.8349460    -1.1774250     0.0297960
  N       -0.1696500     1.2952110    -0.2577190
  C        1.7694220    -0.2160770    -0.5775760
  C        0.3234810     0.0737960    -0.3165740
  C        2.6425650     0.1799470     0.6157020
  C       -2.0442290     0.0157050     0.2553730
  C       -1.5038950     1.2642780     0.0601800
  H        1.8995250    -1.2779630    -0.8129470
  H        2.0693290     0.3522120    -1.4641890
  H        2.5091790     1.2412210     0.8363590
  H        3.6994690    -0.0050250     0.4023620
  H        2.3648890    -0.3937430     1.5043860
  H       -3.0533444    -0.2430324     0.5505679
  H       -2.0550810     2.1952630     0.1367680
units angstrom
no_reorient  #important for SAPT in psi4, default
symmetry c1  #important for SAPT in psi4, default
}

set PROPERTIES_ORIGIN ["COM"]
properties('MP2/aug-cc-pvtz', properties = ['dipole'])
--------------------------------------------------------------------------

    Molecular point group: c1
  Charge       = 0
  Multiplicity = 1
  Basis Set: AUG-CC-PVTZ
    Blend: AUG-CC-PVTZ
  Basis Set: (AUG-CC-PVTZ AUX)
    Blend: AUG-CC-PVTZ-JKFIT

    Orbital Energies [Eh]
    ---------------------

    Doubly Occupied:

       1A    -91.994258     2A    -15.565172     3A    -11.312731
       4A    -11.269176     5A    -11.261292     6A    -11.245727
       7A    -11.224246     8A     -8.995014     9A     -6.675917
      10A     -6.675405    11A     -6.674690    12A     -1.274821
      13A     -1.072262    14A     -1.061583    15A     -0.975178
      16A     -0.870153    17A     -0.791806    18A     -0.729333
      19A     -0.680899    20A     -0.629073    21A     -0.601701
      22A     -0.571658    23A     -0.557206    24A     -0.517739
      25A     -0.512262    26A     -0.503840    27A     -0.496489
      28A     -0.424853    29A     -0.387458    30A     -0.328530

  @DF-RHF Final Energy:  -645.48587165760318

   => Energetics <=

    Nuclear Repulsion Energy =            351.0029838877131851
    One-Electron Energy =               -1581.2167680225247750
    Two-Electron Energy =                 584.7279124772085197
    Total Energy =                       -645.4858716576031838
  Basis Set: (AUG-CC-PVTZ AUX)
    Blend: AUG-CC-PVTZ-RI
    Molecular point group: c1

    Geometry (in Angstrom), charge = 0, multiplicity = 1:

       Center              X                  Y                   Z               Mass
    ------------   -----------------  -----------------  -----------------  -----------------
         S           -0.770093173448    -1.161389994810     0.039073426979    31.972071174400
         N           -0.104797173448     1.311246005190    -0.248441573021    14.003074004430
         C            1.834274826552    -0.200041994810    -0.568298573021    12.000000000000
         C            0.388333826552     0.089831005190    -0.307296573021    12.000000000000
         C            2.707417826552     0.195982005190     0.624979426979    12.000000000000
         C           -1.979376173448     0.031740005190     0.264650426979    12.000000000000
         C           -1.439042173448     1.280313005190     0.069457426979    12.000000000000
         H            1.964377826552    -1.261927994810    -0.803669573021     1.007825032230
         H            2.134181826552     0.368247005190    -1.454911573021     1.007825032230
         H            2.574031826552     1.257256005190     0.845636426979     1.007825032230
         H            3.764321826552     0.011010005190     0.411639426979     1.007825032230
         H            2.429741826552    -0.377707994810     1.513663426979     1.007825032230
         H           -2.988491573448    -0.226997394810     0.559845326979     1.007825032230
         H           -1.990228173448     2.211298005190     0.146045426979     1.007825032230

  Basis Set: AUG-CC-PVTZ
    Blend: AUG-CC-PVTZ
  Basis Set: (AUG-CC-PVTZ AUX)
    Blend: AUG-CC-PVTZ-JKFIT
	 Reference Energy          =    -645.4858716576031838 [Eh]
	 Singles Energy            =      -0.0000000000000000 [Eh]
	 Same-Spin Energy          =      -0.3323312314223487 [Eh]
	 Opposite-Spin Energy      =      -1.0397109374233398 [Eh]
	 Correlation Energy        =      -1.3720421688456885 [Eh]
	 Total Energy              =    -646.8579138264489075 [Eh]

	 ================> DF-SCS-MP2 Energies <==================
	-----------------------------------------------------------
	 SCS Same-Spin Scale       =       0.3333333333333333 [-]
	 SCS Opposite-Spin Scale   =       1.2000000000000000 [-]
	 SCS Same-Spin Energy      =      -0.1107770771407829 [Eh]
	 SCS Opposite-Spin Energy  =      -1.2476531249080076 [Eh]
	 SCS Correlation Energy    =      -1.3584302020487906 [Eh]
	 SCS Total Energy          =    -646.8443018596519778 [Eh]
	-----------------------------------------------------------

  Dipole Moment: [D]
     X:    -0.3216      Y:    -1.2504      Z:     0.3068     Total:     1.3270

*** Psi4 exiting successfully. Buy a developer a beer!
