                               Psi4 1.3.2 release

  ==> Input File <==

--------------------------------------------------------------------------
#psi4
#
memory 32 gb

molecule  {
0 1
  S       -0.8349460    -1.1774250     0.0297960
  N       -0.1696500     1.2952110    -0.2577190
  C        1.7694220    -0.2160770    -0.5775760
  C        0.3234810     0.0737960    -0.3165740
  C        2.6425650     0.1799470     0.6157020
  C       -2.0442290     0.0157050     0.2553730
  C       -1.5038950     1.2642780     0.0601800
  H        1.8995250    -1.2779630    -0.8129470
  H        2.0693290     0.3522120    -1.4641890
  H        2.5091790     1.2412210     0.8363590
  H        3.6994690    -0.0050250     0.4023620
  H        2.3648890    -0.3937430     1.5043860
  H       -3.0193137    -0.2355246     0.6964636
  H       -2.0550810     2.1952630     0.1367680
units angstrom
no_reorient  #important for SAPT in psi4, default
symmetry c1  #important for SAPT in psi4, default
}

set PROPERTIES_ORIGIN ["COM"]
properties('MP2/aug-cc-pvtz', properties = ['dipole'])
--------------------------------------------------------------------------

    Molecular point group: c1
  Charge       = 0
  Multiplicity = 1
  Basis Set: AUG-CC-PVTZ
    Blend: AUG-CC-PVTZ
  Basis Set: (AUG-CC-PVTZ AUX)
    Blend: AUG-CC-PVTZ-JKFIT

    Orbital Energies [Eh]
    ---------------------

    Doubly Occupied:

       1A    -91.994182     2A    -15.565355     3A    -11.313123
       4A    -11.269741     5A    -11.262376     6A    -11.245880
       7A    -11.224584     8A     -8.994951     9A     -6.675853
      10A     -6.675334    11A     -6.674622    12A     -1.275093
      13A     -1.072394    14A     -1.061345    15A     -0.975179
      16A     -0.870242    17A     -0.790201    18A     -0.729126
      19A     -0.679670    20A     -0.628909    21A     -0.600721
      22A     -0.569565    23A     -0.559925    24A     -0.515698
      25A     -0.512534    26A     -0.504216    27A     -0.496585
      28A     -0.425001    29A     -0.387441    30A     -0.328554

  @DF-RHF Final Energy:  -645.48392958174657

   => Energetics <=

    Nuclear Repulsion Energy =            350.9434176887073704
    One-Electron Energy =               -1581.0978966962607046
    Two-Electron Energy =                 584.6705494258068256
    Total Energy =                       -645.4839295817465654
  Basis Set: (AUG-CC-PVTZ AUX)
    Blend: AUG-CC-PVTZ-RI
    Molecular point group: c1

    Geometry (in Angstrom), charge = 0, multiplicity = 1:

       Center              X                  Y                   Z               Mass
    ------------   -----------------  -----------------  -----------------  -----------------
         S           -0.770396606302    -1.161456937693     0.037772556041    31.972071174400
         N           -0.105100606302     1.311179062307    -0.249742443959    14.003074004430
         C            1.833971393698    -0.200108937693    -0.569599443959    12.000000000000
         C            0.388030393698     0.089764062307    -0.308597443959    12.000000000000
         C            2.707114393698     0.195915062307     0.623678556041    12.000000000000
         C           -1.979679606302     0.031673062307     0.263349556041    12.000000000000
         C           -1.439345606302     1.280246062307     0.068156556041    12.000000000000
         H            1.964074393698    -1.261994937693    -0.804970443959     1.007825032230
         H            2.133878393698     0.368180062307    -1.456212443959     1.007825032230
         H            2.573728393698     1.257189062307     0.844335556041     1.007825032230
         H            3.764018393698     0.010943062307     0.410338556041     1.007825032230
         H            2.429438393698    -0.377774937693     1.512362556041     1.007825032230
         H           -2.954764306302    -0.219556537693     0.704440156041     1.007825032230
         H           -1.990531606302     2.211231062307     0.144744556041     1.007825032230

  Basis Set: AUG-CC-PVTZ
    Blend: AUG-CC-PVTZ
  Basis Set: (AUG-CC-PVTZ AUX)
    Blend: AUG-CC-PVTZ-JKFIT
	 Reference Energy          =    -645.4839295817465654 [Eh]
	 Singles Energy            =      -0.0000000000000000 [Eh]
	 Same-Spin Energy          =      -0.3324358697117470 [Eh]
	 Opposite-Spin Energy      =      -1.0399317667693293 [Eh]
	 Correlation Energy        =      -1.3723676364810764 [Eh]
	 Total Energy              =    -646.8562972182276098 [Eh]

	 ================> DF-SCS-MP2 Energies <==================
	-----------------------------------------------------------
	 SCS Same-Spin Scale       =       0.3333333333333333 [-]
	 SCS Opposite-Spin Scale   =       1.2000000000000000 [-]
	 SCS Same-Spin Energy      =      -0.1108119565705823 [Eh]
	 SCS Opposite-Spin Energy  =      -1.2479181201231950 [Eh]
	 SCS Correlation Energy    =      -1.3587300766937773 [Eh]
	 SCS Total Energy          =    -646.8426596584403114 [Eh]
	-----------------------------------------------------------

  Dipole Moment: [D]
     X:    -0.2675      Y:    -1.2363      Z:     0.4216     Total:     1.3333

*** Psi4 exiting successfully. Buy a developer a beer!
