                               Psi4 1.3.2 release

  ==> Input File <==

--------------------------------------------------------------------------
#psi4
#
memory 32 gb

molecule  {
0 1
  S       -0.8349460    -1.1774250     0.0297960
  N       -0.1696500     1.2952110    -0.2577190
  C        1.7694220    -0.2160770    -0.5775760
  C        0.3234810     0.0737960    -0.3165740
  C        2.6425650     0.1799470     0.6157020
  C       -2.0442290     0.0157050     0.2553730
  C       -1.5038950     1.2642780     0.0601800
  H        1.8995250    -1.2779630    -0.8129470
  H        2.0693290     0.3522120    -1.4641890
  H        2.5091790     1.2412210     0.8363590
  H        3.6994690    -0.0050250     0.4023620
  H        2.3648890    -0.3937430     1.5043860
  H       -3.0306573    -0.2380272     0.6478317
  H       -2.0550810     2.1952630     0.1367680
units angstrom
no_reorient  #important for SAPT in psi4, default
symmetry c1  #important for SAPT in psi4, default
}

set PROPERTIES_ORIGIN ["COM"]
properties('MP2/aug-cc-pvtz', properties = ['dipole'])
--------------------------------------------------------------------------

    Molecular point group: c1
  Charge       = 0
  Multiplicity = 1
  Basis Set: AUG-CC-PVTZ
    Blend: AUG-CC-PVTZ
  Basis Set: (AUG-CC-PVTZ AUX)
    Blend: AUG-CC-PVTZ-JKFIT

    Orbital Energies [Eh]
    ---------------------

    Doubly Occupied:

       1A    -91.994217     2A    -15.565265     3A    -11.312937
       4A    -11.269470     5A    -11.261870     6A    -11.245805
       7A    -11.224448     8A     -8.994980     9A     -6.675882
      10A     -6.675367    11A     -6.674654    12A     -1.274963
      13A     -1.072331    14A     -1.061455    15A     -0.975179
      16A     -0.870202    17A     -0.790937    18A     -0.729216
      19A     -0.680254    20A     -0.629037    21A     -0.601053
      22A     -0.570315    23A     -0.559119    24A     -0.516373
      25A     -0.512479    26A     -0.504081    27A     -0.496585
      28A     -0.424929    29A     -0.387445    30A     -0.328532

  @DF-RHF Final Energy:  -645.48487487555838

   => Energetics <=

    Nuclear Repulsion Energy =            350.9718759626466635
    One-Electron Energy =               -1581.1547337387037260
    Two-Electron Energy =                 584.6979829004986868
    Total Energy =                       -645.4848748755583756
  Basis Set: (AUG-CC-PVTZ AUX)
    Blend: AUG-CC-PVTZ-RI
    Molecular point group: c1

    Geometry (in Angstrom), charge = 0, multiplicity = 1:

       Center              X                  Y                   Z               Mass
    ------------   -----------------  -----------------  -----------------  -----------------
         S           -0.770295461720    -1.161434623399     0.038206179687    31.972071174400
         N           -0.104999461720     1.311201376601    -0.249308820313    14.003074004430
         C            1.834072538280    -0.200086623399    -0.569165820313    12.000000000000
         C            0.388131538280     0.089786376601    -0.308163820313    12.000000000000
         C            2.707215538280     0.195937376601     0.624112179687    12.000000000000
         C           -1.979578461720     0.031695376601     0.263783179687    12.000000000000
         C           -1.439244461720     1.280268376601     0.068590179687    12.000000000000
         H            1.964175538280    -1.261972623399    -0.804536820313     1.007825032230
         H            2.133979538280     0.368202376601    -1.455778820313     1.007825032230
         H            2.573829538280     1.257211376601     0.844769179687     1.007825032230
         H            3.764119538280     0.010965376601     0.410772179687     1.007825032230
         H            2.429539538280    -0.377752623399     1.512796179687     1.007825032230
         H           -2.966006761720    -0.222036823399     0.656241879687     1.007825032230
         H           -1.990430461720     2.211253376601     0.145178179687     1.007825032230

  Basis Set: AUG-CC-PVTZ
    Blend: AUG-CC-PVTZ
  Basis Set: (AUG-CC-PVTZ AUX)
    Blend: AUG-CC-PVTZ-JKFIT
	 Reference Energy          =    -645.4848748755583756 [Eh]
	 Singles Energy            =      -0.0000000000000000 [Eh]
	 Same-Spin Energy          =      -0.3323864150231099 [Eh]
	 Opposite-Spin Energy      =      -1.0398259951442046 [Eh]
	 Correlation Energy        =      -1.3722124101673145 [Eh]
	 Total Energy              =    -646.8570872857256973 [Eh]

	 ================> DF-SCS-MP2 Energies <==================
	-----------------------------------------------------------
	 SCS Same-Spin Scale       =       0.3333333333333333 [-]
	 SCS Opposite-Spin Scale   =       1.2000000000000000 [-]
	 SCS Same-Spin Energy      =      -0.1107954716743700 [Eh]
	 SCS Opposite-Spin Energy  =      -1.2477911941730455 [Eh]
	 SCS Correlation Energy    =      -1.3585866658474155 [Eh]
	 SCS Total Energy          =    -646.8434615414057589 [Eh]
	-----------------------------------------------------------

  Dipole Moment: [D]
     X:    -0.2890      Y:    -1.2422      Z:     0.3845     Total:     1.3321

*** Psi4 exiting successfully. Buy a developer a beer!
