                               Psi4 1.3.2 release

  ==> Input File <==

--------------------------------------------------------------------------
#psi4
#
memory 32 gb

molecule  {
0 1
  S       -0.8349460    -1.1774250     0.0297960
  N       -0.1696500     1.2952110    -0.2577190
  C        1.7384676    -0.2247846    -0.7240888
  C        0.3234810     0.0737960    -0.3165740
  C        2.6425650     0.1799470     0.6157020
  C       -2.0442290     0.0157050     0.2553730
  C       -1.5038950     1.2642780     0.0601800
  H        1.8995250    -1.2779630    -0.8129470
  H        2.0693290     0.3522120    -1.4641890
  H        2.5091790     1.2412210     0.8363590
  H        3.6994690    -0.0050250     0.4023620
  H        2.3648890    -0.3937430     1.5043860
  H       -3.0646880    -0.2455350     0.5019360
  H       -2.0550810     2.1952630     0.1367680
units angstrom
no_reorient  #important for SAPT in psi4, default
symmetry c1  #important for SAPT in psi4, default
}

set PROPERTIES_ORIGIN ["COM"]
properties('MP2/aug-cc-pvtz', properties = ['dipole'])
--------------------------------------------------------------------------

    Molecular point group: c1
  Charge       = 0
  Multiplicity = 1
  Basis Set: AUG-CC-PVTZ
    Blend: AUG-CC-PVTZ
  Basis Set: (AUG-CC-PVTZ AUX)
    Blend: AUG-CC-PVTZ-JKFIT

    Orbital Energies [Eh]
    ---------------------

    Doubly Occupied:

       1A    -91.993433     2A    -15.563463     3A    -11.314267
       4A    -11.268641     5A    -11.259997     6A    -11.243196
       7A    -11.230967     8A     -8.994230     9A     -6.675146
      10A     -6.674637    11A     -6.673907    12A     -1.273866
      13A     -1.063935    14A     -1.059601    15A     -0.966754
      16A     -0.877397    17A     -0.791421    18A     -0.735776
      19A     -0.681252    20A     -0.643014    21A     -0.590383
      22A     -0.569082    23A     -0.555604    24A     -0.527509
      25A     -0.519312    26A     -0.501383    27A     -0.481451
      28A     -0.424072    29A     -0.386845    30A     -0.324749

  @DF-RHF Final Energy:  -645.46786710464869

   => Energetics <=

    Nuclear Repulsion Energy =            350.0307262253089675
    One-Electron Energy =               -1579.2666058158201849
    Two-Electron Energy =                 583.7680124858624140
    Total Energy =                       -645.4678671046486897
  Basis Set: (AUG-CC-PVTZ AUX)
    Blend: AUG-CC-PVTZ-RI
    Molecular point group: c1

    Geometry (in Angstrom), charge = 0, multiplicity = 1:

       Center              X                  Y                   Z               Mass
    ------------   -----------------  -----------------  -----------------  -----------------
         S           -0.766705706106    -1.160443224410     0.055061813414    31.972071174400
         N           -0.101409706106     1.312192775590    -0.232453186586    14.003074004430
         C            1.806707893894    -0.207802824410    -0.698822986586    12.000000000000
         C            0.391721293894     0.090777775590    -0.291308186586    12.000000000000
         C            2.710805293894     0.196928775590     0.640967813414    12.000000000000
         C           -1.975988706106     0.032686775590     0.280638813414    12.000000000000
         C           -1.435654706106     1.281259775590     0.085445813414    12.000000000000
         H            1.967765293894    -1.260981224410    -0.787681186586     1.007825032230
         H            2.137569293894     0.369193775590    -1.438923186586     1.007825032230
         H            2.577419293894     1.258202775590     0.861624813414     1.007825032230
         H            3.767709293894     0.011956775590     0.427627813414     1.007825032230
         H            2.433129293894    -0.376761224410     1.529651813414     1.007825032230
         H           -2.996447706106    -0.228553224410     0.527201813414     1.007825032230
         H           -1.986840706106     2.212244775590     0.162033813414     1.007825032230

  Basis Set: AUG-CC-PVTZ
    Blend: AUG-CC-PVTZ
  Basis Set: (AUG-CC-PVTZ AUX)
    Blend: AUG-CC-PVTZ-JKFIT
	 Reference Energy          =    -645.4678671046486897 [Eh]
	 Singles Energy            =      -0.0000000000000000 [Eh]
	 Same-Spin Energy          =      -0.3320441232532598 [Eh]
	 Opposite-Spin Energy      =      -1.0401035278867150 [Eh]
	 Correlation Energy        =      -1.3721476511399748 [Eh]
	 Total Energy              =    -646.8400147557886157 [Eh]

	 ================> DF-SCS-MP2 Energies <==================
	-----------------------------------------------------------
	 SCS Same-Spin Scale       =       0.3333333333333333 [-]
	 SCS Opposite-Spin Scale   =       1.2000000000000000 [-]
	 SCS Same-Spin Energy      =      -0.1106813744177532 [Eh]
	 SCS Opposite-Spin Energy  =      -1.2481242334640579 [Eh]
	 SCS Correlation Energy    =      -1.3588056078818112 [Eh]
	 SCS Total Energy          =    -646.8266727125304669 [Eh]
	-----------------------------------------------------------

  Dipole Moment: [D]
     X:    -0.2767      Y:    -1.2624      Z:     0.2083     Total:     1.3090

*** Psi4 exiting successfully. Buy a developer a beer!
