                               Psi4 1.3.2 release

  ==> Input File <==

--------------------------------------------------------------------------
#psi4
#
memory 32 gb

molecule  {
0 1
  S       -0.8349460    -1.1774250     0.0297960
  N       -0.1696500     1.2952110    -0.2577190
  C        1.7487857    -0.2218821    -0.6752512
  C        0.3234810     0.0737960    -0.3165740
  C        2.6425650     0.1799470     0.6157020
  C       -2.0442290     0.0157050     0.2553730
  C       -1.5038950     1.2642780     0.0601800
  H        1.8995250    -1.2779630    -0.8129470
  H        2.0693290     0.3522120    -1.4641890
  H        2.5091790     1.2412210     0.8363590
  H        3.6994690    -0.0050250     0.4023620
  H        2.3648890    -0.3937430     1.5043860
  H       -3.0646880    -0.2455350     0.5019360
  H       -2.0550810     2.1952630     0.1367680
units angstrom
no_reorient  #important for SAPT in psi4, default
symmetry c1  #important for SAPT in psi4, default
}

set PROPERTIES_ORIGIN ["COM"]
properties('MP2/aug-cc-pvtz', properties = ['dipole'])
--------------------------------------------------------------------------

    Molecular point group: c1
  Charge       = 0
  Multiplicity = 1
  Basis Set: AUG-CC-PVTZ
    Blend: AUG-CC-PVTZ
  Basis Set: (AUG-CC-PVTZ AUX)
    Blend: AUG-CC-PVTZ-JKFIT

    Orbital Energies [Eh]
    ---------------------

    Doubly Occupied:

       1A    -91.993710     2A    -15.564070     3A    -11.313481
       4A    -11.268795     5A    -11.260408     6A    -11.243364
       7A    -11.228704     8A     -8.994491     9A     -6.675402
      10A     -6.674893    11A     -6.674169    12A     -1.274187
      13A     -1.065905    14A     -1.060518    15A     -0.969161
      16A     -0.874995    17A     -0.791623    18A     -0.733413
      19A     -0.681136    20A     -0.637531    21A     -0.593969
      22A     -0.569680    23A     -0.555508    24A     -0.520507
      25A     -0.516997    26A     -0.502272    27A     -0.492399
      28A     -0.424400    29A     -0.387087    30A     -0.326304

  @DF-RHF Final Energy:  -645.47821823473123

   => Energetics <=

    Nuclear Repulsion Energy =            350.3654013131379656
    One-Electron Energy =               -1579.9490832752740062
    Two-Electron Energy =                 584.1054637274048673
    Total Energy =                       -645.4782182347312300
  Basis Set: (AUG-CC-PVTZ AUX)
    Blend: AUG-CC-PVTZ-RI
    Molecular point group: c1

    Geometry (in Angstrom), charge = 0, multiplicity = 1:

       Center              X                  Y                   Z               Mass
    ------------   -----------------  -----------------  -----------------  -----------------
         S           -0.767801143487    -1.160751372906     0.049876892484    31.972071174400
         N           -0.102505143487     1.311884627094    -0.237638107516    14.003074004430
         C            1.815930556513    -0.205208472906    -0.655170307516    12.000000000000
         C            0.390625856513     0.090469627094    -0.296493107516    12.000000000000
         C            2.709709856513     0.196620627094     0.635782892484    12.000000000000
         C           -1.977084143487     0.032378627094     0.275453892484    12.000000000000
         C           -1.436750143487     1.280951627094     0.080260892484    12.000000000000
         H            1.966669856513    -1.261289372906    -0.792866107516     1.007825032230
         H            2.136473856513     0.368885627094    -1.444108107516     1.007825032230
         H            2.576323856513     1.257894627094     0.856439892484     1.007825032230
         H            3.766613856513     0.011648627094     0.422442892484     1.007825032230
         H            2.432033856513    -0.377069372906     1.524466892484     1.007825032230
         H           -2.997543143487    -0.228861372906     0.522016892484     1.007825032230
         H           -1.987936143487     2.211936627094     0.156848892484     1.007825032230

  Basis Set: AUG-CC-PVTZ
    Blend: AUG-CC-PVTZ
  Basis Set: (AUG-CC-PVTZ AUX)
    Blend: AUG-CC-PVTZ-JKFIT
	 Reference Energy          =    -645.4782182347312300 [Eh]
	 Singles Energy            =      -0.0000000000000000 [Eh]
	 Same-Spin Energy          =      -0.3320078081417773 [Eh]
	 Opposite-Spin Energy      =      -1.0396701192759972 [Eh]
	 Correlation Energy        =      -1.3716779274177746 [Eh]
	 Total Energy              =    -646.8498961621489798 [Eh]

	 ================> DF-SCS-MP2 Energies <==================
	-----------------------------------------------------------
	 SCS Same-Spin Scale       =       0.3333333333333333 [-]
	 SCS Opposite-Spin Scale   =       1.2000000000000000 [-]
	 SCS Same-Spin Energy      =      -0.1106692693805924 [Eh]
	 SCS Opposite-Spin Energy  =      -1.2476041431311966 [Eh]
	 SCS Correlation Energy    =      -1.3582734125117890 [Eh]
	 SCS Total Energy          =    -646.8364916472430650 [Eh]
	-----------------------------------------------------------

  Dipole Moment: [D]
     X:    -0.2974      Y:    -1.2605      Z:     0.2214     Total:     1.3139

*** Psi4 exiting successfully. Buy a developer a beer!
