                               Psi4 1.3.2 release

  ==> Input File <==

--------------------------------------------------------------------------
#psi4
#
memory 32 gb

molecule  {
0 1
  S       -0.8349460    -1.1774250     0.0297960
  N       -0.1696500     1.2952110    -0.2577190
  C        1.7178313    -0.2305897    -0.8217640
  C        0.3234810     0.0737960    -0.3165740
  C        2.6425650     0.1799470     0.6157020
  C       -2.0442290     0.0157050     0.2553730
  C       -1.5038950     1.2642780     0.0601800
  H        1.8995250    -1.2779630    -0.8129470
  H        2.0693290     0.3522120    -1.4641890
  H        2.5091790     1.2412210     0.8363590
  H        3.6994690    -0.0050250     0.4023620
  H        2.3648890    -0.3937430     1.5043860
  H       -3.0646880    -0.2455350     0.5019360
  H       -2.0550810     2.1952630     0.1367680
units angstrom
no_reorient  #important for SAPT in psi4, default
symmetry c1  #important for SAPT in psi4, default
}

set PROPERTIES_ORIGIN ["COM"]
properties('MP2/aug-cc-pvtz', properties = ['dipole'])
--------------------------------------------------------------------------

    Molecular point group: c1
  Charge       = 0
  Multiplicity = 1
  Basis Set: AUG-CC-PVTZ
    Blend: AUG-CC-PVTZ
  Basis Set: (AUG-CC-PVTZ AUX)
    Blend: AUG-CC-PVTZ-JKFIT

    Orbital Energies [Eh]
    ---------------------

    Doubly Occupied:

       1A    -91.992855     2A    -15.562137     3A    -11.316535
       4A    -11.268369     5A    -11.259172     6A    -11.244926
       7A    -11.235584     8A     -8.993696     9A     -6.674620
      10A     -6.674110    11A     -6.673366    12A     -1.273193
      13A     -1.061961    14A     -1.056834    15A     -0.963248
      16A     -0.882356    17A     -0.790870    18A     -0.741316
      19A     -0.681814    20A     -0.654109    21A     -0.583839
      22A     -0.568529    23A     -0.556595    24A     -0.538487
      25A     -0.521678    26A     -0.500774    27A     -0.459198
      28A     -0.423203    29A     -0.386240    30A     -0.320732

  @DF-RHF Final Energy:  -645.43557483572238

   => Energetics <=

    Nuclear Repulsion Energy =            349.3230283136260255
    One-Electron Energy =               -1577.7965170262466472
    Two-Electron Energy =                 583.0379138768981875
    Total Energy =                       -645.4355748357223774
  Basis Set: (AUG-CC-PVTZ AUX)
    Blend: AUG-CC-PVTZ-RI
    Molecular point group: c1

    Geometry (in Angstrom), charge = 0, multiplicity = 1:

       Center              X                  Y                   Z               Mass
    ------------   -----------------  -----------------  -----------------  -----------------
         S           -0.764514820727    -1.159826916801     0.065431655274    31.972071174400
         N           -0.099218820727     1.312809083199    -0.222083344726    14.003074004430
         C            1.788262479273    -0.212991616801    -0.786128344726    12.000000000000
         C            0.393912179273     0.091394083199    -0.280938344726    12.000000000000
         C            2.712996179273     0.197545083199     0.651337655274    12.000000000000
         C           -1.973797820727     0.033303083199     0.291008655274    12.000000000000
         C           -1.433463820727     1.281876083199     0.095815655274    12.000000000000
         H            1.969956179273    -1.260364916801    -0.777311344726     1.007825032230
         H            2.139760179273     0.369810083199    -1.428553344726     1.007825032230
         H            2.579610179273     1.258819083199     0.871994655274     1.007825032230
         H            3.769900179273     0.012573083199     0.437997655274     1.007825032230
         H            2.435320179273    -0.376144916801     1.540021655274     1.007825032230
         H           -2.994256820727    -0.227936916801     0.537571655274     1.007825032230
         H           -1.984649820727     2.212861083199     0.172403655274     1.007825032230

  Basis Set: AUG-CC-PVTZ
    Blend: AUG-CC-PVTZ
  Basis Set: (AUG-CC-PVTZ AUX)
    Blend: AUG-CC-PVTZ-JKFIT
	 Reference Energy          =    -645.4355748357223774 [Eh]
	 Singles Energy            =      -0.0000000000000000 [Eh]
	 Same-Spin Energy          =      -0.3324737060194300 [Eh]
	 Opposite-Spin Energy      =      -1.0418507735807045 [Eh]
	 Correlation Energy        =      -1.3743244796001346 [Eh]
	 Total Energy              =    -646.8098993153224683 [Eh]

	 ================> DF-SCS-MP2 Energies <==================
	-----------------------------------------------------------
	 SCS Same-Spin Scale       =       0.3333333333333333 [-]
	 SCS Opposite-Spin Scale   =       1.2000000000000000 [-]
	 SCS Same-Spin Energy      =      -0.1108245686731433 [Eh]
	 SCS Opposite-Spin Energy  =      -1.2502209282968455 [Eh]
	 SCS Correlation Energy    =      -1.3610454969699888 [Eh]
	 SCS Total Energy          =    -646.7966203326923278 [Eh]
	-----------------------------------------------------------

  Dipole Moment: [D]
     X:    -0.2281      Y:    -1.2610      Z:     0.2021     Total:     1.2973

*** Psi4 exiting successfully. Buy a developer a beer!
