                               Psi4 1.3.2 release

  ==> Input File <==

--------------------------------------------------------------------------
#psi4
#
memory 32 gb

molecule  {
0 1
  S       -0.8349460    -1.1774250     0.0297960
  N       -0.1696500     1.2952110    -0.2577190
  C        1.7694220    -0.2160770    -0.5775760
  C        0.3234810     0.0737960    -0.3165740
  C        2.6425650     0.1799470     0.6157020
  C       -2.0442290     0.0157050     0.2553730
  C       -1.5038950     1.2642780     0.0601800
  H        1.8995250    -1.2779630    -0.8129470
  H        2.0693290     0.3522120    -1.4641890
  H        2.5091790     1.2412210     0.8363590
  H        3.6994690    -0.0050250     0.4023620
  H        2.3648890    -0.3937430     1.5043860
  H       -3.0646880    -0.2455350     0.5019360
  H       -2.0779950     2.1898602     0.0395787
units angstrom
no_reorient  #important for SAPT in psi4, default
symmetry c1  #important for SAPT in psi4, default
}

set PROPERTIES_ORIGIN ["COM"]
properties('MP2/aug-cc-pvtz', properties = ['dipole'])
--------------------------------------------------------------------------

    Molecular point group: c1
  Charge       = 0
  Multiplicity = 1
  Basis Set: AUG-CC-PVTZ
    Blend: AUG-CC-PVTZ
  Basis Set: (AUG-CC-PVTZ AUX)
    Blend: AUG-CC-PVTZ-JKFIT

    Orbital Energies [Eh]
    ---------------------

    Doubly Occupied:

       1A    -91.994355     2A    -15.565190     3A    -11.312743
       4A    -11.269541     5A    -11.261407     6A    -11.245744
       7A    -11.224150     8A     -8.995108     9A     -6.676010
      10A     -6.675499    11A     -6.674785    12A     -1.274844
      13A     -1.072244    14A     -1.061672    15A     -0.975018
      16A     -0.870081    17A     -0.791667    18A     -0.729240
      19A     -0.680233    20A     -0.629088    21A     -0.602716
      22A     -0.570638    23A     -0.556396    24A     -0.519409
      25A     -0.512094    26A     -0.502670    27A     -0.496415
      28A     -0.424874    29A     -0.387485    30A     -0.328581

  @DF-RHF Final Energy:  -645.48535118651978

   => Energetics <=

    Nuclear Repulsion Energy =            350.9822687600542395
    One-Electron Energy =               -1581.1754464645564440
    Two-Electron Energy =                 584.7078265179824257
    Total Energy =                       -645.4853511865197788
  Basis Set: (AUG-CC-PVTZ AUX)
    Blend: AUG-CC-PVTZ-RI
    Molecular point group: c1

    Geometry (in Angstrom), charge = 0, multiplicity = 1:

       Center              X                  Y                   Z               Mass
    ------------   -----------------  -----------------  -----------------  -----------------
         S           -0.769787717452    -1.161319506748     0.040373633641    31.972071174400
         N           -0.104491717452     1.311316493252    -0.247141366359    14.003074004430
         C            1.834580282548    -0.199971506748    -0.566998366359    12.000000000000
         C            0.388639282548     0.089901493252    -0.305996366359    12.000000000000
         C            2.707723282548     0.196052493252     0.626279633641    12.000000000000
         C           -1.979070717452     0.031810493252     0.265950633641    12.000000000000
         C           -1.438736717452     1.280383493252     0.070757633641    12.000000000000
         H            1.964683282548    -1.261857506748    -0.802369366359     1.007825032230
         H            2.134487282548     0.368317493252    -1.453611366359     1.007825032230
         H            2.574337282548     1.257326493252     0.846936633641     1.007825032230
         H            3.764627282548     0.011080493252     0.412939633641     1.007825032230
         H            2.430047282548    -0.377637506748     1.514963633641     1.007825032230
         H           -2.999529717452    -0.229429506748     0.512513633641     1.007825032230
         H           -2.012836717452     2.205965693252     0.050156333641     1.007825032230

  Basis Set: AUG-CC-PVTZ
    Blend: AUG-CC-PVTZ
  Basis Set: (AUG-CC-PVTZ AUX)
    Blend: AUG-CC-PVTZ-JKFIT
	 Reference Energy          =    -645.4853511865197788 [Eh]
	 Singles Energy            =      -0.0000000000000000 [Eh]
	 Same-Spin Energy          =      -0.3323681187287525 [Eh]
	 Opposite-Spin Energy      =      -1.0397771496913144 [Eh]
	 Correlation Energy        =      -1.3721452684200670 [Eh]
	 Total Energy              =    -646.8574964549397919 [Eh]

	 ================> DF-SCS-MP2 Energies <==================
	-----------------------------------------------------------
	 SCS Same-Spin Scale       =       0.3333333333333333 [-]
	 SCS Opposite-Spin Scale   =       1.2000000000000000 [-]
	 SCS Same-Spin Energy      =      -0.1107893729095842 [Eh]
	 SCS Opposite-Spin Energy  =      -1.2477325796295773 [Eh]
	 SCS Correlation Energy    =      -1.3585219525391614 [Eh]
	 SCS Total Energy          =    -646.8438731390589282 [Eh]
	-----------------------------------------------------------

  Dipole Moment: [D]
     X:    -0.3454      Y:    -1.2640      Z:     0.1928     Total:     1.3244

*** Psi4 exiting successfully. Buy a developer a beer!
