                               Psi4 1.3.2 release

  ==> Input File <==

--------------------------------------------------------------------------
#psi4
#
memory 32 gb

molecule  {
0 1
  S       -0.8349460    -1.1774250     0.0297960
  N       -0.1696500     1.2952110    -0.2577190
  C        1.7694220    -0.2160770    -0.5775760
  C        0.3234810     0.0737960    -0.3165740
  C        2.6425650     0.1799470     0.6157020
  C       -2.0442290     0.0157050     0.2553730
  C       -1.5038950     1.2642780     0.0601800
  H        1.8995250    -1.2779630    -0.8129470
  H        2.0693290     0.3522120    -1.4641890
  H        2.5091790     1.2412210     0.8363590
  H        3.6994690    -0.0050250     0.4023620
  H        2.3648890    -0.3937430     1.5043860
  H       -3.0646880    -0.2455350     0.5019360
  H       -2.1123660     2.1817559    -0.1062052
units angstrom
no_reorient  #important for SAPT in psi4, default
symmetry c1  #important for SAPT in psi4, default
}

set PROPERTIES_ORIGIN ["COM"]
properties('MP2/aug-cc-pvtz', properties = ['dipole'])
--------------------------------------------------------------------------

    Molecular point group: c1
  Charge       = 0
  Multiplicity = 1
  Basis Set: AUG-CC-PVTZ
    Blend: AUG-CC-PVTZ
  Basis Set: (AUG-CC-PVTZ AUX)
    Blend: AUG-CC-PVTZ-JKFIT

    Orbital Energies [Eh]
    ---------------------

    Doubly Occupied:

       1A    -91.994762     2A    -15.565355     3A    -11.312922
       4A    -11.271511     5A    -11.262211     6A    -11.245869
       7A    -11.224186     8A     -8.995517     9A     -6.676415
      10A     -6.675905    11A     -6.675192    12A     -1.275024
      13A     -1.072259    14A     -1.062031    15A     -0.974347
      16A     -0.869859    17A     -0.790572    18A     -0.728873
      19A     -0.677194    20A     -0.628957    21A     -0.603426
      22A     -0.568054    23A     -0.556627    24A     -0.521047
      25A     -0.512187    26A     -0.500795    27A     -0.495293
      28A     -0.425046    29A     -0.387557    30A     -0.328615

  @DF-RHF Final Energy:  -645.48180262713959

   => Energetics <=

    Nuclear Repulsion Energy =            350.8844529413722171
    One-Electron Energy =               -1580.9772957275740737
    Two-Electron Energy =                 584.6110401590622132
    Total Energy =                       -645.4818026271395865
  Basis Set: (AUG-CC-PVTZ AUX)
    Blend: AUG-CC-PVTZ-RI
    Molecular point group: c1

    Geometry (in Angstrom), charge = 0, multiplicity = 1:

       Center              X                  Y                   Z               Mass
    ------------   -----------------  -----------------  -----------------  -----------------
         S           -0.769481250332    -1.161247245205     0.041673507721    31.972071174400
         N           -0.104185250332     1.311388754795    -0.245841492279    14.003074004430
         C            1.834886749668    -0.199899245205    -0.565698492279    12.000000000000
         C            0.388945749668     0.089973754795    -0.304696492279    12.000000000000
         C            2.708029749668     0.196124754795     0.627579507721    12.000000000000
         C           -1.978764250332     0.031882754795     0.267250507721    12.000000000000
         C           -1.438430250332     1.280455754795     0.072057507721    12.000000000000
         H            1.964989749668    -1.261785245205    -0.801069492279     1.007825032230
         H            2.134793749668     0.368389754795    -1.452311492279     1.007825032230
         H            2.574643749668     1.257398754795     0.848236507721     1.007825032230
         H            3.764933749668     0.011152754795     0.414239507721     1.007825032230
         H            2.430353749668    -0.377565245205     1.516263507721     1.007825032230
         H           -2.999223250332    -0.229357245205     0.513813507721     1.007825032230
         H           -2.046901250332     2.197933654795    -0.094327692279     1.007825032230

  Basis Set: AUG-CC-PVTZ
    Blend: AUG-CC-PVTZ
  Basis Set: (AUG-CC-PVTZ AUX)
    Blend: AUG-CC-PVTZ-JKFIT
	 Reference Energy          =    -645.4818026271395865 [Eh]
	 Singles Energy            =      -0.0000000000000000 [Eh]
	 Same-Spin Energy          =      -0.3325702200801225 [Eh]
	 Opposite-Spin Energy      =      -1.0402299906246846 [Eh]
	 Correlation Energy        =      -1.3728002107048072 [Eh]
	 Total Energy              =    -646.8546028378443680 [Eh]

	 ================> DF-SCS-MP2 Energies <==================
	-----------------------------------------------------------
	 SCS Same-Spin Scale       =       0.3333333333333333 [-]
	 SCS Opposite-Spin Scale   =       1.2000000000000000 [-]
	 SCS Same-Spin Energy      =      -0.1108567400267075 [Eh]
	 SCS Opposite-Spin Energy  =      -1.2482759887496215 [Eh]
	 SCS Correlation Energy    =      -1.3591327287763291 [Eh]
	 SCS Total Energy          =    -646.8409353559159172 [Eh]
	-----------------------------------------------------------

  Dipole Moment: [D]
     X:    -0.3459      Y:    -1.3057      Z:     0.0824     Total:     1.3532

*** Psi4 exiting successfully. Buy a developer a beer!
