                               Psi4 1.3.2 release

  ==> Input File <==

--------------------------------------------------------------------------
#psi4
#
memory 32 gb

molecule  {
0 1
  S       -0.8349460    -1.1774250     0.0297960
  N       -0.1696500     1.2952110    -0.2577190
  C        1.7694220    -0.2160770    -0.5775760
  C        0.3234810     0.0737960    -0.3165740
  C        2.6425650     0.1799470     0.6157020
  C       -2.0442290     0.0157050     0.2553730
  C       -1.5038950     1.2642780     0.0601800
  H        1.8995250    -1.2779630    -0.8129470
  H        2.0693290     0.3522120    -1.4641890
  H        2.5091790     1.2412210     0.8363590
  H        3.6994690    -0.0050250     0.4023620
  H        2.3648890    -0.3937430     1.5043860
  H       -2.9966266    -0.2305193     0.7937273
  H       -2.0550810     2.1952630     0.1367680
units angstrom
no_reorient  #important for SAPT in psi4, default
symmetry c1  #important for SAPT in psi4, default
}

set PROPERTIES_ORIGIN ["COM"]
properties('MP2/aug-cc-pvtz', properties = ['dipole'])
--------------------------------------------------------------------------

    Molecular point group: c1
  Charge       = 0
  Multiplicity = 1
  Basis Set: AUG-CC-PVTZ
    Blend: AUG-CC-PVTZ
  Basis Set: (AUG-CC-PVTZ AUX)
    Blend: AUG-CC-PVTZ-JKFIT

    Orbital Energies [Eh]
    ---------------------

    Doubly Occupied:

       1A    -91.994094     2A    -15.565619     3A    -11.313653
       4A    -11.270518     5A    -11.263793     6A    -11.246098
       7A    -11.224918     8A     -8.994881     9A     -6.675780
      10A     -6.675250    11A     -6.674543    12A     -1.275471
      13A     -1.072582    14A     -1.061050    15A     -0.975188
      16A     -0.870360    17A     -0.788275    18A     -0.728905
      19A     -0.678063    20A     -0.628435    21A     -0.600065
      22A     -0.567962    23A     -0.561128    24A     -0.514671
      25A     -0.512230    26A     -0.504511    27A     -0.496454
      28A     -0.425208    29A     -0.387443    30A     -0.328644

  @DF-RHF Final Energy:  -645.48092570832159

   => Energetics <=

    Nuclear Repulsion Energy =            350.8626769178478071
    One-Electron Energy =               -1580.9356181127218406
    Two-Electron Energy =                 584.5920154865525546
    Total Energy =                       -645.4809257083215925
  Basis Set: (AUG-CC-PVTZ AUX)
    Blend: AUG-CC-PVTZ-RI
    Molecular point group: c1

    Geometry (in Angstrom), charge = 0, multiplicity = 1:

       Center              X                  Y                   Z               Mass
    ------------   -----------------  -----------------  -----------------  -----------------
         S           -0.770598894574    -1.161501567174     0.036905309641    31.972071174400
         N           -0.105302894574     1.311134432826    -0.250609690359    14.003074004430
         C            1.833769105426    -0.200153567174    -0.570466690359    12.000000000000
         C            0.387828105426     0.089719432826    -0.309464690359    12.000000000000
         C            2.706912105426     0.195870432826     0.622811309641    12.000000000000
         C           -1.979881894574     0.031628432826     0.262482309641    12.000000000000
         C           -1.439547894574     1.280201432826     0.067289309641    12.000000000000
         H            1.963872105426    -1.262039567174    -0.805837690359     1.007825032230
         H            2.133676105426     0.368135432826    -1.457079690359     1.007825032230
         H            2.573526105426     1.257144432826     0.843468309641     1.007825032230
         H            3.763816105426     0.010898432826     0.409471309641     1.007825032230
         H            2.429236105426    -0.377819567174     1.511495309641     1.007825032230
         H           -2.932279494574    -0.214595867174     0.800836609641     1.007825032230
         H           -1.990733894574     2.211186432826     0.143877309641     1.007825032230

  Basis Set: AUG-CC-PVTZ
    Blend: AUG-CC-PVTZ
  Basis Set: (AUG-CC-PVTZ AUX)
    Blend: AUG-CC-PVTZ-JKFIT
	 Reference Energy          =    -645.4809257083215925 [Eh]
	 Singles Energy            =      -0.0000000000000000 [Eh]
	 Same-Spin Energy          =      -0.3325771924331610 [Eh]
	 Opposite-Spin Energy      =      -1.0402510221737837 [Eh]
	 Correlation Energy        =      -1.3728282146069448 [Eh]
	 Total Energy              =    -646.8537539229284903 [Eh]

	 ================> DF-SCS-MP2 Energies <==================
	-----------------------------------------------------------
	 SCS Same-Spin Scale       =       0.3333333333333333 [-]
	 SCS Opposite-Spin Scale   =       1.2000000000000000 [-]
	 SCS Same-Spin Energy      =      -0.1108590641443870 [Eh]
	 SCS Opposite-Spin Energy  =      -1.2483012266085405 [Eh]
	 SCS Correlation Energy    =      -1.3591602907529274 [Eh]
	 SCS Total Energy          =    -646.8400859990745175 [Eh]
	-----------------------------------------------------------

  Dipole Moment: [D]
     X:    -0.2150      Y:    -1.2212      Z:     0.4919     Total:     1.3339

*** Psi4 exiting successfully. Buy a developer a beer!
