                               Psi4 1.3.2 release

  ==> Input File <==

--------------------------------------------------------------------------
#psi4
#
memory 32 gb

molecule  {
0 1
  S       -0.8349460    -1.1774250     0.0297960
  N       -0.1696500     1.2952110    -0.2577190
  C        1.7694220    -0.2160770    -0.5775760
  C        0.3234810     0.0737960    -0.3165740
  C        2.6425650     0.1799470     0.6157020
  C       -2.0442290     0.0157050     0.2553730
  C       -1.5038950     1.2642780     0.0601800
  H        1.8995250    -1.2779630    -0.8129470
  H        2.0693290     0.3522120    -1.4641890
  H        2.5091790     1.2412210     0.8363590
  H        3.6994690    -0.0050250     0.4023620
  H        2.3648890    -0.3937430     1.5043860
  H       -3.0646880    -0.2455350     0.5019360
  H       -2.0665380     2.1925616     0.0881734
units angstrom
no_reorient  #important for SAPT in psi4, default
symmetry c1  #important for SAPT in psi4, default
}

set PROPERTIES_ORIGIN ["COM"]
properties('MP2/aug-cc-pvtz', properties = ['dipole'])
--------------------------------------------------------------------------

    Molecular point group: c1
  Charge       = 0
  Multiplicity = 1
  Basis Set: AUG-CC-PVTZ
    Blend: AUG-CC-PVTZ
  Basis Set: (AUG-CC-PVTZ AUX)
    Blend: AUG-CC-PVTZ-JKFIT

    Orbital Energies [Eh]
    ---------------------

    Doubly Occupied:

       1A    -91.994290     2A    -15.565171     3A    -11.312719
       4A    -11.269253     5A    -11.261280     6A    -11.245728
       7A    -11.224160     8A     -8.995044     9A     -6.675946
      10A     -6.675435    11A     -6.674720    12A     -1.274819
      13A     -1.072247    14A     -1.061618    15A     -0.975128
      16A     -0.870122    17A     -0.791841    18A     -0.729315
      19A     -0.680727    20A     -0.629050    21A     -0.602385
      22A     -0.571464    23A     -0.556262    24A     -0.518882
      25A     -0.512106    26A     -0.503258    27A     -0.496455
      28A     -0.424852    29A     -0.387473    30A     -0.328567

  @DF-RHF Final Energy:  -645.48582153688085

   => Energetics <=

    Nuclear Repulsion Energy =            350.9981120448535421
    One-Electron Energy =               -1581.2072341271959885
    Two-Electron Energy =                 584.7233005454615977
    Total Energy =                       -645.4858215368808487
  Basis Set: (AUG-CC-PVTZ AUX)
    Blend: AUG-CC-PVTZ-RI
    Molecular point group: c1

    Geometry (in Angstrom), charge = 0, multiplicity = 1:

       Center              X                  Y                   Z               Mass
    ------------   -----------------  -----------------  -----------------  -----------------
         S           -0.769889873159    -1.161343593632     0.039940341687    31.972071174400
         N           -0.104593873159     1.311292406368    -0.247574658313    14.003074004430
         C            1.834478126841    -0.199995593632    -0.567431658313    12.000000000000
         C            0.388537126841     0.089877406368    -0.306429658313    12.000000000000
         C            2.707621126841     0.196028406368     0.625846341687    12.000000000000
         C           -1.979172873159     0.031786406368     0.265517341687    12.000000000000
         C           -1.438838873159     1.280359406368     0.070324341687    12.000000000000
         H            1.964581126841    -1.261881593632    -0.802802658313     1.007825032230
         H            2.134385126841     0.368293406368    -1.454044658313     1.007825032230
         H            2.574235126841     1.257302406368     0.846503341687     1.007825032230
         H            3.764525126841     0.011056406368     0.412506341687     1.007825032230
         H            2.429945126841    -0.377661593632     1.514530341687     1.007825032230
         H           -2.999631873159    -0.229453593632     0.512080341687     1.007825032230
         H           -2.001481873159     2.208643006368     0.098317741687     1.007825032230

  Basis Set: AUG-CC-PVTZ
    Blend: AUG-CC-PVTZ
  Basis Set: (AUG-CC-PVTZ AUX)
    Blend: AUG-CC-PVTZ-JKFIT
	 Reference Energy          =    -645.4858215368808487 [Eh]
	 Singles Energy            =      -0.0000000000000000 [Eh]
	 Same-Spin Energy          =      -0.3323375003901944 [Eh]
	 Opposite-Spin Energy      =      -1.0397186749390381 [Eh]
	 Correlation Energy        =      -1.3720561753292326 [Eh]
	 Total Energy              =    -646.8578777122100973 [Eh]

	 ================> DF-SCS-MP2 Energies <==================
	-----------------------------------------------------------
	 SCS Same-Spin Scale       =       0.3333333333333333 [-]
	 SCS Opposite-Spin Scale   =       1.2000000000000000 [-]
	 SCS Same-Spin Energy      =      -0.1107791667967315 [Eh]
	 SCS Opposite-Spin Energy  =      -1.2476624099268456 [Eh]
	 SCS Correlation Energy    =      -1.3584415767235771 [Eh]
	 SCS Total Energy          =    -646.8442631136043701 [Eh]
	-----------------------------------------------------------

  Dipole Moment: [D]
     X:    -0.3402      Y:    -1.2565      Z:     0.2298     Total:     1.3219

*** Psi4 exiting successfully. Buy a developer a beer!
