                               Psi4 1.3.2 release

  ==> Input File <==

--------------------------------------------------------------------------
#psi4
#
memory 32 gb

molecule  {
0 1
  S       -0.8349460    -1.1774250     0.0297960
  N       -0.1696500     1.2952110    -0.2577190
  C        1.7694220    -0.2160770    -0.5775760
  C        0.3234810     0.0737960    -0.3165740
  C        2.6425650     0.1799470     0.6157020
  C       -2.0442290     0.0157050     0.2553730
  C       -1.5038950     1.2642780     0.0601800
  H        1.8995250    -1.2779630    -0.8129470
  H        2.0693290     0.3522120    -1.4641890
  H        2.5091790     1.2412210     0.8363590
  H        3.6994690    -0.0050250     0.4023620
  H        2.3648890    -0.3937430     1.5043860
  H       -3.0646880    -0.2455350     0.5019360
  H       -2.0894520     2.1871587    -0.0090159
units angstrom
no_reorient  #important for SAPT in psi4, default
symmetry c1  #important for SAPT in psi4, default
}

set PROPERTIES_ORIGIN ["COM"]
properties('MP2/aug-cc-pvtz', properties = ['dipole'])
--------------------------------------------------------------------------

    Molecular point group: c1
  Charge       = 0
  Multiplicity = 1
  Basis Set: AUG-CC-PVTZ
    Blend: AUG-CC-PVTZ
  Basis Set: (AUG-CC-PVTZ AUX)
    Blend: AUG-CC-PVTZ-JKFIT

    Orbital Energies [Eh]
    ---------------------

    Doubly Occupied:

       1A    -91.994455     2A    -15.565227     3A    -11.312784
       4A    -11.270016     5A    -11.261605     6A    -11.245772
       7A    -11.224151     8A     -8.995209     9A     -6.676110
      10A     -6.675600    11A     -6.674885    12A     -1.274886
      13A     -1.072244    14A     -1.061759    15A     -0.974846
      16A     -0.870022    17A     -0.791388    18A     -0.729136
      19A     -0.679467    20A     -0.629087    21A     -0.603000
      22A     -0.569786    23A     -0.556508    24A     -0.519954
      25A     -0.512105    26A     -0.502018    27A     -0.496249
      28A     -0.424914    29A     -0.387502    30A     -0.328593

  @DF-RHF Final Energy:  -645.48454800114462

   => Energetics <=

    Nuclear Repulsion Energy =            350.9578218690010090
    One-Electron Energy =               -1581.1261825503238470
    Two-Electron Energy =                 584.6838126801782209
    Total Energy =                       -645.4845480011446170
  Basis Set: (AUG-CC-PVTZ AUX)
    Blend: AUG-CC-PVTZ-RI
    Molecular point group: c1

    Geometry (in Angstrom), charge = 0, multiplicity = 1:

       Center              X                  Y                   Z               Mass
    ------------   -----------------  -----------------  -----------------  -----------------
         S           -0.769685561746    -1.161295418973     0.040806924704    31.972071174400
         N           -0.104389561746     1.311340581027    -0.246708075296    14.003074004430
         C            1.834682438254    -0.199947418973    -0.566565075296    12.000000000000
         C            0.388741438254     0.089925581027    -0.305563075296    12.000000000000
         C            2.707825438254     0.196076581027     0.626712924704    12.000000000000
         C           -1.978968561746     0.031834581027     0.266383924704    12.000000000000
         C           -1.438634561746     1.280407581027     0.071190924704    12.000000000000
         H            1.964785438254    -1.261833418973    -0.801936075296     1.007825032230
         H            2.134589438254     0.368341581027    -1.453178075296     1.007825032230
         H            2.574439438254     1.257350581027     0.847369924704     1.007825032230
         H            3.764729438254     0.011104581027     0.413372924704     1.007825032230
         H            2.430149438254    -0.377613418973     1.515396924704     1.007825032230
         H           -2.999427561746    -0.229405418973     0.512946924704     1.007825032230
         H           -2.024191561746     2.203288281027     0.001995024704     1.007825032230

  Basis Set: AUG-CC-PVTZ
    Blend: AUG-CC-PVTZ
  Basis Set: (AUG-CC-PVTZ AUX)
    Blend: AUG-CC-PVTZ-JKFIT
	 Reference Energy          =    -645.4845480011446170 [Eh]
	 Singles Energy            =      -0.0000000000000000 [Eh]
	 Same-Spin Energy          =      -0.3324173114841416 [Eh]
	 Opposite-Spin Energy      =      -1.0398785756921787 [Eh]
	 Correlation Energy        =      -1.3722958871763202 [Eh]
	 Total Energy              =    -646.8568438883208955 [Eh]

	 ================> DF-SCS-MP2 Energies <==================
	-----------------------------------------------------------
	 SCS Same-Spin Scale       =       0.3333333333333333 [-]
	 SCS Opposite-Spin Scale   =       1.2000000000000000 [-]
	 SCS Same-Spin Energy      =      -0.1108057704947139 [Eh]
	 SCS Opposite-Spin Energy  =      -1.2478542908306143 [Eh]
	 SCS Correlation Energy    =      -1.3586600613253281 [Eh]
	 SCS Total Energy          =    -646.8432080624698983 [Eh]
	-----------------------------------------------------------

  Dipole Moment: [D]
     X:    -0.3481      Y:    -1.2747      Z:     0.1559     Total:     1.3305

*** Psi4 exiting successfully. Buy a developer a beer!
