                               Psi4 1.4a3.dev225

  ==> Input File <==

--------------------------------------------------------------------------
#psi4
#
memory 32 gb

molecule  {
0 1
  N        0.5479400     1.1907050     0.2959170
  C       -0.7486070     0.6692540     0.1554050
  C        1.7310100     0.4560470     0.0875670
  C       -3.4043000    -0.2987570    -0.0204040
  C       -1.1184250    -0.5206800     0.8026630
  C       -1.7211190     1.3742660    -0.5666580
  C       -2.4232850    -0.9959770     0.6985600
  C       -3.0306900     0.9005340    -0.6374610
  C        2.9509580     1.0658110     0.4223950
  C        1.7399610    -0.8480750    -0.4298540
  C       -4.8245050    -0.7978720    -0.0796260
  C        4.1550680     0.3942430     0.2262330
  C        2.9515180    -1.5184900    -0.6042170
  C        4.1464280    -0.9176828    -0.2822114
  H        0.6281830     2.1736720     0.0568290
  H       -0.3846330    -1.0553430     1.4003190
  H       -1.4458780     2.2938080    -1.0816330
  H       -2.6884880    -1.9242290     1.2030750
  H       -3.7690390     1.4656370    -1.2045950
  H        2.9440570     2.0709610     0.8408760
  H        0.8089320    -1.3225020    -0.7243660
  H       -5.3342430    -0.4266360    -0.9733710
  H       -4.8571770    -1.8911150    -0.1016080
  H       -5.3999470    -0.4674270     0.7922980
  H        5.0892700     0.8861500     0.4875790
  H        2.9428240    -2.5277610    -1.0100830
  H        5.1022700    -1.4382830    -0.4191710
units angstrom
no_reorient  #important for SAPT in psi4, default
symmetry c1  #important for SAPT in psi4, default
}

set PROPERTIES_ORIGIN ["COM"]
properties('MP2/aug-cc-pvtz', properties = ['dipole'])
--------------------------------------------------------------------------

    Molecular point group: c1
  Charge       = 0
  Multiplicity = 1
  Basis Set: AUG-CC-PVTZ
    Blend: AUG-CC-PVTZ
  Basis Set: (AUG-CC-PVTZ AUX)
    Blend: AUG-CC-PVTZ-JKFIT

    Orbital Energies [Eh]
    ---------------------

    Doubly Occupied:

       1A    -15.577166     2A    -11.282333     3A    -11.277279
       4A    -11.239026     5A    -11.236133     6A    -11.234760
       7A    -11.234668     8A    -11.234146     9A    -11.232518
      10A    -11.229931    11A    -11.229147    12A    -11.225556
      13A    -11.224234    14A    -11.223103    15A     -1.258094
      16A     -1.152183    17A     -1.128987    18A     -1.041042
      19A     -1.015682    20A     -1.011053    21A     -0.989609
      22A     -0.921484    23A     -0.842319    24A     -0.830799
      25A     -0.815716    26A     -0.785335    27A     -0.713453
      28A     -0.704025    29A     -0.667207    30A     -0.639986
      31A     -0.635216    32A     -0.619693    33A     -0.597096
      34A     -0.587896    35A     -0.585657    36A     -0.582905
      37A     -0.573251    38A     -0.545452    39A     -0.530670
      40A     -0.512324    41A     -0.499465    42A     -0.494968
      43A     -0.491116    44A     -0.485738    45A     -0.442291
      46A     -0.340160    47A     -0.336437    48A     -0.330769
      49A     -0.275856

  @DF-RHF Final Energy:  -554.49044874724166

   => Energetics <=

    Nuclear Repulsion Energy =            787.5690357166563444
    One-Electron Energy =               -2312.7911046536614776
    Two-Electron Energy =                 970.7316201897634755
    Total Energy =                       -554.4904487472416577
  Basis Set: (AUG-CC-PVTZ AUX)
    Blend: AUG-CC-PVTZ-RI
    Molecular point group: c1

    Geometry (in Angstrom), charge = 0, multiplicity = 1:

       Center              X                  Y                   Z               Mass
    ------------   -----------------  -----------------  -----------------  -----------------
         N            0.514585757461     1.179536584087     0.292242309634    14.003074004430
         C           -0.781961242539     0.658085584087     0.151730309634    12.000000000000
         C            1.697655757461     0.444878584087     0.083892309634    12.000000000000
         C           -3.437654242539    -0.309925415913    -0.024078690366    12.000000000000
         C           -1.151779242539    -0.531848415913     0.798988309634    12.000000000000
         C           -1.754473242539     1.363097584087    -0.570332690366    12.000000000000
         C           -2.456639242539    -1.007145415913     0.694885309634    12.000000000000
         C           -3.064044242539     0.889365584087    -0.641135690366    12.000000000000
         C            2.917603757461     1.054642584087     0.418720309634    12.000000000000
         C            1.706606757461    -0.859243415913    -0.433528690366    12.000000000000
         C           -4.857859242539    -0.809040415913    -0.083300690366    12.000000000000
         C            4.121713757461     0.383074584087     0.222558309634    12.000000000000
         C            2.918163757461    -1.529658415913    -0.607891690366    12.000000000000
         C            4.113073757461    -0.928851215913    -0.285886090366    12.000000000000
         H            0.594828757461     2.162503584087     0.053154309634     1.007825032230
         H           -0.417987242539    -1.066511415913     1.396644309634     1.007825032230
         H           -1.479232242539     2.282639584087    -1.085307690366     1.007825032230
         H           -2.721842242539    -1.935397415913     1.199400309634     1.007825032230
         H           -3.802393242539     1.454468584087    -1.208269690366     1.007825032230
         H            2.910702757461     2.059792584087     0.837201309634     1.007825032230
         H            0.775577757461    -1.333670415913    -0.728040690366     1.007825032230
         H           -5.367597242539    -0.437804415913    -0.977045690366     1.007825032230
         H           -4.890531242539    -1.902283415913    -0.105282690366     1.007825032230
         H           -5.433301242539    -0.478595415913     0.788623309634     1.007825032230
         H            5.055915757461     0.874981584087     0.483904309634     1.007825032230
         H            2.909469757461    -2.538929415913    -1.013757690366     1.007825032230
         H            5.068915757461    -1.449451415913    -0.422845690366     1.007825032230

  Basis Set: AUG-CC-PVTZ
    Blend: AUG-CC-PVTZ
  Basis Set: (AUG-CC-PVTZ AUX)
    Blend: AUG-CC-PVTZ-JKFIT
	 Reference Energy          =    -554.4904487472416577 [Eh]
	 Singles Energy            =      -0.0000000000000000 [Eh]
	 Same-Spin Energy          =      -0.6239178208614228 [Eh]
	 Opposite-Spin Energy      =      -1.9526418228184903 [Eh]
	 Correlation Energy        =      -2.5765596436799130 [Eh]
	 Total Energy              =    -557.0670083909216146 [Eh]

	 ================> DF-SCS-MP2 Energies <==================
	-----------------------------------------------------------
	 SCS Same-Spin Scale       =       0.3333333333333333 [-]
	 SCS Opposite-Spin Scale   =       1.2000000000000000 [-]
	 SCS Same-Spin Energy      =      -0.2079726069538076 [Eh]
	 SCS Opposite-Spin Energy  =      -2.3431701873821882 [Eh]
	 SCS Correlation Energy    =      -2.5511427943359957 [Eh]
	 SCS Total Energy          =    -557.0415915415776453 [Eh]
	-----------------------------------------------------------

  Dipole Moment: [D]
     X:    -0.6229      Y:     0.5860      Z:    -0.3369     Total:     0.9192

*** Psi4 exiting successfully. Buy a developer a beer!
