                               Psi4 1.4a3.dev225

  ==> Input File <==

--------------------------------------------------------------------------
#psi4
#
memory 32 gb

molecule  {
0 1
  N        0.5479400     1.1907050     0.2959170
  C       -0.7486070     0.6692540     0.1554050
  C        1.7310100     0.4560470     0.0875670
  C       -3.4043000    -0.2987570    -0.0204040
  C       -1.1184250    -0.5206800     0.8026630
  C       -1.7211190     1.3742660    -0.5666580
  C       -2.4232850    -0.9959770     0.6985600
  C       -3.0306900     0.9005340    -0.6374610
  C        2.9509580     1.0658110     0.4223950
  C        1.7399610    -0.8480750    -0.4298540
  C       -4.8245050    -0.7978720    -0.0796260
  C        4.1550680     0.3942430     0.2262330
  C        2.9515180    -1.5184900    -0.6042170
  C        4.1638000    -0.9089480    -0.2775300
  H        0.6281830     2.1736720     0.0568290
  H       -0.3846330    -1.0553430     1.4003190
  H       -1.4458780     2.2938080    -1.0816330
  H       -2.6884880    -1.9242290     1.2030750
  H       -3.7690390     1.4656370    -1.2045950
  H        2.9440570     2.0709610     0.8408760
  H        0.8089320    -1.3225020    -0.7243660
  H       -5.3342430    -0.4266360    -0.9733710
  H       -4.8541904    -1.7911798    -0.0995986
  H       -5.3999470    -0.4674270     0.7922980
  H        5.0892700     0.8861500     0.4875790
  H        2.9428240    -2.5277610    -1.0100830
  H        5.1022700    -1.4382830    -0.4191710
units angstrom
no_reorient  #important for SAPT in psi4, default
symmetry c1  #important for SAPT in psi4, default
}

set PROPERTIES_ORIGIN ["COM"]
properties('MP2/aug-cc-pvtz', properties = ['dipole'])
--------------------------------------------------------------------------

    Molecular point group: c1
  Charge       = 0
  Multiplicity = 1
  Basis Set: AUG-CC-PVTZ
    Blend: AUG-CC-PVTZ
  Basis Set: (AUG-CC-PVTZ AUX)
    Blend: AUG-CC-PVTZ-JKFIT

    Orbital Energies [Eh]
    ---------------------

    Doubly Occupied:

       1A    -15.577106     2A    -11.282504     3A    -11.277071
       4A    -11.237780     5A    -11.237078     6A    -11.235588
       7A    -11.234421     8A    -11.233846     9A    -11.232272
      10A    -11.229880    11A    -11.228478    12A    -11.225932
      13A    -11.224339    14A    -11.210760    15A     -1.258010
      16A     -1.151787    17A     -1.128273    18A     -1.042829
      19A     -1.015667    20A     -1.010616    21A     -0.991255
      22A     -0.927628    23A     -0.842721    24A     -0.830176
      25A     -0.817316    26A     -0.785711    27A     -0.713213
      28A     -0.703820    29A     -0.669325    30A     -0.640914
      31A     -0.636926    32A     -0.619166    33A     -0.598054
      34A     -0.587998    35A     -0.585309    36A     -0.582291
      37A     -0.579755    38A     -0.549456    39A     -0.534294
      40A     -0.513017    41A     -0.500908    42A     -0.495932
      43A     -0.489520    44A     -0.485797    45A     -0.441849
      46A     -0.340079    47A     -0.335563    48A     -0.330870
      49A     -0.275605

  @DF-RHF Final Energy:  -554.48486938876977

   => Energetics <=

    Nuclear Repulsion Energy =            787.7953532986700793
    One-Electron Energy =               -2313.2030291577248136
    Two-Electron Energy =                 970.9228064702849679
    Total Energy =                       -554.4848693887697664
  Basis Set: (AUG-CC-PVTZ AUX)
    Blend: AUG-CC-PVTZ-RI
    Molecular point group: c1

    Geometry (in Angstrom), charge = 0, multiplicity = 1:

       Center              X                  Y                   Z               Mass
    ------------   -----------------  -----------------  -----------------  -----------------
         N            0.513430823397     1.178414085950     0.291924448366    14.003074004430
         C           -0.783116176603     0.656963085950     0.151412448366    12.000000000000
         C            1.696500823397     0.443756085950     0.083574448366    12.000000000000
         C           -3.438809176603    -0.311047914050    -0.024396551634    12.000000000000
         C           -1.152934176603    -0.532970914050     0.798670448366    12.000000000000
         C           -1.755628176603     1.361975085950    -0.570650551634    12.000000000000
         C           -2.457794176603    -1.008267914050     0.694567448366    12.000000000000
         C           -3.065199176603     0.888243085950    -0.641453551634    12.000000000000
         C            2.916448823397     1.053520085950     0.418402448366    12.000000000000
         C            1.705451823397    -0.860365914050    -0.433846551634    12.000000000000
         C           -4.859014176603    -0.810162914050    -0.083618551634    12.000000000000
         C            4.120558823397     0.381952085950     0.222240448366    12.000000000000
         C            2.917008823397    -1.530780914050    -0.608209551634    12.000000000000
         C            4.129290823397    -0.921238914050    -0.281522551634    12.000000000000
         H            0.593673823397     2.161381085950     0.052836448366     1.007825032230
         H           -0.419142176603    -1.067633914050     1.396326448366     1.007825032230
         H           -1.480387176603     2.281517085950    -1.085625551634     1.007825032230
         H           -2.722997176603    -1.936519914050     1.199082448366     1.007825032230
         H           -3.803548176603     1.453346085950    -1.208587551634     1.007825032230
         H            2.909547823397     2.058670085950     0.836883448366     1.007825032230
         H            0.774422823397    -1.334792914050    -0.728358551634     1.007825032230
         H           -5.368752176603    -0.438926914050    -0.977363551634     1.007825032230
         H           -4.888699576603    -1.803470714050    -0.103591151634     1.007825032230
         H           -5.434456176603    -0.479717914050     0.788305448366     1.007825032230
         H            5.054760823397     0.873859085950     0.483586448366     1.007825032230
         H            2.908314823397    -2.540051914050    -1.014075551634     1.007825032230
         H            5.067760823397    -1.450573914050    -0.423163551634     1.007825032230

  Basis Set: AUG-CC-PVTZ
    Blend: AUG-CC-PVTZ
  Basis Set: (AUG-CC-PVTZ AUX)
    Blend: AUG-CC-PVTZ-JKFIT
	 Reference Energy          =    -554.4848693887697664 [Eh]
	 Singles Energy            =      -0.0000000000000000 [Eh]
	 Same-Spin Energy          =      -0.6239376701403776 [Eh]
	 Opposite-Spin Energy      =      -1.9521735215439031 [Eh]
	 Correlation Energy        =      -2.5761111916842809 [Eh]
	 Total Energy              =    -557.0609805804540429 [Eh]

	 ================> DF-SCS-MP2 Energies <==================
	-----------------------------------------------------------
	 SCS Same-Spin Scale       =       0.3333333333333333 [-]
	 SCS Opposite-Spin Scale   =       1.2000000000000000 [-]
	 SCS Same-Spin Energy      =      -0.2079792233801259 [Eh]
	 SCS Opposite-Spin Energy  =      -2.3426082258526835 [Eh]
	 SCS Correlation Energy    =      -2.5505874492328093 [Eh]
	 SCS Total Energy          =    -557.0354568380025739 [Eh]
	-----------------------------------------------------------

  Dipole Moment: [D]
     X:    -0.6663      Y:     0.5348      Z:    -0.3418     Total:     0.9202

*** Psi4 exiting successfully. Buy a developer a beer!
