                               Psi4 1.4a3.dev225

  ==> Input File <==

--------------------------------------------------------------------------
#psi4
#
memory 32 gb

molecule  {
0 1
  N        0.5479400     1.1907050     0.2959170
  C       -0.7486070     0.6692540     0.1554050
  C        1.7310100     0.4560470     0.0875670
  C       -3.4043000    -0.2987570    -0.0204040
  C       -1.1184250    -0.5206800     0.8026630
  C       -1.7211190     1.3742660    -0.5666580
  C       -2.4232850    -0.9959770     0.6985600
  C       -3.0306900     0.9005340    -0.6374610
  C        2.9509580     1.0658110     0.4223950
  C        1.7399610    -0.8480750    -0.4298540
  C       -4.8245050    -0.7978720    -0.0796260
  C        4.1550680     0.3942430     0.2262330
  C        2.9515180    -1.5184900    -0.6042170
  C        4.1638000    -0.9089480    -0.2775300
  H        0.6281830     2.1736720     0.0568290
  H       -0.3846330    -1.0553430     1.4003190
  H       -1.4458780     2.2938080    -1.0816330
  H       -2.6884880    -1.9242290     1.2030750
  H       -3.7690390     1.4656370    -1.2045950
  H        2.9440570     2.0709610     0.8408760
  H        0.8089320    -1.3225020    -0.7243660
  H       -5.3342430    -0.4266360    -0.9733710
  H       -4.8571770    -1.8911150    -0.1016080
  H       -5.3474292    -0.4975851     0.7127218
  H        5.0892700     0.8861500     0.4875790
  H        2.9428240    -2.5277610    -1.0100830
  H        5.1022700    -1.4382830    -0.4191710
units angstrom
no_reorient  #important for SAPT in psi4, default
symmetry c1  #important for SAPT in psi4, default
}

set PROPERTIES_ORIGIN ["COM"]
properties('MP2/aug-cc-pvtz', properties = ['dipole'])
--------------------------------------------------------------------------

    Molecular point group: c1
  Charge       = 0
  Multiplicity = 1
  Basis Set: AUG-CC-PVTZ
    Blend: AUG-CC-PVTZ
  Basis Set: (AUG-CC-PVTZ AUX)
    Blend: AUG-CC-PVTZ-JKFIT

    Orbital Energies [Eh]
    ---------------------

    Doubly Occupied:

       1A    -15.577064     2A    -11.282462     3A    -11.277019
       4A    -11.237745     5A    -11.237034     6A    -11.235694
       7A    -11.234459     8A    -11.233830     9A    -11.232344
      10A    -11.229797    11A    -11.228444    12A    -11.225887
      13A    -11.224301    14A    -11.210851    15A     -1.257974
      16A     -1.151775    17A     -1.128251    18A     -1.042795
      19A     -1.015646    20A     -1.010630    21A     -0.991153
      22A     -0.927662    23A     -0.842522    24A     -0.830352
      25A     -0.816990    26A     -0.785801    27A     -0.713102
      28A     -0.703909    29A     -0.668809    30A     -0.641251
      31A     -0.635038    32A     -0.619107    33A     -0.598522
      34A     -0.593642    35A     -0.585011    36A     -0.582679
      37A     -0.582122    38A     -0.545868    39A     -0.530155
      40A     -0.513196    41A     -0.502053    42A     -0.494751
      43A     -0.489480    44A     -0.485922    45A     -0.442419
      46A     -0.340066    47A     -0.335545    48A     -0.331157
      49A     -0.275756

  @DF-RHF Final Energy:  -554.48489588732969

   => Energetics <=

    Nuclear Repulsion Energy =            787.8104568071345284
    One-Electron Energy =               -2313.2346189379036332
    Two-Electron Energy =                 970.9392662434395334
    Total Energy =                       -554.4848958873296851
  Basis Set: (AUG-CC-PVTZ AUX)
    Blend: AUG-CC-PVTZ-RI
    Molecular point group: c1

    Geometry (in Angstrom), charge = 0, multiplicity = 1:

       Center              X                  Y                   Z               Mass
    ------------   -----------------  -----------------  -----------------  -----------------
         N            0.513158199285     1.179130130995     0.292373502734    14.003074004430
         C           -0.783388800715     0.657679130995     0.151861502734    12.000000000000
         C            1.696228199285     0.444472130995     0.084023502734    12.000000000000
         C           -3.439081800715    -0.310331869005    -0.023947497266    12.000000000000
         C           -1.153206800715    -0.532254869005     0.799119502734    12.000000000000
         C           -1.755900800715     1.362691130995    -0.570201497266    12.000000000000
         C           -2.458066800715    -1.007551869005     0.695016502734    12.000000000000
         C           -3.065471800715     0.888959130995    -0.641004497266    12.000000000000
         C            2.916176199285     1.054236130995     0.418851502734    12.000000000000
         C            1.705179199285    -0.859649869005    -0.433397497266    12.000000000000
         C           -4.859286800715    -0.809446869005    -0.083169497266    12.000000000000
         C            4.120286199285     0.382668130995     0.222689502734    12.000000000000
         C            2.916736199285    -1.530064869005    -0.607760497266    12.000000000000
         C            4.129018199285    -0.920522869005    -0.281073497266    12.000000000000
         H            0.593401199285     2.162097130995     0.053285502734     1.007825032230
         H           -0.419414800715    -1.066917869005     1.396775502734     1.007825032230
         H           -1.480659800715     2.282233130995    -1.085176497266     1.007825032230
         H           -2.723269800715    -1.935803869005     1.199531502734     1.007825032230
         H           -3.803820800715     1.454062130995    -1.208138497266     1.007825032230
         H            2.909275199285     2.059386130995     0.837332502734     1.007825032230
         H            0.774150199285    -1.334076869005    -0.727909497266     1.007825032230
         H           -5.369024800715    -0.438210869005    -0.976914497266     1.007825032230
         H           -4.891958800715    -1.902689869005    -0.105151497266     1.007825032230
         H           -5.382211000715    -0.509159969005     0.709178302734     1.007825032230
         H            5.054488199285     0.874575130995     0.484035502734     1.007825032230
         H            2.908042199285    -2.539335869005    -1.013626497266     1.007825032230
         H            5.067488199285    -1.449857869005    -0.422714497266     1.007825032230

  Basis Set: AUG-CC-PVTZ
    Blend: AUG-CC-PVTZ
  Basis Set: (AUG-CC-PVTZ AUX)
    Blend: AUG-CC-PVTZ-JKFIT
	 Reference Energy          =    -554.4848958873296851 [Eh]
	 Singles Energy            =      -0.0000000000000000 [Eh]
	 Same-Spin Energy          =      -0.6239597283249138 [Eh]
	 Opposite-Spin Energy      =      -1.9522164574530732 [Eh]
	 Correlation Energy        =      -2.5761761857779870 [Eh]
	 Total Energy              =    -557.0610720731076526 [Eh]

	 ================> DF-SCS-MP2 Energies <==================
	-----------------------------------------------------------
	 SCS Same-Spin Scale       =       0.3333333333333333 [-]
	 SCS Opposite-Spin Scale   =       1.2000000000000000 [-]
	 SCS Same-Spin Energy      =      -0.2079865761083046 [Eh]
	 SCS Opposite-Spin Energy  =      -2.3426597489436878 [Eh]
	 SCS Correlation Energy    =      -2.5506463250519924 [Eh]
	 SCS Total Energy          =    -557.0355422123816425 [Eh]
	-----------------------------------------------------------

  Dipole Moment: [D]
     X:    -0.6842      Y:     0.5773      Z:    -0.3177     Total:     0.9499

*** Psi4 exiting successfully. Buy a developer a beer!
