                               Psi4 1.4a3.dev225

  ==> Input File <==

--------------------------------------------------------------------------
#psi4
#
memory 32 gb

molecule  {
0 1
  N        0.5479400     1.1907050     0.2959170
  C       -0.7486070     0.6692540     0.1554050
  C        1.7478136     0.4456124     0.0846077
  C       -3.4043000    -0.2987570    -0.0204040
  C       -1.1184250    -0.5206800     0.8026630
  C       -1.7211190     1.3742660    -0.5666580
  C       -2.4232850    -0.9959770     0.6985600
  C       -3.0306900     0.9005340    -0.6374610
  C        2.9509580     1.0658110     0.4223950
  C        1.7399610    -0.8480750    -0.4298540
  C       -4.8245050    -0.7978720    -0.0796260
  C        4.1550680     0.3942430     0.2262330
  C        2.9515180    -1.5184900    -0.6042170
  C        4.1638000    -0.9089480    -0.2775300
  H        0.6281830     2.1736720     0.0568290
  H       -0.3846330    -1.0553430     1.4003190
  H       -1.4458780     2.2938080    -1.0816330
  H       -2.6884880    -1.9242290     1.2030750
  H       -3.7690390     1.4656370    -1.2045950
  H        2.9440570     2.0709610     0.8408760
  H        0.8089320    -1.3225020    -0.7243660
  H       -5.3342430    -0.4266360    -0.9733710
  H       -4.8571770    -1.8911150    -0.1016080
  H       -5.3999470    -0.4674270     0.7922980
  H        5.0892700     0.8861500     0.4875790
  H        2.9428240    -2.5277610    -1.0100830
  H        5.1022700    -1.4382830    -0.4191710
units angstrom
no_reorient  #important for SAPT in psi4, default
symmetry c1  #important for SAPT in psi4, default
}

set PROPERTIES_ORIGIN ["COM"]
properties('MP2/aug-cc-pvtz', properties = ['dipole'])
--------------------------------------------------------------------------

    Molecular point group: c1
  Charge       = 0
  Multiplicity = 1
  Basis Set: AUG-CC-PVTZ
    Blend: AUG-CC-PVTZ
  Basis Set: (AUG-CC-PVTZ AUX)
    Blend: AUG-CC-PVTZ-JKFIT

    Orbital Energies [Eh]
    ---------------------

    Doubly Occupied:

       1A    -15.575345     2A    -11.281642     3A    -11.276294
       4A    -11.238651     5A    -11.237958     6A    -11.235300
       7A    -11.234063     8A    -11.233439     9A    -11.231474
      10A    -11.229003    11A    -11.228969    12A    -11.226187
      13A    -11.225733    14A    -11.222557    15A     -1.252764
      16A     -1.152523    17A     -1.128696    18A     -1.039511
      19A     -1.016371    20A     -1.011494    21A     -0.990819
      22A     -0.920152    23A     -0.842198    24A     -0.829867
      25A     -0.816702    26A     -0.785001    27A     -0.712395
      28A     -0.702092    29A     -0.667293    30A     -0.639553
      31A     -0.634350    32A     -0.620090    33A     -0.597309
      34A     -0.586783    35A     -0.586412    36A     -0.582416
      37A     -0.572706    38A     -0.544494    39A     -0.529883
      40A     -0.512877    41A     -0.501499    42A     -0.495122
      43A     -0.491719    44A     -0.485094    45A     -0.440632
      46A     -0.340330    47A     -0.336041    48A     -0.331691
      49A     -0.276615

  @DF-RHF Final Energy:  -554.49059936032972

   => Energetics <=

    Nuclear Repulsion Energy =            787.3145559513241096
    One-Electron Energy =               -2312.3100911414280745
    Two-Electron Energy =                 970.5049358297742401
    Total Energy =                       -554.4905993603297247
  Basis Set: (AUG-CC-PVTZ AUX)
    Blend: AUG-CC-PVTZ-RI
    Molecular point group: c1

    Geometry (in Angstrom), charge = 0, multiplicity = 1:

       Center              X                  Y                   Z               Mass
    ------------   -----------------  -----------------  -----------------  -----------------
         N            0.512346017153     1.179647982587     0.292129449676    14.003074004430
         C           -0.784200982847     0.658196982587     0.151617449676    12.000000000000
         C            1.712219617153     0.434555382587     0.080820149676    12.000000000000
         C           -3.439893982847    -0.309814017413    -0.024191550324    12.000000000000
         C           -1.154018982847    -0.531737017413     0.798875449676    12.000000000000
         C           -1.756712982847     1.363208982587    -0.570445550324    12.000000000000
         C           -2.458878982847    -1.007034017413     0.694772449676    12.000000000000
         C           -3.066283982847     0.889476982587    -0.641248550324    12.000000000000
         C            2.915364017153     1.054753982587     0.418607449676    12.000000000000
         C            1.704367017153    -0.859132017413    -0.433641550324    12.000000000000
         C           -4.860098982847    -0.808929017413    -0.083413550324    12.000000000000
         C            4.119474017153     0.383185982587     0.222445449676    12.000000000000
         C            2.915924017153    -1.529547017413    -0.608004550324    12.000000000000
         C            4.128206017153    -0.920005017413    -0.281317550324    12.000000000000
         H            0.592589017153     2.162614982587     0.053041449676     1.007825032230
         H           -0.420226982847    -1.066400017413     1.396531449676     1.007825032230
         H           -1.481471982847     2.282750982587    -1.085420550324     1.007825032230
         H           -2.724081982847    -1.935286017413     1.199287449676     1.007825032230
         H           -3.804632982847     1.454579982587    -1.208382550324     1.007825032230
         H            2.908463017153     2.059903982587     0.837088449676     1.007825032230
         H            0.773338017153    -1.333559017413    -0.728153550324     1.007825032230
         H           -5.369836982847    -0.437693017413    -0.977158550324     1.007825032230
         H           -4.892770982847    -1.902172017413    -0.105395550324     1.007825032230
         H           -5.435540982847    -0.478484017413     0.788510449676     1.007825032230
         H            5.053676017153     0.875092982587     0.483791449676     1.007825032230
         H            2.907230017153    -2.538818017413    -1.013870550324     1.007825032230
         H            5.066676017153    -1.449340017413    -0.422958550324     1.007825032230

  Basis Set: AUG-CC-PVTZ
    Blend: AUG-CC-PVTZ
  Basis Set: (AUG-CC-PVTZ AUX)
    Blend: AUG-CC-PVTZ-JKFIT
	 Reference Energy          =    -554.4905993603297247 [Eh]
	 Singles Energy            =      -0.0000000000000000 [Eh]
	 Same-Spin Energy          =      -0.6238021158845577 [Eh]
	 Opposite-Spin Energy      =      -1.9525334541422890 [Eh]
	 Correlation Energy        =      -2.5763355700268464 [Eh]
	 Total Energy              =    -557.0669349303565241 [Eh]

	 ================> DF-SCS-MP2 Energies <==================
	-----------------------------------------------------------
	 SCS Same-Spin Scale       =       0.3333333333333333 [-]
	 SCS Opposite-Spin Scale   =       1.2000000000000000 [-]
	 SCS Same-Spin Energy      =      -0.2079340386281859 [Eh]
	 SCS Opposite-Spin Energy  =      -2.3430401449707468 [Eh]
	 SCS Correlation Energy    =      -2.5509741835989326 [Eh]
	 SCS Total Energy          =    -557.0415735439286209 [Eh]
	-----------------------------------------------------------

  Dipole Moment: [D]
     X:    -0.4675      Y:     0.5333      Z:    -0.3583     Total:     0.7946

*** Psi4 exiting successfully. Buy a developer a beer!
