                               Psi4 1.4a3.dev225

  ==> Input File <==

--------------------------------------------------------------------------
#psi4
#
memory 32 gb

molecule  {
0 1
  N        0.5479400     1.1907050     0.2959170
  C       -0.7486070     0.6692540     0.1554050
  C        1.7310100     0.4560470     0.0875670
  C       -3.4043000    -0.2987570    -0.0204040
  C       -1.1710998    -0.6901676     0.8948548
  C       -1.7211190     1.3742660    -0.5666580
  C       -2.4232850    -0.9959770     0.6985600
  C       -3.0306900     0.9005340    -0.6374610
  C        2.9509580     1.0658110     0.4223950
  C        1.7399610    -0.8480750    -0.4298540
  C       -4.8245050    -0.7978720    -0.0796260
  C        4.1550680     0.3942430     0.2262330
  C        2.9515180    -1.5184900    -0.6042170
  C        4.1638000    -0.9089480    -0.2775300
  H        0.6281830     2.1736720     0.0568290
  H       -0.3846330    -1.0553430     1.4003190
  H       -1.4458780     2.2938080    -1.0816330
  H       -2.6884880    -1.9242290     1.2030750
  H       -3.7690390     1.4656370    -1.2045950
  H        2.9440570     2.0709610     0.8408760
  H        0.8089320    -1.3225020    -0.7243660
  H       -5.3342430    -0.4266360    -0.9733710
  H       -4.8571770    -1.8911150    -0.1016080
  H       -5.3999470    -0.4674270     0.7922980
  H        5.0892700     0.8861500     0.4875790
  H        2.9428240    -2.5277610    -1.0100830
  H        5.1022700    -1.4382830    -0.4191710
units angstrom
no_reorient  #important for SAPT in psi4, default
symmetry c1  #important for SAPT in psi4, default
}

set PROPERTIES_ORIGIN ["COM"]
properties('MP2/aug-cc-pvtz', properties = ['dipole'])
--------------------------------------------------------------------------

    Molecular point group: c1
  Charge       = 0
  Multiplicity = 1
  Basis Set: AUG-CC-PVTZ
    Blend: AUG-CC-PVTZ
  Basis Set: (AUG-CC-PVTZ AUX)
    Blend: AUG-CC-PVTZ-JKFIT

    Orbital Energies [Eh]
    ---------------------

    Doubly Occupied:

       1A    -15.581830     2A    -11.292351     3A    -11.284431
       4A    -11.239709     5A    -11.239051     6A    -11.234981
       7A    -11.234864     8A    -11.232743     9A    -11.230750
      10A    -11.228357    11A    -11.226746    12A    -11.226628
      13A    -11.226556    14A    -11.221787    15A     -1.256740
      16A     -1.148541    17A     -1.130146    18A     -1.033347
      19A     -1.027694    20A     -1.013900    21A     -0.989825
      22A     -0.912852    23A     -0.839625    24A     -0.834543
      25A     -0.814000    26A     -0.787555    27A     -0.714043
      28A     -0.700033    29A     -0.677377    30A     -0.664385
      31A     -0.632661    32A     -0.618668    33A     -0.600509
      34A     -0.592865    35A     -0.585412    36A     -0.574131
      37A     -0.568407    38A     -0.541394    39A     -0.528628
      40A     -0.517675    41A     -0.507062    42A     -0.493915
      43A     -0.490431    44A     -0.460770    45A     -0.439979
      46A     -0.356217    47A     -0.338911    48A     -0.324555
      49A     -0.267512

  @DF-RHF Final Energy:  -554.44972311920890

   => Energetics <=

    Nuclear Repulsion Energy =            784.7989161302070897
    One-Electron Energy =               -2307.1270931073331667
    Two-Electron Energy =                 967.8784538579171794
    Total Energy =                       -554.4497231192088975
  Basis Set: (AUG-CC-PVTZ AUX)
    Blend: AUG-CC-PVTZ-RI
    Molecular point group: c1

    Geometry (in Angstrom), charge = 0, multiplicity = 1:

       Center              X                  Y                   Z               Mass
    ------------   -----------------  -----------------  -----------------  -----------------
         N            0.516899370219     1.190071718098     0.285893604391    14.003074004430
         C           -0.779647629781     0.668620718098     0.145381604391    12.000000000000
         C            1.699969370219     0.455413718098     0.077543604391    12.000000000000
         C           -3.435340629781    -0.299390281902    -0.030427395609    12.000000000000
         C           -1.202140429781    -0.690800881902     0.884831404391    12.000000000000
         C           -1.752159629781     1.373632718098    -0.576681395609    12.000000000000
         C           -2.454325629781    -0.996610281902     0.688536604391    12.000000000000
         C           -3.061730629781     0.899900718098    -0.647484395609    12.000000000000
         C            2.919917370219     1.065177718098     0.412371604391    12.000000000000
         C            1.708920370219    -0.848708281902    -0.439877395609    12.000000000000
         C           -4.855545629781    -0.798505281902    -0.089649395609    12.000000000000
         C            4.124027370219     0.393609718098     0.216209604391    12.000000000000
         C            2.920477370219    -1.519123281902    -0.614240395609    12.000000000000
         C            4.132759370219    -0.909581281902    -0.287553395609    12.000000000000
         H            0.597142370219     2.173038718098     0.046805604391     1.007825032230
         H           -0.415673629781    -1.055976281902     1.390295604391     1.007825032230
         H           -1.476918629781     2.293174718098    -1.091656395609     1.007825032230
         H           -2.719528629781    -1.924862281902     1.193051604391     1.007825032230
         H           -3.800079629781     1.465003718098    -1.214618395609     1.007825032230
         H            2.913016370219     2.070327718098     0.830852604391     1.007825032230
         H            0.777891370219    -1.323135281902    -0.734389395609     1.007825032230
         H           -5.365283629781    -0.427269281902    -0.983394395609     1.007825032230
         H           -4.888217629781    -1.891748281902    -0.111631395609     1.007825032230
         H           -5.430987629781    -0.468060281902     0.782274604391     1.007825032230
         H            5.058229370219     0.885516718098     0.477555604391     1.007825032230
         H            2.911783370219    -2.528394281902    -1.020106395609     1.007825032230
         H            5.071229370219    -1.438916281902    -0.429194395609     1.007825032230

  Basis Set: AUG-CC-PVTZ
    Blend: AUG-CC-PVTZ
  Basis Set: (AUG-CC-PVTZ AUX)
    Blend: AUG-CC-PVTZ-JKFIT
	 Reference Energy          =    -554.4497231192088975 [Eh]
	 Singles Energy            =      -0.0000000000000000 [Eh]
	 Same-Spin Energy          =      -0.6233570846945883 [Eh]
	 Opposite-Spin Energy      =      -1.9549894834843558 [Eh]
	 Correlation Energy        =      -2.5783465681789441 [Eh]
	 Total Energy              =    -557.0280696873878696 [Eh]

	 ================> DF-SCS-MP2 Energies <==================
	-----------------------------------------------------------
	 SCS Same-Spin Scale       =       0.3333333333333333 [-]
	 SCS Opposite-Spin Scale   =       1.2000000000000000 [-]
	 SCS Same-Spin Energy      =      -0.2077856948981961 [Eh]
	 SCS Opposite-Spin Energy  =      -2.3459873801812270 [Eh]
	 SCS Correlation Energy    =      -2.5537730750794232 [Eh]
	 SCS Total Energy          =    -557.0034961942883456 [Eh]
	-----------------------------------------------------------

  Dipole Moment: [D]
     X:    -0.3703      Y:     0.5938      Z:    -0.3134     Total:     0.7668

*** Psi4 exiting successfully. Buy a developer a beer!
