                               Psi4 1.4a3.dev225

  ==> Input File <==

--------------------------------------------------------------------------
#psi4
#
memory 32 gb

molecule  {
0 1
  N        0.5479400     1.1907050     0.2959170
  C       -0.7486070     0.6692540     0.1554050
  C        1.7310100     0.4560470     0.0875670
  C       -3.4043000    -0.2987570    -0.0204040
  C       -1.1184250    -0.5206800     0.8026630
  C       -1.7211190     1.3742660    -0.5666580
  C       -2.4232850    -0.9959770     0.6985600
  C       -3.0306900     0.9005340    -0.6374610
  C        2.9509580     1.0658110     0.4223950
  C        1.7386851    -0.6621764    -0.3560972
  C       -4.8245050    -0.7978720    -0.0796260
  C        4.1550680     0.3942430     0.2262330
  C        2.9515180    -1.5184900    -0.6042170
  C        4.1638000    -0.9089480    -0.2775300
  H        0.6281830     2.1736720     0.0568290
  H       -0.3846330    -1.0553430     1.4003190
  H       -1.4458780     2.2938080    -1.0816330
  H       -2.6884880    -1.9242290     1.2030750
  H       -3.7690390     1.4656370    -1.2045950
  H        2.9440570     2.0709610     0.8408760
  H        0.8089320    -1.3225020    -0.7243660
  H       -5.3342430    -0.4266360    -0.9733710
  H       -4.8571770    -1.8911150    -0.1016080
  H       -5.3999470    -0.4674270     0.7922980
  H        5.0892700     0.8861500     0.4875790
  H        2.9428240    -2.5277610    -1.0100830
  H        5.1022700    -1.4382830    -0.4191710
units angstrom
no_reorient  #important for SAPT in psi4, default
symmetry c1  #important for SAPT in psi4, default
}

set PROPERTIES_ORIGIN ["COM"]
properties('MP2/aug-cc-pvtz', properties = ['dipole'])
--------------------------------------------------------------------------

    Molecular point group: c1
  Charge       = 0
  Multiplicity = 1
  Basis Set: AUG-CC-PVTZ
    Blend: AUG-CC-PVTZ
  Basis Set: (AUG-CC-PVTZ AUX)
    Blend: AUG-CC-PVTZ-JKFIT

    Orbital Energies [Eh]
    ---------------------

    Doubly Occupied:

       1A    -15.569652     2A    -11.274029     3A    -11.252413
       4A    -11.248432     5A    -11.238632     6A    -11.234923
       7A    -11.233219     8A    -11.231893     9A    -11.231283
      10A    -11.230065    11A    -11.229353    12A    -11.226955
      13A    -11.221136    14A    -11.218598    15A     -1.261647
      16A     -1.159028    17A     -1.128818    18A     -1.045736
      19A     -1.016869    20A     -1.008643    21A     -0.994959
      22A     -0.920336    23A     -0.850606    24A     -0.830542
      25A     -0.812775    26A     -0.778033    27A     -0.716092
      28A     -0.700623    29A     -0.661411    30A     -0.643872
      31A     -0.633439    32A     -0.618009    33A     -0.611241
      34A     -0.586297    35A     -0.580917    36A     -0.573226
      37A     -0.568738    38A     -0.546717    39A     -0.533034
      40A     -0.516021    41A     -0.502978    42A     -0.495160
      43A     -0.484168    44A     -0.460394    45A     -0.439706
      46A     -0.352228    47A     -0.335254    48A     -0.323137
      49A     -0.282302

  @DF-RHF Final Energy:  -554.43018649069290

   => Energetics <=

    Nuclear Repulsion Energy =            790.3560320591159325
    One-Electron Energy =               -2318.3453591102888822
    Two-Electron Energy =                 973.5591405604800457
    Total Energy =                       -554.4301864906929040
  Basis Set: (AUG-CC-PVTZ AUX)
    Blend: AUG-CC-PVTZ-RI
    Molecular point group: c1

    Geometry (in Angstrom), charge = 0, multiplicity = 1:

       Center              X                  Y                   Z               Mass
    ------------   -----------------  -----------------  -----------------  -----------------
         N            0.513530879596     1.166781042958     0.287101764968    14.003074004430
         C           -0.783016120404     0.645330042958     0.146589764968    12.000000000000
         C            1.696600879596     0.432123042958     0.078751764968    12.000000000000
         C           -3.438709120404    -0.322680957042    -0.029219235032    12.000000000000
         C           -1.152834120404    -0.544603957042     0.793847764968    12.000000000000
         C           -1.755528120404     1.350342042958    -0.575473235032    12.000000000000
         C           -2.457694120404    -1.019900957042     0.689744764968    12.000000000000
         C           -3.065099120404     0.876610042958    -0.646276235032    12.000000000000
         C            2.916548879596     1.041887042958     0.413579764968    12.000000000000
         C            1.704275979596    -0.686100357042    -0.364912435032    12.000000000000
         C           -4.858914120404    -0.821795957042    -0.088441235032    12.000000000000
         C            4.120658879596     0.370319042958     0.217417764968    12.000000000000
         C            2.917108879596    -1.542413957042    -0.613032235032    12.000000000000
         C            4.129390879596    -0.932871957042    -0.286345235032    12.000000000000
         H            0.593773879596     2.149748042958     0.048013764968     1.007825032230
         H           -0.419042120404    -1.079266957042     1.391503764968     1.007825032230
         H           -1.480287120404     2.269884042958    -1.090448235032     1.007825032230
         H           -2.722897120404    -1.948152957042     1.194259764968     1.007825032230
         H           -3.803448120404     1.441713042958    -1.213410235032     1.007825032230
         H            2.909647879596     2.047037042958     0.832060764968     1.007825032230
         H            0.774522879596    -1.346425957042    -0.733181235032     1.007825032230
         H           -5.368652120404    -0.450559957042    -0.982186235032     1.007825032230
         H           -4.891586120404    -1.915038957042    -0.110423235032     1.007825032230
         H           -5.434356120404    -0.491350957042     0.783482764968     1.007825032230
         H            5.054860879596     0.862226042958     0.478763764968     1.007825032230
         H            2.908414879596    -2.551684957042    -1.018898235032     1.007825032230
         H            5.067860879596    -1.462206957042    -0.427986235032     1.007825032230

  Basis Set: AUG-CC-PVTZ
    Blend: AUG-CC-PVTZ
  Basis Set: (AUG-CC-PVTZ AUX)
    Blend: AUG-CC-PVTZ-JKFIT
	 Reference Energy          =    -554.4301864906929040 [Eh]
	 Singles Energy            =      -0.0000000000000000 [Eh]
	 Same-Spin Energy          =      -0.6234501026120328 [Eh]
	 Opposite-Spin Energy      =      -1.9543542217842291 [Eh]
	 Correlation Energy        =      -2.5778043243962618 [Eh]
	 Total Energy              =    -557.0079908150892152 [Eh]

	 ================> DF-SCS-MP2 Energies <==================
	-----------------------------------------------------------
	 SCS Same-Spin Scale       =       0.3333333333333333 [-]
	 SCS Opposite-Spin Scale   =       1.2000000000000000 [-]
	 SCS Same-Spin Energy      =      -0.2078167008706776 [Eh]
	 SCS Opposite-Spin Energy  =      -2.3452250661410750 [Eh]
	 SCS Correlation Energy    =      -2.5530417670117527 [Eh]
	 SCS Total Energy          =    -556.9832282577046954 [Eh]
	-----------------------------------------------------------

  Dipole Moment: [D]
     X:    -0.1139      Y:     0.4000      Z:    -0.3966     Total:     0.5747

*** Psi4 exiting successfully. Buy a developer a beer!
