                               Psi4 1.4a3.dev225

  ==> Input File <==

--------------------------------------------------------------------------
#psi4
#
memory 32 gb

molecule  {
0 1
  N        0.5479400     1.1907050     0.2959170
  C       -0.7486070     0.6692540     0.1554050
  C        1.7310100     0.4560470     0.0875670
  C       -3.4043000    -0.2987570    -0.0204040
  C       -1.1184250    -0.5206800     0.8026630
  C       -1.7211190     1.3742660    -0.5666580
  C       -2.4232850    -0.9959770     0.6985600
  C       -3.0306900     0.9005340    -0.6374610
  C        2.9509580     1.0658110     0.4223950
  C        1.7399610    -0.8480750    -0.4298540
  C       -4.8245050    -0.7978720    -0.0796260
  C        4.1550680     0.3942430     0.2262330
  C        2.9515180    -1.5184900    -0.6042170
  C        4.1638000    -0.9089480    -0.2775300
  H        0.6281830     2.1736720     0.0568290
  H       -0.3846330    -1.0553430     1.4003190
  H       -1.4458780     2.2938080    -1.0816330
  H       -2.6884880    -1.9242290     1.2030750
  H       -3.7690390     1.4656370    -1.2045950
  H        2.9440570     2.0709610     0.8408760
  H        0.8089320    -1.3225020    -0.7243660
  H       -5.3342430    -0.4266360    -0.9733710
  H       -4.8571770    -1.8911150    -0.1016080
  H       -5.3999470    -0.4674270     0.7922980
  H        5.0892700     0.8861500     0.4875790
  H        2.9428240    -2.5277610    -1.0100830
  H        5.2749844    -1.5357009    -0.4452384
units angstrom
no_reorient  #important for SAPT in psi4, default
symmetry c1  #important for SAPT in psi4, default
}

set PROPERTIES_ORIGIN ["COM"]
properties('MP2/aug-cc-pvtz', properties = ['dipole'])
--------------------------------------------------------------------------

    Molecular point group: c1
  Charge       = 0
  Multiplicity = 1
  Basis Set: AUG-CC-PVTZ
    Blend: AUG-CC-PVTZ
  Basis Set: (AUG-CC-PVTZ AUX)
    Blend: AUG-CC-PVTZ-JKFIT

    Orbital Energies [Eh]
    ---------------------

    Doubly Occupied:

       1A    -15.578107     2A    -11.283796     3A    -11.277945
       4A    -11.246522     5A    -11.240305     6A    -11.239570
       7A    -11.236702     8A    -11.235328     9A    -11.234721
      10A    -11.233129    11A    -11.230589    12A    -11.230351
      13A    -11.227806    14A    -11.223510    15A     -1.259058
      16A     -1.152626    17A     -1.128791    18A     -1.040626
      19A     -1.016781    20A     -1.012055    21A     -0.986735
      22A     -0.921025    23A     -0.843005    24A     -0.829299
      25A     -0.813900    26A     -0.784642    27A     -0.712967
      28A     -0.704540    29A     -0.654404    30A     -0.638784
      31A     -0.633024    32A     -0.620232    33A     -0.594263
      34A     -0.587697    35A     -0.586060    36A     -0.582674
      37A     -0.573601    38A     -0.546104    39A     -0.531324
      40A     -0.505775    41A     -0.496090    42A     -0.492941
      43A     -0.487710    44A     -0.483199    45A     -0.442980
      46A     -0.341214    47A     -0.336925    48A     -0.331972
      49A     -0.276692

  @DF-RHF Final Energy:  -554.46868840474951

   => Energetics <=

    Nuclear Repulsion Energy =            786.3976047869459762
    One-Electron Energy =               -2310.3963932434680828
    Two-Electron Energy =                 969.5301000517725925
    Total Energy =                       -554.4686884047495141
  Basis Set: (AUG-CC-PVTZ AUX)
    Blend: AUG-CC-PVTZ-RI
    Molecular point group: c1

    Geometry (in Angstrom), charge = 0, multiplicity = 1:

       Center              X                  Y                   Z               Mass
    ------------   -----------------  -----------------  -----------------  -----------------
         N            0.512496626554     1.179500334891     0.292078985560    14.003074004430
         C           -0.784050373446     0.658049334891     0.151566985560    12.000000000000
         C            1.695566626554     0.444842334891     0.083728985560    12.000000000000
         C           -3.439743373446    -0.309961665109    -0.024242014440    12.000000000000
         C           -1.153868373446    -0.531884665109     0.798824985560    12.000000000000
         C           -1.756562373446     1.363061334891    -0.570496014440    12.000000000000
         C           -2.458728373446    -1.007181665109     0.694721985560    12.000000000000
         C           -3.066133373446     0.889329334891    -0.641299014440    12.000000000000
         C            2.915514626554     1.054606334891     0.418556985560    12.000000000000
         C            1.704517626554    -0.859279665109    -0.433692014440    12.000000000000
         C           -4.859948373446    -0.809076665109    -0.083464014440    12.000000000000
         C            4.119624626554     0.383038334891     0.222394985560    12.000000000000
         C            2.916074626554    -1.529694665109    -0.608055014440    12.000000000000
         C            4.128356626554    -0.920152665109    -0.281368014440    12.000000000000
         H            0.592739626554     2.162467334891     0.052990985560     1.007825032230
         H           -0.420076373446    -1.066547665109     1.396480985560     1.007825032230
         H           -1.481321373446     2.282603334891    -1.085471014440     1.007825032230
         H           -2.723931373446    -1.935433665109     1.199236985560     1.007825032230
         H           -3.804482373446     1.454432334891    -1.208433014440     1.007825032230
         H            2.908613626554     2.059756334891     0.837037985560     1.007825032230
         H            0.773488626554    -1.333706665109    -0.728204014440     1.007825032230
         H           -5.369686373446    -0.437840665109    -0.977209014440     1.007825032230
         H           -4.892620373446    -1.902319665109    -0.105446014440     1.007825032230
         H           -5.435390373446    -0.478631665109     0.788459985560     1.007825032230
         H            5.053826626554     0.874945334891     0.483740985560     1.007825032230
         H            2.907380626554    -2.538965665109    -1.013921014440     1.007825032230
         H            5.239541026554    -1.546905565109    -0.449076414440     1.007825032230

  Basis Set: AUG-CC-PVTZ
    Blend: AUG-CC-PVTZ
  Basis Set: (AUG-CC-PVTZ AUX)
    Blend: AUG-CC-PVTZ-JKFIT
	 Reference Energy          =    -554.4686884047495141 [Eh]
	 Singles Energy            =      -0.0000000000000000 [Eh]
	 Same-Spin Energy          =      -0.6243394819007050 [Eh]
	 Opposite-Spin Energy      =      -1.9547939004383861 [Eh]
	 Correlation Energy        =      -2.5791333823390912 [Eh]
	 Total Energy              =    -557.0478217870886510 [Eh]

	 ================> DF-SCS-MP2 Energies <==================
	-----------------------------------------------------------
	 SCS Same-Spin Scale       =       0.3333333333333333 [-]
	 SCS Opposite-Spin Scale   =       1.2000000000000000 [-]
	 SCS Same-Spin Energy      =      -0.2081131606335683 [Eh]
	 SCS Opposite-Spin Energy  =      -2.3457526805260631 [Eh]
	 SCS Correlation Energy    =      -2.5538658411596313 [Eh]
	 SCS Total Energy          =    -557.0225542459091912 [Eh]
	-----------------------------------------------------------

  Dipole Moment: [D]
     X:    -0.7542      Y:     0.6352      Z:    -0.3255     Total:     1.0384

*** Psi4 exiting successfully. Buy a developer a beer!
