                               Psi4 1.4a3.dev225

  ==> Input File <==

--------------------------------------------------------------------------
#psi4
#
memory 32 gb

molecule  {
0 1
  N        0.5479400     1.1907050     0.2959170
  C       -0.7486070     0.6692540     0.1554050
  C        1.7310100     0.4560470     0.0875670
  C       -3.4043000    -0.2987570    -0.0204040
  C       -1.1184250    -0.5206800     0.8026630
  C       -1.7211190     1.3742660    -0.5666580
  C       -2.4232850    -0.9959770     0.6985600
  C       -3.0306900     0.9005340    -0.6374610
  C        2.9509580     1.0658110     0.4223950
  C        1.7646159    -0.8097883    -0.4125544
  C       -4.8245050    -0.7978720    -0.0796260
  C        4.1550680     0.3942430     0.2262330
  C        2.9515180    -1.5184900    -0.6042170
  C        4.1638000    -0.9089480    -0.2775300
  H        0.6281830     2.1736720     0.0568290
  H       -0.3846330    -1.0553430     1.4003190
  H       -1.4458780     2.2938080    -1.0816330
  H       -2.6884880    -1.9242290     1.2030750
  H       -3.7690390     1.4656370    -1.2045950
  H        2.9440570     2.0709610     0.8408760
  H        0.8089320    -1.3225020    -0.7243660
  H       -5.3342430    -0.4266360    -0.9733710
  H       -4.8571770    -1.8911150    -0.1016080
  H       -5.3999470    -0.4674270     0.7922980
  H        5.0892700     0.8861500     0.4875790
  H        2.9428240    -2.5277610    -1.0100830
  H        5.1022700    -1.4382830    -0.4191710
units angstrom
no_reorient  #important for SAPT in psi4, default
symmetry c1  #important for SAPT in psi4, default
}

set PROPERTIES_ORIGIN ["COM"]
properties('MP2/aug-cc-pvtz', properties = ['dipole'])
--------------------------------------------------------------------------

    Molecular point group: c1
  Charge       = 0
  Multiplicity = 1
  Basis Set: AUG-CC-PVTZ
    Blend: AUG-CC-PVTZ
  Basis Set: (AUG-CC-PVTZ AUX)
    Blend: AUG-CC-PVTZ-JKFIT

    Orbital Energies [Eh]
    ---------------------

    Doubly Occupied:

       1A    -15.576702     2A    -11.277269     3A    -11.276883
       4A    -11.237209     5A    -11.237129     6A    -11.235736
       7A    -11.234366     8A    -11.233745     9A    -11.232092
      10A    -11.229568    11A    -11.229561    12A    -11.225250
      13A    -11.224864    14A    -11.222830    15A     -1.258666
      16A     -1.153658    17A     -1.129769    18A     -1.040961
      19A     -1.015538    20A     -1.010139    21A     -0.992652
      22A     -0.921300    23A     -0.843356    24A     -0.828456
      25A     -0.818622    26A     -0.784306    27A     -0.713991
      28A     -0.704065    29A     -0.665377    30A     -0.640776
      31A     -0.634626    32A     -0.618588    33A     -0.601031
      34A     -0.587335    35A     -0.583970    36A     -0.579969
      37A     -0.572658    38A     -0.545674    39A     -0.531197
      40A     -0.512339    41A     -0.503019    42A     -0.495594
      43A     -0.485933    44A     -0.484523    45A     -0.441946
      46A     -0.340075    47A     -0.335489    48A     -0.332226
      49A     -0.277244

  @DF-RHF Final Energy:  -554.48816578843014

   => Energetics <=

    Nuclear Repulsion Energy =            788.0139921175829159
    One-Electron Energy =               -2313.6877745617507571
    Two-Electron Energy =                 971.1856166557378174
    Total Energy =                       -554.4881657884301376
  Basis Set: (AUG-CC-PVTZ AUX)
    Blend: AUG-CC-PVTZ-RI
    Molecular point group: c1

    Geometry (in Angstrom), charge = 0, multiplicity = 1:

       Center              X                  Y                   Z               Mass
    ------------   -----------------  -----------------  -----------------  -----------------
         N            0.511831472475     1.176454971798     0.290801757552    14.003074004430
         C           -0.784715527525     0.655003971798     0.150289757552    12.000000000000
         C            1.694901472475     0.441796971798     0.082451757552    12.000000000000
         C           -3.440408527525    -0.313007028202    -0.025519242448    12.000000000000
         C           -1.154533527525    -0.534930028202     0.797547757552    12.000000000000
         C           -1.757227527525     1.360015971798    -0.571773242448    12.000000000000
         C           -2.459393527525    -1.010227028202     0.693444757552    12.000000000000
         C           -3.066798527525     0.886283971798    -0.642576242448    12.000000000000
         C            2.914849472475     1.051560971798     0.417279757552    12.000000000000
         C            1.728507372475    -0.824038328202    -0.417669642448    12.000000000000
         C           -4.860613527525    -0.812122028202    -0.084741242448    12.000000000000
         C            4.118959472475     0.379992971798     0.221117757552    12.000000000000
         C            2.915409472475    -1.532740028202    -0.609332242448    12.000000000000
         C            4.127691472475    -0.923198028202    -0.282645242448    12.000000000000
         H            0.592074472475     2.159421971798     0.051713757552     1.007825032230
         H           -0.420741527525    -1.069593028202     1.395203757552     1.007825032230
         H           -1.481986527525     2.279557971798    -1.086748242448     1.007825032230
         H           -2.724596527525    -1.938479028202     1.197959757552     1.007825032230
         H           -3.805147527525     1.451386971798    -1.209710242448     1.007825032230
         H            2.907948472475     2.056710971798     0.835760757552     1.007825032230
         H            0.772823472475    -1.336752028202    -0.729481242448     1.007825032230
         H           -5.370351527525    -0.440886028202    -0.978486242448     1.007825032230
         H           -4.893285527525    -1.905365028202    -0.106723242448     1.007825032230
         H           -5.436055527525    -0.481677028202     0.787182757552     1.007825032230
         H            5.053161472475     0.871899971798     0.482463757552     1.007825032230
         H            2.906715472475    -2.542011028202    -1.015198242448     1.007825032230
         H            5.066161472475    -1.452533028202    -0.424286242448     1.007825032230

  Basis Set: AUG-CC-PVTZ
    Blend: AUG-CC-PVTZ
  Basis Set: (AUG-CC-PVTZ AUX)
    Blend: AUG-CC-PVTZ-JKFIT
	 Reference Energy          =    -554.4881657884301376 [Eh]
	 Singles Energy            =      -0.0000000000000000 [Eh]
	 Same-Spin Energy          =      -0.6240144839503903 [Eh]
	 Opposite-Spin Energy      =      -1.9526947744885090 [Eh]
	 Correlation Energy        =      -2.5767092584388993 [Eh]
	 Total Energy              =    -557.0648750468690196 [Eh]

	 ================> DF-SCS-MP2 Energies <==================
	-----------------------------------------------------------
	 SCS Same-Spin Scale       =       0.3333333333333333 [-]
	 SCS Opposite-Spin Scale   =       1.2000000000000000 [-]
	 SCS Same-Spin Energy      =      -0.2080048279834634 [Eh]
	 SCS Opposite-Spin Energy  =      -2.3432337293862107 [Eh]
	 SCS Correlation Energy    =      -2.5512385573696741 [Eh]
	 SCS Total Energy          =    -557.0394043457997668 [Eh]
	-----------------------------------------------------------

  Dipole Moment: [D]
     X:    -0.5650      Y:     0.5477      Z:    -0.3500     Total:     0.8612

*** Psi4 exiting successfully. Buy a developer a beer!
