                               Psi4 1.4a3.dev225

  ==> Input File <==

--------------------------------------------------------------------------
#psi4
#
memory 32 gb

molecule  {
0 1
  N        0.5479400     1.1907050     0.2959170
  C       -0.7486070     0.6692540     0.1554050
  C        1.7310100     0.4560470     0.0875670
  C       -3.4043000    -0.2987570    -0.0204040
  C       -1.1184250    -0.5206800     0.8026630
  C       -1.7211190     1.3742660    -0.5666580
  C       -2.4232850    -0.9959770     0.6985600
  C       -3.0494730     0.8937393    -0.6384765
  C        2.9509580     1.0658110     0.4223950
  C        1.7399610    -0.8480750    -0.4298540
  C       -4.8245050    -0.7978720    -0.0796260
  C        4.1550680     0.3942430     0.2262330
  C        2.9515180    -1.5184900    -0.6042170
  C        4.1638000    -0.9089480    -0.2775300
  H        0.6281830     2.1736720     0.0568290
  H       -0.3846330    -1.0553430     1.4003190
  H       -1.4458780     2.2938080    -1.0816330
  H       -2.6884880    -1.9242290     1.2030750
  H       -3.7690390     1.4656370    -1.2045950
  H        2.9440570     2.0709610     0.8408760
  H        0.8089320    -1.3225020    -0.7243660
  H       -5.3342430    -0.4266360    -0.9733710
  H       -4.8571770    -1.8911150    -0.1016080
  H       -5.3999470    -0.4674270     0.7922980
  H        5.0892700     0.8861500     0.4875790
  H        2.9428240    -2.5277610    -1.0100830
  H        5.1022700    -1.4382830    -0.4191710
units angstrom
no_reorient  #important for SAPT in psi4, default
symmetry c1  #important for SAPT in psi4, default
}

set PROPERTIES_ORIGIN ["COM"]
properties('MP2/aug-cc-pvtz', properties = ['dipole'])
--------------------------------------------------------------------------

    Molecular point group: c1
  Charge       = 0
  Multiplicity = 1
  Basis Set: AUG-CC-PVTZ
    Blend: AUG-CC-PVTZ
  Basis Set: (AUG-CC-PVTZ AUX)
    Blend: AUG-CC-PVTZ-JKFIT

    Orbital Energies [Eh]
    ---------------------

    Doubly Occupied:

       1A    -15.577228     2A    -11.282639     3A    -11.277381
       4A    -11.237913     5A    -11.237223     6A    -11.235867
       7A    -11.235136     8A    -11.234407     9A    -11.233828
      10A    -11.230794    11A    -11.228616    12A    -11.226126
      13A    -11.224476    14A    -11.222689    15A     -1.258122
      16A     -1.151506    17A     -1.128353    18A     -1.041215
      19A     -1.014748    20A     -1.010408    21A     -0.988717
      22A     -0.921545    23A     -0.843940    24A     -0.829641
      25A     -0.817076    26A     -0.784922    27A     -0.713429
      28A     -0.704078    29A     -0.668251    30A     -0.640674
      31A     -0.634816    32A     -0.619592    33A     -0.597571
      34A     -0.589260    35A     -0.584909    36A     -0.582080
      37A     -0.573433    38A     -0.545340    39A     -0.530186
      40A     -0.512969    41A     -0.500058    42A     -0.494816
      43A     -0.489445    44A     -0.487915    45A     -0.441812
      46A     -0.339197    47A     -0.335008    48A     -0.331486
      49A     -0.276531

  @DF-RHF Final Energy:  -554.49036873736588

   => Energetics <=

    Nuclear Repulsion Energy =            787.1545737913231733
    One-Electron Energy =               -2311.9551419666181573
    Two-Electron Energy =                 970.3101994379291000
    Total Energy =                       -554.4903687373658840
  Basis Set: (AUG-CC-PVTZ AUX)
    Blend: AUG-CC-PVTZ-RI
    Molecular point group: c1

    Geometry (in Angstrom), charge = 0, multiplicity = 1:

       Center              X                  Y                   Z               Mass
    ------------   -----------------  -----------------  -----------------  -----------------
         N            0.514678229095     1.179409437229     0.292002060333    14.003074004430
         C           -0.781868770905     0.657958437229     0.151490060333    12.000000000000
         C            1.697748229095     0.444751437229     0.083652060333    12.000000000000
         C           -3.437561770905    -0.310052562771    -0.024318939667    12.000000000000
         C           -1.151686770905    -0.531975562771     0.798748060333    12.000000000000
         C           -1.754380770905     1.362970437229    -0.570572939667    12.000000000000
         C           -2.456546770905    -1.007272562771     0.694645060333    12.000000000000
         C           -3.082734770905     0.882443737229    -0.642391439667    12.000000000000
         C            2.917696229095     1.054515437229     0.418480060333    12.000000000000
         C            1.706699229095    -0.859370562771    -0.433768939667    12.000000000000
         C           -4.857766770905    -0.809167562771    -0.083540939667    12.000000000000
         C            4.121806229095     0.382947437229     0.222318060333    12.000000000000
         C            2.918256229095    -1.529785562771    -0.608131939667    12.000000000000
         C            4.130538229095    -0.920243562771    -0.281444939667    12.000000000000
         H            0.594921229095     2.162376437229     0.052914060333     1.007825032230
         H           -0.417894770905    -1.066638562771     1.396404060333     1.007825032230
         H           -1.479139770905     2.282512437229    -1.085547939667     1.007825032230
         H           -2.721749770905    -1.935524562771     1.199160060333     1.007825032230
         H           -3.802300770905     1.454341437229    -1.208509939667     1.007825032230
         H            2.910795229095     2.059665437229     0.836961060333     1.007825032230
         H            0.775670229095    -1.333797562771    -0.728280939667     1.007825032230
         H           -5.367504770905    -0.437931562771    -0.977285939667     1.007825032230
         H           -4.890438770905    -1.902410562771    -0.105522939667     1.007825032230
         H           -5.433208770905    -0.478722562771     0.788383060333     1.007825032230
         H            5.056008229095     0.874854437229     0.483664060333     1.007825032230
         H            2.909562229095    -2.539056562771    -1.013997939667     1.007825032230
         H            5.069008229095    -1.449578562771    -0.423085939667     1.007825032230

  Basis Set: AUG-CC-PVTZ
    Blend: AUG-CC-PVTZ
  Basis Set: (AUG-CC-PVTZ AUX)
    Blend: AUG-CC-PVTZ-JKFIT
	 Reference Energy          =    -554.4903687373658840 [Eh]
	 Singles Energy            =      -0.0000000000000000 [Eh]
	 Same-Spin Energy          =      -0.6238628855008694 [Eh]
	 Opposite-Spin Energy      =      -1.9527260472307175 [Eh]
	 Correlation Energy        =      -2.5765889327315872 [Eh]
	 Total Energy              =    -557.0669576700975085 [Eh]

	 ================> DF-SCS-MP2 Energies <==================
	-----------------------------------------------------------
	 SCS Same-Spin Scale       =       0.3333333333333333 [-]
	 SCS Opposite-Spin Scale   =       1.2000000000000000 [-]
	 SCS Same-Spin Energy      =      -0.2079542951669565 [Eh]
	 SCS Opposite-Spin Energy  =      -2.3432712566768608 [Eh]
	 SCS Correlation Energy    =      -2.5512255518438174 [Eh]
	 SCS Total Energy          =    -557.0415942892096837 [Eh]
	-----------------------------------------------------------

  Dipole Moment: [D]
     X:    -0.6279      Y:     0.5764      Z:    -0.3397     Total:     0.9175

*** Psi4 exiting successfully. Buy a developer a beer!
