                               Psi4 1.4a3.dev225

  ==> Input File <==

--------------------------------------------------------------------------
#psi4
#
memory 32 gb

molecule  {
0 1
  N        0.5479400     1.1907050     0.2959170
  C       -0.7486070     0.6692540     0.1554050
  C        1.7310100     0.4560470     0.0875670
  C       -3.4043000    -0.2987570    -0.0204040
  C       -1.1184250    -0.5206800     0.8026630
  C       -1.7211190     1.3742660    -0.5666580
  C       -2.4232850    -0.9959770     0.6985600
  C       -3.0306900     0.9005340    -0.6374610
  C        2.9509580     1.0658110     0.4223950
  C        1.7399610    -0.8480750    -0.4298540
  C       -4.8245050    -0.7978720    -0.0796260
  C        4.1550680     0.3942430     0.2262330
  C        2.9515180    -1.5184900    -0.6042170
  C        4.1638000    -0.9089480    -0.2775300
  H        0.6281830     2.1736720     0.0568290
  H       -0.3846330    -1.0553430     1.4003190
  H       -1.4458780     2.2938080    -1.0816330
  H       -2.6884880    -1.9242290     1.2030750
  H       -3.7690390     1.4656370    -1.2045950
  H        2.9440570     2.0709610     0.8408760
  H        0.8089320    -1.3225020    -0.7243660
  H       -5.3342430    -0.4266360    -0.9733710
  H       -4.8571770    -1.8911150    -0.1016080
  H       -5.3999470    -0.4674270     0.7922980
  H        5.0892700     0.8861500     0.4875790
  H        2.9428240    -2.5277610    -1.0100830
  H        5.1886272    -1.4869919    -0.4322047
units angstrom
no_reorient  #important for SAPT in psi4, default
symmetry c1  #important for SAPT in psi4, default
}

set PROPERTIES_ORIGIN ["COM"]
properties('MP2/aug-cc-pvtz', properties = ['dipole'])
--------------------------------------------------------------------------

    Molecular point group: c1
  Charge       = 0
  Multiplicity = 1
  Basis Set: AUG-CC-PVTZ
    Blend: AUG-CC-PVTZ
  Basis Set: (AUG-CC-PVTZ AUX)
    Blend: AUG-CC-PVTZ-JKFIT

    Orbital Energies [Eh]
    ---------------------

    Doubly Occupied:

       1A    -15.577643     2A    -11.283114     3A    -11.277624
       4A    -11.239097     5A    -11.238372     6A    -11.236431
       7A    -11.235676     8A    -11.235061     9A    -11.234451
      10A    -11.232832    11A    -11.230279    12A    -11.229388
      13A    -11.226843    14A    -11.223315    15A     -1.258570
      16A     -1.152171    17A     -1.128367    18A     -1.040540
      19A     -1.016254    20A     -1.011335    21A     -0.987690
      22A     -0.921094    23A     -0.842722    24A     -0.829208
      25A     -0.814985    26A     -0.784786    27A     -0.712884
      28A     -0.704185    29A     -0.659672    30A     -0.639380
      31A     -0.634484    32A     -0.619588    33A     -0.595799
      34A     -0.587738    35A     -0.585620    36A     -0.582563
      37A     -0.573450    38A     -0.545772    39A     -0.530919
      40A     -0.507452    41A     -0.497914    42A     -0.495022
      43A     -0.489910    44A     -0.486019    45A     -0.442357
      46A     -0.340686    47A     -0.336276    48A     -0.331379
      49A     -0.276153

  @DF-RHF Final Energy:  -554.48349359554516

   => Energetics <=

    Nuclear Repulsion Energy =            786.8433018630203151
    One-Electron Energy =               -2311.3274434026143354
    Two-Electron Energy =                 970.0006479440488647
    Total Energy =                       -554.4834935955451556
  Basis Set: (AUG-CC-PVTZ AUX)
    Blend: AUG-CC-PVTZ-RI
    Molecular point group: c1

    Geometry (in Angstrom), charge = 0, multiplicity = 1:

       Center              X                  Y                   Z               Mass
    ------------   -----------------  -----------------  -----------------  -----------------
         N            0.512971944231     1.179232236241     0.292007246921    14.003074004430
         C           -0.783575055769     0.657781236241     0.151495246921    12.000000000000
         C            1.696041944231     0.444574236241     0.083657246921    12.000000000000
         C           -3.439268055769    -0.310229763759    -0.024313753079    12.000000000000
         C           -1.153393055769    -0.532152763759     0.798753246921    12.000000000000
         C           -1.756087055769     1.362793236241    -0.570567753079    12.000000000000
         C           -2.458253055769    -1.007449763759     0.694650246921    12.000000000000
         C           -3.065658055769     0.889061236241    -0.641370753079    12.000000000000
         C            2.915989944231     1.054338236241     0.418485246921    12.000000000000
         C            1.704992944231    -0.859547763759    -0.433763753079    12.000000000000
         C           -4.859473055769    -0.809344763759    -0.083535753079    12.000000000000
         C            4.120099944231     0.382770236241     0.222323246921    12.000000000000
         C            2.916549944231    -1.529962763759    -0.608126753079    12.000000000000
         C            4.128831944231    -0.920420763759    -0.281439753079    12.000000000000
         H            0.593214944231     2.162199236241     0.052919246921     1.007825032230
         H           -0.419601055769    -1.066815763759     1.396409246921     1.007825032230
         H           -1.480846055769     2.282335236241    -1.085542753079     1.007825032230
         H           -2.723456055769    -1.935701763759     1.199165246921     1.007825032230
         H           -3.804007055769     1.454164236241    -1.208504753079     1.007825032230
         H            2.909088944231     2.059488236241     0.836966246921     1.007825032230
         H            0.773963944231    -1.333974763759    -0.728275753079     1.007825032230
         H           -5.369211055769    -0.438108763759    -0.977280753079     1.007825032230
         H           -4.892145055769    -1.902587763759    -0.105517753079     1.007825032230
         H           -5.434915055769    -0.478899763759     0.788388246921     1.007825032230
         H            5.054301944231     0.874677236241     0.483669246921     1.007825032230
         H            2.907855944231    -2.539233763759    -1.013992753079     1.007825032230
         H            5.153659144231    -1.498464663759    -0.436114453079     1.007825032230

  Basis Set: AUG-CC-PVTZ
    Blend: AUG-CC-PVTZ
  Basis Set: (AUG-CC-PVTZ AUX)
    Blend: AUG-CC-PVTZ-JKFIT
	 Reference Energy          =    -554.4834935955451556 [Eh]
	 Singles Energy            =      -0.0000000000000000 [Eh]
	 Same-Spin Energy          =      -0.6241099039341679 [Eh]
	 Opposite-Spin Energy      =      -1.9535696978947326 [Eh]
	 Correlation Energy        =      -2.5776796018289003 [Eh]
	 Total Energy              =    -557.0611731973740461 [Eh]

	 ================> DF-SCS-MP2 Energies <==================
	-----------------------------------------------------------
	 SCS Same-Spin Scale       =       0.3333333333333333 [-]
	 SCS Opposite-Spin Scale   =       1.2000000000000000 [-]
	 SCS Same-Spin Energy      =      -0.2080366346447226 [Eh]
	 SCS Opposite-Spin Energy  =      -2.3442836374736791 [Eh]
	 SCS Correlation Energy    =      -2.5523202721184015 [Eh]
	 SCS Total Energy          =    -557.0358138676635917 [Eh]
	-----------------------------------------------------------

  Dipole Moment: [D]
     X:    -0.6853      Y:     0.6024      Z:    -0.3344     Total:     0.9718

*** Psi4 exiting successfully. Buy a developer a beer!
