                               Psi4 1.4a3.dev225

  ==> Input File <==

--------------------------------------------------------------------------
#psi4
#
memory 32 gb

molecule  {
0 1
  N        0.5479400     1.1907050     0.2959170
  C       -0.7486070     0.6692540     0.1554050
  C        1.7310100     0.4560470     0.0875670
  C       -3.3905526    -0.3788217     0.1147512
  C       -1.1184250    -0.5206800     0.8026630
  C       -1.7211190     1.3742660    -0.5666580
  C       -2.4232850    -0.9959770     0.6985600
  C       -3.0306900     0.9005340    -0.6374610
  C        2.9509580     1.0658110     0.4223950
  C        1.7399610    -0.8480750    -0.4298540
  C       -4.8245050    -0.7978720    -0.0796260
  C        4.1550680     0.3942430     0.2262330
  C        2.9515180    -1.5184900    -0.6042170
  C        4.1638000    -0.9089480    -0.2775300
  H        0.6281830     2.1736720     0.0568290
  H       -0.3846330    -1.0553430     1.4003190
  H       -1.4458780     2.2938080    -1.0816330
  H       -2.6884880    -1.9242290     1.2030750
  H       -3.7690390     1.4656370    -1.2045950
  H        2.9440570     2.0709610     0.8408760
  H        0.8089320    -1.3225020    -0.7243660
  H       -5.3342430    -0.4266360    -0.9733710
  H       -4.8571770    -1.8911150    -0.1016080
  H       -5.3999470    -0.4674270     0.7922980
  H        5.0892700     0.8861500     0.4875790
  H        2.9428240    -2.5277610    -1.0100830
  H        5.1022700    -1.4382830    -0.4191710
units angstrom
no_reorient  #important for SAPT in psi4, default
symmetry c1  #important for SAPT in psi4, default
}

set PROPERTIES_ORIGIN ["COM"]
properties('MP2/aug-cc-pvtz', properties = ['dipole'])
--------------------------------------------------------------------------

    Molecular point group: c1
  Charge       = 0
  Multiplicity = 1
  Basis Set: AUG-CC-PVTZ
    Blend: AUG-CC-PVTZ
  Basis Set: (AUG-CC-PVTZ AUX)
    Blend: AUG-CC-PVTZ-JKFIT

    Orbital Energies [Eh]
    ---------------------

    Doubly Occupied:

       1A    -15.577334     2A    -11.282356     3A    -11.277254
       4A    -11.247222     5A    -11.237435     6A    -11.236614
       7A    -11.235311     8A    -11.234949     9A    -11.228215
      10A    -11.226573    11A    -11.225255    12A    -11.224527
      13A    -11.223986    14A    -11.218596    15A     -1.258084
      16A     -1.152804    17A     -1.129332    18A     -1.045576
      19A     -1.014027    20A     -1.007889    21A     -0.989830
      22A     -0.924956    23A     -0.845143    24A     -0.832003
      25A     -0.808606    26A     -0.784925    27A     -0.712347
      28A     -0.705309    29A     -0.666420    30A     -0.641737
      31A     -0.632629    32A     -0.618105    33A     -0.596976
      34A     -0.592814    35A     -0.583706    36A     -0.581750
      37A     -0.574647    38A     -0.544438    39A     -0.535849
      40A     -0.520203    41A     -0.504560    42A     -0.494942
      43A     -0.490441    44A     -0.459362    45A     -0.442415
      46A     -0.348924    47A     -0.336575    48A     -0.325598
      49A     -0.274069

  @DF-RHF Final Energy:  -554.46515543669159

   => Energetics <=

    Nuclear Repulsion Energy =            787.3681808737219399
    One-Electron Energy =               -2312.3614319228627210
    Two-Electron Energy =                 970.5280956124491922
    Total Energy =                       -554.4651554366915889
  Basis Set: (AUG-CC-PVTZ AUX)
    Blend: AUG-CC-PVTZ-RI
    Molecular point group: c1

    Geometry (in Angstrom), charge = 0, multiplicity = 1:

       Center              X                  Y                   Z               Mass
    ------------   -----------------  -----------------  -----------------  -----------------
         N            0.512546309008     1.184211277501     0.283077944717    14.003074004430
         C           -0.784000690992     0.662760277501     0.142565944717    12.000000000000
         C            1.695616309008     0.449553277501     0.074727944717    12.000000000000
         C           -3.425946290992    -0.385315422499     0.101912144717    12.000000000000
         C           -1.153818690992    -0.527173722499     0.789823944717    12.000000000000
         C           -1.756512690992     1.367772277501    -0.579497055283    12.000000000000
         C           -2.458678690992    -1.002470722499     0.685720944717    12.000000000000
         C           -3.066083690992     0.894040277501    -0.650300055283    12.000000000000
         C            2.915564309008     1.059317277501     0.409555944717    12.000000000000
         C            1.704567309008    -0.854568722499    -0.442693055283    12.000000000000
         C           -4.859898690992    -0.804365722499    -0.092465055283    12.000000000000
         C            4.119674309008     0.387749277501     0.213393944717    12.000000000000
         C            2.916124309008    -1.524983722499    -0.617056055283    12.000000000000
         C            4.128406309008    -0.915441722499    -0.290369055283    12.000000000000
         H            0.592789309008     2.167178277501     0.043989944717     1.007825032230
         H           -0.420026690992    -1.061836722499     1.387479944717     1.007825032230
         H           -1.481271690992     2.287314277501    -1.094472055283     1.007825032230
         H           -2.723881690992    -1.930722722499     1.190235944717     1.007825032230
         H           -3.804432690992     1.459143277501    -1.217434055283     1.007825032230
         H            2.908663309008     2.064467277501     0.828036944717     1.007825032230
         H            0.773538309008    -1.328995722499    -0.737205055283     1.007825032230
         H           -5.369636690992    -0.433129722499    -0.986210055283     1.007825032230
         H           -4.892570690992    -1.897608722499    -0.114447055283     1.007825032230
         H           -5.435340690992    -0.473920722499     0.779458944717     1.007825032230
         H            5.053876309008     0.879656277501     0.474739944717     1.007825032230
         H            2.907430309008    -2.534254722499    -1.022922055283     1.007825032230
         H            5.066876309008    -1.444776722499    -0.432010055283     1.007825032230

  Basis Set: AUG-CC-PVTZ
    Blend: AUG-CC-PVTZ
  Basis Set: (AUG-CC-PVTZ AUX)
    Blend: AUG-CC-PVTZ-JKFIT
	 Reference Energy          =    -554.4651554366915889 [Eh]
	 Singles Energy            =      -0.0000000000000000 [Eh]
	 Same-Spin Energy          =      -0.6235897368777928 [Eh]
	 Opposite-Spin Energy      =      -1.9538972772962799 [Eh]
	 Correlation Energy        =      -2.5774870141740727 [Eh]
	 Total Energy              =    -557.0426424508656282 [Eh]

	 ================> DF-SCS-MP2 Energies <==================
	-----------------------------------------------------------
	 SCS Same-Spin Scale       =       0.3333333333333333 [-]
	 SCS Opposite-Spin Scale   =       1.2000000000000000 [-]
	 SCS Same-Spin Energy      =      -0.2078632456259309 [Eh]
	 SCS Opposite-Spin Energy  =      -2.3446767327555360 [Eh]
	 SCS Correlation Energy    =      -2.5525399783814668 [Eh]
	 SCS Total Energy          =    -557.0176954150730353 [Eh]
	-----------------------------------------------------------

  Dipole Moment: [D]
     X:    -0.7074      Y:     0.6304      Z:    -0.4241     Total:     1.0381

*** Psi4 exiting successfully. Buy a developer a beer!
