                               Psi4 1.4a3.dev225

  ==> Input File <==

--------------------------------------------------------------------------
#psi4
#
memory 32 gb

molecule  {
0 1
  N        0.5479400     1.1907050     0.2959170
  C       -0.7486070     0.6692540     0.1554050
  C        1.7310100     0.4560470     0.0875670
  C       -3.4043000    -0.2987570    -0.0204040
  C       -1.1184250    -0.5206800     0.8026630
  C       -1.7211190     1.3742660    -0.5666580
  C       -2.4232850    -0.9959770     0.6985600
  C       -3.0306900     0.9005340    -0.6374610
  C        2.9509580     1.0658110     0.4223950
  C        1.7399610    -0.8480750    -0.4298540
  C       -4.8245050    -0.7978720    -0.0796260
  C        4.1550680     0.3942430     0.2262330
  C        2.9515180    -1.5184900    -0.6042170
  C        4.1638000    -0.9089480    -0.2775300
  H        0.6281830     2.1736720     0.0568290
  H       -0.3846330    -1.0553430     1.4003190
  H       -1.4458780     2.2938080    -1.0816330
  H       -2.6884880    -1.9242290     1.2030750
  H       -3.9046277     1.5694112    -1.3087422
  H        2.9440570     2.0709610     0.8408760
  H        0.8089320    -1.3225020    -0.7243660
  H       -5.3342430    -0.4266360    -0.9733710
  H       -4.8571770    -1.8911150    -0.1016080
  H       -5.3999470    -0.4674270     0.7922980
  H        5.0892700     0.8861500     0.4875790
  H        2.9428240    -2.5277610    -1.0100830
  H        5.1022700    -1.4382830    -0.4191710
units angstrom
no_reorient  #important for SAPT in psi4, default
symmetry c1  #important for SAPT in psi4, default
}

set PROPERTIES_ORIGIN ["COM"]
properties('MP2/aug-cc-pvtz', properties = ['dipole'])
--------------------------------------------------------------------------

    Molecular point group: c1
  Charge       = 0
  Multiplicity = 1
  Basis Set: AUG-CC-PVTZ
    Blend: AUG-CC-PVTZ
  Basis Set: (AUG-CC-PVTZ AUX)
    Blend: AUG-CC-PVTZ-JKFIT

    Orbital Energies [Eh]
    ---------------------

    Doubly Occupied:

       1A    -15.578356     2A    -11.283264     3A    -11.279163
       4A    -11.256779     5A    -11.238477     6A    -11.238359
       7A    -11.237663     8A    -11.236325     9A    -11.235212
      10A    -11.231234    11A    -11.229156    12A    -11.226644
      13A    -11.224949    14A    -11.223076    15A     -1.259237
      16A     -1.152597    17A     -1.128717    18A     -1.041526
      19A     -1.014963    20A     -1.009860    21A     -0.989906
      22A     -0.921190    23A     -0.840043    24A     -0.829450
      25A     -0.816744    26A     -0.781617    27A     -0.710750
      28A     -0.701554    29A     -0.669078    30A     -0.639654
      31A     -0.636297    32A     -0.615079    33A     -0.598246
      34A     -0.587404    35A     -0.583671    36A     -0.575005
      37A     -0.566479    38A     -0.544446    39A     -0.527734
      40A     -0.513109    41A     -0.501836    42A     -0.495865
      43A     -0.489905    44A     -0.477347    45A     -0.442322
      46A     -0.341573    47A     -0.336514    48A     -0.332042
      49A     -0.276811

  @DF-RHF Final Energy:  -554.46880859564772

   => Energetics <=

    Nuclear Repulsion Energy =            786.3682350966698777
    One-Electron Energy =               -2310.3396350779016757
    Two-Electron Energy =                 969.5025913855840827
    Total Energy =                       -554.4688085956477153
  Basis Set: (AUG-CC-PVTZ AUX)
    Blend: AUG-CC-PVTZ-RI
    Molecular point group: c1

    Geometry (in Angstrom), charge = 0, multiplicity = 1:

       Center              X                  Y                   Z               Mass
    ------------   -----------------  -----------------  -----------------  -----------------
         N            0.514193554121     1.178392955754     0.292508743694    14.003074004430
         C           -0.782353445879     0.656941955754     0.151996743694    12.000000000000
         C            1.697263554121     0.443734955754     0.084158743694    12.000000000000
         C           -3.438046445879    -0.311069044246    -0.023812256306    12.000000000000
         C           -1.152171445879    -0.532992044246     0.799254743694    12.000000000000
         C           -1.754865445879     1.361953955754    -0.570066256306    12.000000000000
         C           -2.457031445879    -1.008289044246     0.695151743694    12.000000000000
         C           -3.064436445879     0.888221955754    -0.640869256306    12.000000000000
         C            2.917211554121     1.053498955754     0.418986743694    12.000000000000
         C            1.706214554121    -0.860387044246    -0.433262256306    12.000000000000
         C           -4.858251445879    -0.810184044246    -0.083034256306    12.000000000000
         C            4.121321554121     0.381930955754     0.222824743694    12.000000000000
         C            2.917771554121    -1.530802044246    -0.607625256306    12.000000000000
         C            4.130053554121    -0.921260044246    -0.280938256306    12.000000000000
         H            0.594436554121     2.161359955754     0.053420743694     1.007825032230
         H           -0.418379445879    -1.067655044246     1.396910743694     1.007825032230
         H           -1.479624445879     2.281495955754    -1.085041256306     1.007825032230
         H           -2.722234445879    -1.936541044246     1.199666743694     1.007825032230
         H           -3.938374145879     1.557099155754    -1.312150456306     1.007825032230
         H            2.910310554121     2.058648955754     0.837467743694     1.007825032230
         H            0.775185554121    -1.334814044246    -0.727774256306     1.007825032230
         H           -5.367989445879    -0.438948044246    -0.976779256306     1.007825032230
         H           -4.890923445879    -1.903427044246    -0.105016256306     1.007825032230
         H           -5.433693445879    -0.479739044246     0.788889743694     1.007825032230
         H            5.055523554121     0.873837955754     0.484170743694     1.007825032230
         H            2.909077554121    -2.540073044246    -1.013491256306     1.007825032230
         H            5.068523554121    -1.450595044246    -0.422579256306     1.007825032230

  Basis Set: AUG-CC-PVTZ
    Blend: AUG-CC-PVTZ
  Basis Set: (AUG-CC-PVTZ AUX)
    Blend: AUG-CC-PVTZ-JKFIT
	 Reference Energy          =    -554.4688085956477153 [Eh]
	 Singles Energy            =      -0.0000000000000000 [Eh]
	 Same-Spin Energy          =      -0.6244727180555014 [Eh]
	 Opposite-Spin Energy      =      -1.9549392115093625 [Eh]
	 Correlation Energy        =      -2.5794119295648636 [Eh]
	 Total Energy              =    -557.0482205252126278 [Eh]

	 ================> DF-SCS-MP2 Energies <==================
	-----------------------------------------------------------
	 SCS Same-Spin Scale       =       0.3333333333333333 [-]
	 SCS Opposite-Spin Scale   =       1.2000000000000000 [-]
	 SCS Same-Spin Energy      =      -0.2081575726851671 [Eh]
	 SCS Opposite-Spin Energy  =      -2.3459270538112347 [Eh]
	 SCS Correlation Energy    =      -2.5540846264964019 [Eh]
	 SCS Total Energy          =    -557.0228932221441482 [Eh]
	-----------------------------------------------------------

  Dipole Moment: [D]
     X:    -0.5180      Y:     0.5155      Z:    -0.2809     Total:     0.7829

*** Psi4 exiting successfully. Buy a developer a beer!
