                               Psi4 1.4a3.dev225

  ==> Input File <==

--------------------------------------------------------------------------
#psi4
#
memory 32 gb

molecule  {
0 1
  N        0.5479400     1.1907050     0.2959170
  C       -0.7486070     0.6692540     0.1554050
  C        1.7310100     0.4560470     0.0875670
  C       -3.4043000    -0.2987570    -0.0204040
  C       -1.1184250    -0.5206800     0.8026630
  C       -1.7211190     1.3742660    -0.5666580
  C       -2.4232850    -0.9959770     0.6985600
  C       -3.0306900     0.9005340    -0.6374610
  C        2.9509580     1.0658110     0.4223950
  C        1.7399610    -0.8480750    -0.4298540
  C       -4.8245050    -0.7978720    -0.0796260
  C        4.1550680     0.3942430     0.2262330
  C        2.9515180    -1.5184900    -0.6042170
  C        4.1638000    -0.9089480    -0.2775300
  H        0.6281830     2.1736720     0.0568290
  H       -0.4183870    -1.0307489     1.3728272
  H       -1.4458780     2.2938080    -1.0816330
  H       -2.6884880    -1.9242290     1.2030750
  H       -3.7690390     1.4656370    -1.2045950
  H        2.9440570     2.0709610     0.8408760
  H        0.8089320    -1.3225020    -0.7243660
  H       -5.3342430    -0.4266360    -0.9733710
  H       -4.8571770    -1.8911150    -0.1016080
  H       -5.3999470    -0.4674270     0.7922980
  H        5.0892700     0.8861500     0.4875790
  H        2.9428240    -2.5277610    -1.0100830
  H        5.1022700    -1.4382830    -0.4191710
units angstrom
no_reorient  #important for SAPT in psi4, default
symmetry c1  #important for SAPT in psi4, default
}

set PROPERTIES_ORIGIN ["COM"]
properties('MP2/aug-cc-pvtz', properties = ['dipole'])
--------------------------------------------------------------------------

    Molecular point group: c1
  Charge       = 0
  Multiplicity = 1
  Basis Set: AUG-CC-PVTZ
    Blend: AUG-CC-PVTZ
  Basis Set: (AUG-CC-PVTZ AUX)
    Blend: AUG-CC-PVTZ-JKFIT

    Orbital Energies [Eh]
    ---------------------

    Doubly Occupied:

       1A    -15.577336     2A    -11.282744     3A    -11.276945
       4A    -11.237992     5A    -11.237308     6A    -11.235952
       7A    -11.234652     8A    -11.233882     9A    -11.232303
      10A    -11.228678    11A    -11.226203    12A    -11.224532
      13A    -11.224308    14A    -11.222993    15A     -1.258287
      16A     -1.151939    17A     -1.128282    18A     -1.040862
      19A     -1.017030    20A     -1.011224    21A     -0.989543
      22A     -0.921356    23A     -0.843925    24A     -0.830781
      25A     -0.816847    26A     -0.786869    27A     -0.713790
      28A     -0.703996    29A     -0.669549    30A     -0.644776
      31A     -0.635149    32A     -0.619571    33A     -0.597815
      34A     -0.587988    35A     -0.586824    36A     -0.583083
      37A     -0.573254    38A     -0.546000    39A     -0.530578
      40A     -0.513455    41A     -0.501414    42A     -0.494720
      43A     -0.490338    44A     -0.487000    45A     -0.441851
      46A     -0.340225    47A     -0.335751    48A     -0.330887
      49A     -0.275725

  @DF-RHF Final Energy:  -554.49017376151448

   => Energetics <=

    Nuclear Repulsion Energy =            787.5837236210107903
    One-Electron Energy =               -2312.7947701484281424
    Two-Electron Energy =                 970.7208727659027545
    Total Energy =                       -554.4901737615144839
  Basis Set: (AUG-CC-PVTZ AUX)
    Blend: AUG-CC-PVTZ-RI
    Molecular point group: c1

    Geometry (in Angstrom), charge = 0, multiplicity = 1:

       Center              X                  Y                   Z               Mass
    ------------   -----------------  -----------------  -----------------  -----------------
         N            0.513633046913     1.178828770037     0.292086825584    14.003074004430
         C           -0.782913953087     0.657377770037     0.151574825584    12.000000000000
         C            1.696703046913     0.444170770037     0.083736825584    12.000000000000
         C           -3.438606953087    -0.310633229963    -0.024234174416    12.000000000000
         C           -1.152731953087    -0.532556229963     0.798832825584    12.000000000000
         C           -1.755425953087     1.362389770037    -0.570488174416    12.000000000000
         C           -2.457591953087    -1.007853229963     0.694729825584    12.000000000000
         C           -3.064996953087     0.888657770037    -0.641291174416    12.000000000000
         C            2.916651046913     1.053934770037     0.418564825584    12.000000000000
         C            1.705654046913    -0.859951229963    -0.433684174416    12.000000000000
         C           -4.858811953087    -0.809748229963    -0.083456174416    12.000000000000
         C            4.120761046913     0.382366770037     0.222402825584    12.000000000000
         C            2.917211046913    -1.530366229963    -0.608047174416    12.000000000000
         C            4.129493046913    -0.920824229963    -0.281360174416    12.000000000000
         H            0.593876046913     2.161795770037     0.052998825584     1.007825032230
         H           -0.452693953087    -1.042625129963     1.368997025584     1.007825032230
         H           -1.480184953087     2.281931770037    -1.085463174416     1.007825032230
         H           -2.722794953087    -1.936105229963     1.199244825584     1.007825032230
         H           -3.803345953087     1.453760770037    -1.208425174416     1.007825032230
         H            2.909750046913     2.059084770037     0.837045825584     1.007825032230
         H            0.774625046913    -1.334378229963    -0.728196174416     1.007825032230
         H           -5.368549953087    -0.438512229963    -0.977201174416     1.007825032230
         H           -4.891483953087    -1.902991229963    -0.105438174416     1.007825032230
         H           -5.434253953087    -0.479303229963     0.788467825584     1.007825032230
         H            5.054963046913     0.874273770037     0.483748825584     1.007825032230
         H            2.908517046913    -2.539637229963    -1.013913174416     1.007825032230
         H            5.067963046913    -1.450159229963    -0.423001174416     1.007825032230

  Basis Set: AUG-CC-PVTZ
    Blend: AUG-CC-PVTZ
  Basis Set: (AUG-CC-PVTZ AUX)
    Blend: AUG-CC-PVTZ-JKFIT
	 Reference Energy          =    -554.4901737615144839 [Eh]
	 Singles Energy            =      -0.0000000000000000 [Eh]
	 Same-Spin Energy          =      -0.6237731145652617 [Eh]
	 Opposite-Spin Energy      =      -1.9522960350289147 [Eh]
	 Correlation Energy        =      -2.5760691495941765 [Eh]
	 Total Energy              =    -557.0662429111087022 [Eh]

	 ================> DF-SCS-MP2 Energies <==================
	-----------------------------------------------------------
	 SCS Same-Spin Scale       =       0.3333333333333333 [-]
	 SCS Opposite-Spin Scale   =       1.2000000000000000 [-]
	 SCS Same-Spin Energy      =      -0.2079243715217539 [Eh]
	 SCS Opposite-Spin Energy  =      -2.3427552420346975 [Eh]
	 SCS Correlation Energy    =      -2.5506796135564516 [Eh]
	 SCS Total Energy          =    -557.0408533750709239 [Eh]
	-----------------------------------------------------------

  Dipole Moment: [D]
     X:    -0.6218      Y:     0.5758      Z:    -0.3370     Total:     0.9121

*** Psi4 exiting successfully. Buy a developer a beer!
