                               Psi4 1.4a3.dev225

  ==> Input File <==

--------------------------------------------------------------------------
#psi4
#
memory 32 gb

molecule  {
0 1
  N        0.5479400     1.1907050     0.2959170
  C       -0.7486070     0.6692540     0.1554050
  C        1.7310100     0.4560470     0.0875670
  C       -3.4043000    -0.2987570    -0.0204040
  C       -1.1184250    -0.5206800     0.8026630
  C       -1.7211190     1.3742660    -0.5666580
  C       -2.4232850    -0.9959770     0.6985600
  C       -3.0306900     0.9005340    -0.6374610
  C        2.9509580     1.0658110     0.4223950
  C        1.7399610    -0.8480750    -0.4298540
  C       -4.8245050    -0.7978720    -0.0796260
  C        4.1550680     0.3942430     0.2262330
  C        2.9515180    -1.5184900    -0.6042170
  C        4.1638000    -0.9089480    -0.2775300
  H        0.6281830     2.1736720     0.0568290
  H       -0.3981346    -1.0455053     1.3893223
  H       -1.4458780     2.2938080    -1.0816330
  H       -2.6884880    -1.9242290     1.2030750
  H       -3.7690390     1.4656370    -1.2045950
  H        2.9440570     2.0709610     0.8408760
  H        0.8089320    -1.3225020    -0.7243660
  H       -5.3342430    -0.4266360    -0.9733710
  H       -4.8571770    -1.8911150    -0.1016080
  H       -5.3999470    -0.4674270     0.7922980
  H        5.0892700     0.8861500     0.4875790
  H        2.9428240    -2.5277610    -1.0100830
  H        5.1022700    -1.4382830    -0.4191710
units angstrom
no_reorient  #important for SAPT in psi4, default
symmetry c1  #important for SAPT in psi4, default
}

set PROPERTIES_ORIGIN ["COM"]
properties('MP2/aug-cc-pvtz', properties = ['dipole'])
--------------------------------------------------------------------------

    Molecular point group: c1
  Charge       = 0
  Multiplicity = 1
  Basis Set: AUG-CC-PVTZ
    Blend: AUG-CC-PVTZ
  Basis Set: (AUG-CC-PVTZ AUX)
    Blend: AUG-CC-PVTZ-JKFIT

    Orbital Energies [Eh]
    ---------------------

    Doubly Occupied:

       1A    -15.577320     2A    -11.282676     3A    -11.277201
       4A    -11.237925     5A    -11.237229     6A    -11.236112
       7A    -11.234769     8A    -11.234090     9A    -11.232485
      10A    -11.228629    11A    -11.227783    12A    -11.226113
      13A    -11.224479    14A    -11.223097    15A     -1.258239
      16A     -1.151902    17A     -1.128270    18A     -1.040766
      19A     -1.016305    20A     -1.010929    21A     -0.989521
      22A     -0.921385    23A     -0.843159    24A     -0.830127
      25A     -0.816797    26A     -0.785875    27A     -0.713447
      28A     -0.704008    29A     -0.668934    30A     -0.642054
      31A     -0.635176    32A     -0.619287    33A     -0.597671
      34A     -0.587758    35A     -0.585898    36A     -0.582751
      37A     -0.573308    38A     -0.545750    39A     -0.530603
      40A     -0.513381    41A     -0.501341    42A     -0.494777
      43A     -0.489949    44A     -0.486452    45A     -0.441867
      46A     -0.340263    47A     -0.335735    48A     -0.330925
      49A     -0.275750

  @DF-RHF Final Energy:  -554.49103039510226

   => Energetics <=

    Nuclear Repulsion Energy =            787.4349117789446382
    One-Electron Energy =               -2312.5113455363580215
    Two-Electron Energy =                 970.5854033623110126
    Total Energy =                       -554.4910303951022570
  Basis Set: (AUG-CC-PVTZ AUX)
    Blend: AUG-CC-PVTZ-RI
    Molecular point group: c1

    Geometry (in Angstrom), charge = 0, multiplicity = 1:

       Center              X                  Y                   Z               Mass
    ------------   -----------------  -----------------  -----------------  -----------------
         N            0.513521575910     1.178909990570     0.291996035093    14.003074004430
         C           -0.783025424090     0.657458990570     0.151484035093    12.000000000000
         C            1.696591575910     0.444251990570     0.083646035093    12.000000000000
         C           -3.438718424090    -0.310552009430    -0.024324964907    12.000000000000
         C           -1.152843424090    -0.532475009430     0.798742035093    12.000000000000
         C           -1.755537424090     1.362470990570    -0.570578964907    12.000000000000
         C           -2.457703424090    -1.007772009430     0.694639035093    12.000000000000
         C           -3.065108424090     0.888738990570    -0.641381964907    12.000000000000
         C            2.916539575910     1.054015990570     0.418474035093    12.000000000000
         C            1.705542575910    -0.859870009430    -0.433774964907    12.000000000000
         C           -4.858923424090    -0.809667009430    -0.083546964907    12.000000000000
         C            4.120649575910     0.382447990570     0.222312035093    12.000000000000
         C            2.917099575910    -1.530285009430    -0.608137964907    12.000000000000
         C            4.129381575910    -0.920743009430    -0.281450964907    12.000000000000
         H            0.593764575910     2.161876990570     0.052908035093     1.007825032230
         H           -0.432553024090    -1.057300309430     1.385401335093     1.007825032230
         H           -1.480296424090     2.282012990570    -1.085553964907     1.007825032230
         H           -2.722906424090    -1.936024009430     1.199154035093     1.007825032230
         H           -3.803457424090     1.453841990570    -1.208515964907     1.007825032230
         H            2.909638575910     2.059165990570     0.836955035093     1.007825032230
         H            0.774513575910    -1.334297009430    -0.728286964907     1.007825032230
         H           -5.368661424090    -0.438431009430    -0.977291964907     1.007825032230
         H           -4.891595424090    -1.902910009430    -0.105528964907     1.007825032230
         H           -5.434365424090    -0.479222009430     0.788377035093     1.007825032230
         H            5.054851575910     0.874354990570     0.483658035093     1.007825032230
         H            2.908405575910    -2.539556009430    -1.014003964907     1.007825032230
         H            5.067851575910    -1.450078009430    -0.423091964907     1.007825032230

  Basis Set: AUG-CC-PVTZ
    Blend: AUG-CC-PVTZ
  Basis Set: (AUG-CC-PVTZ AUX)
    Blend: AUG-CC-PVTZ-JKFIT
	 Reference Energy          =    -554.4910303951022570 [Eh]
	 Singles Energy            =      -0.0000000000000000 [Eh]
	 Same-Spin Energy          =      -0.6238579706825077 [Eh]
	 Opposite-Spin Energy      =      -1.9525008725513198 [Eh]
	 Correlation Energy        =      -2.5763588432338276 [Eh]
	 Total Energy              =    -557.0673892383360908 [Eh]

	 ================> DF-SCS-MP2 Energies <==================
	-----------------------------------------------------------
	 SCS Same-Spin Scale       =       0.3333333333333333 [-]
	 SCS Opposite-Spin Scale   =       1.2000000000000000 [-]
	 SCS Same-Spin Energy      =      -0.2079526568941692 [Eh]
	 SCS Opposite-Spin Energy  =      -2.3430010470615836 [Eh]
	 SCS Correlation Energy    =      -2.5509537039557530 [Eh]
	 SCS Total Energy          =    -557.0419840990580269 [Eh]
	-----------------------------------------------------------

  Dipole Moment: [D]
     X:    -0.6289      Y:     0.5769      Z:    -0.3391     Total:     0.9183

*** Psi4 exiting successfully. Buy a developer a beer!
