                               Psi4 1.4a3.dev225

  ==> Input File <==

--------------------------------------------------------------------------
#psi4
#
memory 32 gb

molecule  {
0 1
  N        0.5479400     1.1907050     0.2959170
  C       -0.7486070     0.6692540     0.1554050
  C        1.7310100     0.4560470     0.0875670
  C       -3.4043000    -0.2987570    -0.0204040
  C       -1.1184250    -0.5206800     0.8026630
  C       -1.7211190     1.3742660    -0.5666580
  C       -2.4232850    -0.9959770     0.6985600
  C       -3.0306900     0.9005340    -0.6374610
  C        2.9509580     1.0658110     0.4223950
  C        1.7399610    -0.8480750    -0.4298540
  C       -4.8245050    -0.7978720    -0.0796260
  C        4.1550680     0.3942430     0.2262330
  C        2.9515180    -1.5184900    -0.6042170
  C        4.1638000    -0.9089480    -0.2775300
  H        0.6202758     2.0768092     0.0803890
  H       -0.3846330    -1.0553430     1.4003190
  H       -1.4458780     2.2938080    -1.0816330
  H       -2.6884880    -1.9242290     1.2030750
  H       -3.7690390     1.4656370    -1.2045950
  H        2.9440570     2.0709610     0.8408760
  H        0.8089320    -1.3225020    -0.7243660
  H       -5.3342430    -0.4266360    -0.9733710
  H       -4.8571770    -1.8911150    -0.1016080
  H       -5.3999470    -0.4674270     0.7922980
  H        5.0892700     0.8861500     0.4875790
  H        2.9428240    -2.5277610    -1.0100830
  H        5.1022700    -1.4382830    -0.4191710
units angstrom
no_reorient  #important for SAPT in psi4, default
symmetry c1  #important for SAPT in psi4, default
}

set PROPERTIES_ORIGIN ["COM"]
properties('MP2/aug-cc-pvtz', properties = ['dipole'])
--------------------------------------------------------------------------

    Molecular point group: c1
  Charge       = 0
  Multiplicity = 1
  Basis Set: AUG-CC-PVTZ
    Blend: AUG-CC-PVTZ
  Basis Set: (AUG-CC-PVTZ AUX)
    Blend: AUG-CC-PVTZ-JKFIT

    Orbital Energies [Eh]
    ---------------------

    Doubly Occupied:

       1A    -15.566875     2A    -11.282606     3A    -11.277245
       4A    -11.238130     5A    -11.237369     6A    -11.236507
       7A    -11.235064     8A    -11.234398     9A    -11.232986
      10A    -11.230117    11A    -11.229026    12A    -11.226271
      13A    -11.224800    14A    -11.223343    15A     -1.269710
      16A     -1.152178    17A     -1.130876    18A     -1.041561
      19A     -1.016522    20A     -1.010966    21A     -0.992789
      22A     -0.924473    23A     -0.845647    24A     -0.830151
      25A     -0.817538    26A     -0.790223    27A     -0.719207
      28A     -0.712842    29A     -0.669485    30A     -0.640647
      31A     -0.636159    32A     -0.620079    33A     -0.600284
      34A     -0.590354    35A     -0.585409    36A     -0.582579
      37A     -0.573541    38A     -0.546387    39A     -0.531100
      40A     -0.513611    41A     -0.501596    42A     -0.495359
      43A     -0.490104    44A     -0.486486    45A     -0.442750
      46A     -0.340461    47A     -0.335929    48A     -0.331572
      49A     -0.276702

  @DF-RHF Final Energy:  -554.48488240125835

   => Energetics <=

    Nuclear Repulsion Energy =            788.0157960076007839
    One-Electron Energy =               -2313.5613290239384696
    Two-Electron Energy =                 971.0606506150793393
    Total Energy =                       -554.4848824012583464
  Basis Set: (AUG-CC-PVTZ AUX)
    Blend: AUG-CC-PVTZ-RI
    Molecular point group: c1

    Geometry (in Angstrom), charge = 0, multiplicity = 1:

       Center              X                  Y                   Z               Mass
    ------------   -----------------  -----------------  -----------------  -----------------
         N            0.513490783837     1.179497279571     0.291805831955    14.003074004430
         C           -0.783056216163     0.658046279571     0.151293831955    12.000000000000
         C            1.696560783837     0.444839279571     0.083455831955    12.000000000000
         C           -3.438749216163    -0.309964720429    -0.024515168045    12.000000000000
         C           -1.152874216163    -0.531887720429     0.798551831955    12.000000000000
         C           -1.755568216163     1.363058279571    -0.570769168045    12.000000000000
         C           -2.457734216163    -1.007184720429     0.694448831955    12.000000000000
         C           -3.065139216163     0.889326279571    -0.641572168045    12.000000000000
         C            2.916508783837     1.054603279571     0.418283831955    12.000000000000
         C            1.705511783837    -0.859282720429    -0.433965168045    12.000000000000
         C           -4.858954216163    -0.809079720429    -0.083737168045    12.000000000000
         C            4.120618783837     0.383035279571     0.222121831955    12.000000000000
         C            2.917068783837    -1.529697720429    -0.608328168045    12.000000000000
         C            4.129350783837    -0.920155720429    -0.281641168045    12.000000000000
         H            0.585826583837     2.065601479571     0.076277831955     1.007825032230
         H           -0.419082216163    -1.066550720429     1.396207831955     1.007825032230
         H           -1.480327216163     2.282600279571    -1.085744168045     1.007825032230
         H           -2.722937216163    -1.935436720429     1.198963831955     1.007825032230
         H           -3.803488216163     1.454429279571    -1.208706168045     1.007825032230
         H            2.909607783837     2.059753279571     0.836764831955     1.007825032230
         H            0.774482783837    -1.333709720429    -0.728477168045     1.007825032230
         H           -5.368692216163    -0.437843720429    -0.977482168045     1.007825032230
         H           -4.891626216163    -1.902322720429    -0.105719168045     1.007825032230
         H           -5.434396216163    -0.478634720429     0.788186831955     1.007825032230
         H            5.054820783837     0.874942279571     0.483467831955     1.007825032230
         H            2.908374783837    -2.538968720429    -1.014194168045     1.007825032230
         H            5.067820783837    -1.449490720429    -0.423282168045     1.007825032230

  Basis Set: AUG-CC-PVTZ
    Blend: AUG-CC-PVTZ
  Basis Set: (AUG-CC-PVTZ AUX)
    Blend: AUG-CC-PVTZ-JKFIT
	 Reference Energy          =    -554.4848824012583464 [Eh]
	 Singles Energy            =      -0.0000000000000000 [Eh]
	 Same-Spin Energy          =      -0.6230965255167835 [Eh]
	 Opposite-Spin Energy      =      -1.9508312921813216 [Eh]
	 Correlation Energy        =      -2.5739278176981051 [Eh]
	 Total Energy              =    -557.0588102189564097 [Eh]

	 ================> DF-SCS-MP2 Energies <==================
	-----------------------------------------------------------
	 SCS Same-Spin Scale       =       0.3333333333333333 [-]
	 SCS Opposite-Spin Scale   =       1.2000000000000000 [-]
	 SCS Same-Spin Energy      =      -0.2076988418389278 [Eh]
	 SCS Opposite-Spin Energy  =      -2.3409975506175860 [Eh]
	 SCS Correlation Energy    =      -2.5486963924565136 [Eh]
	 SCS Total Energy          =    -557.0335787937148098 [Eh]
	-----------------------------------------------------------

  Dipole Moment: [D]
     X:    -0.6384      Y:     0.5052      Z:    -0.3297     Total:     0.8784

*** Psi4 exiting successfully. Buy a developer a beer!
