                               Psi4 1.4a3.dev225

  ==> Input File <==

--------------------------------------------------------------------------
#psi4
#
memory 32 gb

molecule  {
0 1
  N        0.5479400     1.1907050     0.2959170
  C       -0.7486070     0.6692540     0.1554050
  C        1.7142064     0.4664816     0.0905263
  C       -3.4043000    -0.2987570    -0.0204040
  C       -1.1184250    -0.5206800     0.8026630
  C       -1.7211190     1.3742660    -0.5666580
  C       -2.4232850    -0.9959770     0.6985600
  C       -3.0306900     0.9005340    -0.6374610
  C        2.9509580     1.0658110     0.4223950
  C        1.7399610    -0.8480750    -0.4298540
  C       -4.8245050    -0.7978720    -0.0796260
  C        4.1550680     0.3942430     0.2262330
  C        2.9515180    -1.5184900    -0.6042170
  C        4.1638000    -0.9089480    -0.2775300
  H        0.6281830     2.1736720     0.0568290
  H       -0.3846330    -1.0553430     1.4003190
  H       -1.4458780     2.2938080    -1.0816330
  H       -2.6884880    -1.9242290     1.2030750
  H       -3.7690390     1.4656370    -1.2045950
  H        2.9440570     2.0709610     0.8408760
  H        0.8089320    -1.3225020    -0.7243660
  H       -5.3342430    -0.4266360    -0.9733710
  H       -4.8571770    -1.8911150    -0.1016080
  H       -5.3999470    -0.4674270     0.7922980
  H        5.0892700     0.8861500     0.4875790
  H        2.9428240    -2.5277610    -1.0100830
  H        5.1022700    -1.4382830    -0.4191710
units angstrom
no_reorient  #important for SAPT in psi4, default
symmetry c1  #important for SAPT in psi4, default
}

set PROPERTIES_ORIGIN ["COM"]
properties('MP2/aug-cc-pvtz', properties = ['dipole'])
--------------------------------------------------------------------------

    Molecular point group: c1
  Charge       = 0
  Multiplicity = 1
  Basis Set: AUG-CC-PVTZ
    Blend: AUG-CC-PVTZ
  Basis Set: (AUG-CC-PVTZ AUX)
    Blend: AUG-CC-PVTZ-JKFIT

    Orbital Energies [Eh]
    ---------------------

    Doubly Occupied:

       1A    -15.579310     2A    -11.283692     3A    -11.278502
       4A    -11.237206     5A    -11.237102     6A    -11.236388
       7A    -11.235703     8A    -11.235076     9A    -11.233785
      10A    -11.231136    11A    -11.228196    12A    -11.225888
      13A    -11.223809    14A    -11.223060    15A     -1.264092
      16A     -1.151678    17A     -1.127449    18A     -1.042046
      19A     -1.016187    20A     -1.009257    21A     -0.988099
      22A     -0.922689    23A     -0.843546    24A     -0.829658
      25A     -0.816715    26A     -0.785453    27A     -0.714359
      28A     -0.706090    29A     -0.669635    30A     -0.641248
      31A     -0.636169    32A     -0.618186    33A     -0.597778
      34A     -0.588795    35A     -0.585265    36A     -0.580811
      37A     -0.573984    38A     -0.546727    39A     -0.531523
      40A     -0.513634    41A     -0.501511    42A     -0.494560
      43A     -0.488274    44A     -0.485667    45A     -0.442982
      46A     -0.340615    47A     -0.335112    48A     -0.330363
      49A     -0.274700

  @DF-RHF Final Energy:  -554.49011221384058

   => Energetics <=

    Nuclear Repulsion Energy =            787.3710416229423572
    One-Electron Energy =               -2312.3548949865607938
    Two-Electron Energy =                 970.4937411497778612
    Total Energy =                       -554.4901122138405754
  Basis Set: (AUG-CC-PVTZ AUX)
    Blend: AUG-CC-PVTZ-RI
    Molecular point group: c1

    Geometry (in Angstrom), charge = 0, multiplicity = 1:

       Center              X                  Y                   Z               Mass
    ------------   -----------------  -----------------  -----------------  -----------------
         N            0.514548506663     1.178280293696     0.291741566888    14.003074004430
         C           -0.781998493337     0.656829293696     0.151229566888    12.000000000000
         C            1.680814906663     0.454056893696     0.086350866888    12.000000000000
         C           -3.437691493337    -0.311181706304    -0.024579433112    12.000000000000
         C           -1.151816493337    -0.533104706304     0.798487566888    12.000000000000
         C           -1.754510493337     1.361841293696    -0.570833433112    12.000000000000
         C           -2.456676493337    -1.008401706304     0.694384566888    12.000000000000
         C           -3.064081493337     0.888109293696    -0.641636433112    12.000000000000
         C            2.917566506663     1.053386293696     0.418219566888    12.000000000000
         C            1.706569506663    -0.860499706304    -0.434029433112    12.000000000000
         C           -4.857896493337    -0.810296706304    -0.083801433112    12.000000000000
         C            4.121676506663     0.381818293696     0.222057566888    12.000000000000
         C            2.918126506663    -1.530914706304    -0.608392433112    12.000000000000
         C            4.130408506663    -0.921372706304    -0.281705433112    12.000000000000
         H            0.594791506663     2.161247293696     0.052653566888     1.007825032230
         H           -0.418024493337    -1.067767706304     1.396143566888     1.007825032230
         H           -1.479269493337     2.281383293696    -1.085808433112     1.007825032230
         H           -2.721879493337    -1.936653706304     1.198899566888     1.007825032230
         H           -3.802430493337     1.453212293696    -1.208770433112     1.007825032230
         H            2.910665506663     2.058536293696     0.836700566888     1.007825032230
         H            0.775540506663    -1.334926706304    -0.728541433112     1.007825032230
         H           -5.367634493337    -0.439060706304    -0.977546433112     1.007825032230
         H           -4.890568493337    -1.903539706304    -0.105783433112     1.007825032230
         H           -5.433338493337    -0.479851706304     0.788122566888     1.007825032230
         H            5.055878506663     0.873725293696     0.483403566888     1.007825032230
         H            2.909432506663    -2.540185706304    -1.014258433112     1.007825032230
         H            5.068878506663    -1.450707706304    -0.423346433112     1.007825032230

  Basis Set: AUG-CC-PVTZ
    Blend: AUG-CC-PVTZ
  Basis Set: (AUG-CC-PVTZ AUX)
    Blend: AUG-CC-PVTZ-JKFIT
	 Reference Energy          =    -554.4901122138405754 [Eh]
	 Singles Energy            =      -0.0000000000000000 [Eh]
	 Same-Spin Energy          =      -0.6240702211162421 [Eh]
	 Opposite-Spin Energy      =      -1.9528523945227827 [Eh]
	 Correlation Energy        =      -2.5769226156390248 [Eh]
	 Total Energy              =    -557.0670348294795531 [Eh]

	 ================> DF-SCS-MP2 Energies <==================
	-----------------------------------------------------------
	 SCS Same-Spin Scale       =       0.3333333333333333 [-]
	 SCS Opposite-Spin Scale   =       1.2000000000000000 [-]
	 SCS Same-Spin Energy      =      -0.2080234070387474 [Eh]
	 SCS Opposite-Spin Energy  =      -2.3434228734273392 [Eh]
	 SCS Correlation Energy    =      -2.5514462804660867 [Eh]
	 SCS Total Energy          =    -557.0415584943066278 [Eh]
	-----------------------------------------------------------

  Dipole Moment: [D]
     X:    -0.8053      Y:     0.6235      Z:    -0.3231     Total:     1.0685

*** Psi4 exiting successfully. Buy a developer a beer!
