                               Psi4 1.4a3.dev225

  ==> Input File <==

--------------------------------------------------------------------------
#psi4
#
memory 32 gb

molecule  {
0 1
  N        0.5479400     1.1907050     0.2959170
  C       -0.7486070     0.6692540     0.1554050
  C        1.7310100     0.4560470     0.0875670
  C       -3.4043000    -0.2987570    -0.0204040
  C       -1.1184250    -0.5206800     0.8026630
  C       -1.7211190     1.3742660    -0.5666580
  C       -2.4232850    -0.9959770     0.6985600
  C       -3.0306900     0.9005340    -0.6374610
  C        2.9509580     1.0658110     0.4223950
  C        1.7399610    -0.8480750    -0.4298540
  C       -4.8245050    -0.7978720    -0.0796260
  C        4.1550680     0.3942430     0.2262330
  C        2.9515180    -1.5184900    -0.6042170
  C        4.1638000    -0.9089480    -0.2775300
  H        0.6281830     2.1736720     0.0568290
  H       -0.3846330    -1.0553430     1.4003190
  H       -1.4458780     2.2938080    -1.0816330
  H       -2.6884880    -1.9242290     1.2030750
  H       -3.7690390     1.4656370    -1.2045950
  H        2.9440570     2.0709610     0.8408760
  H        0.8089320    -1.3225020    -0.7243660
  H       -5.3342430    -0.4266360    -0.9733710
  H       -4.8571770    -1.8911150    -0.1016080
  H       -5.5049825    -0.4071108     0.9514504
  H        5.0892700     0.8861500     0.4875790
  H        2.9428240    -2.5277610    -1.0100830
  H        5.1022700    -1.4382830    -0.4191710
units angstrom
no_reorient  #important for SAPT in psi4, default
symmetry c1  #important for SAPT in psi4, default
}

set PROPERTIES_ORIGIN ["COM"]
properties('MP2/aug-cc-pvtz', properties = ['dipole'])
--------------------------------------------------------------------------

    Molecular point group: c1
  Charge       = 0
  Multiplicity = 1
  Basis Set: AUG-CC-PVTZ
    Blend: AUG-CC-PVTZ
  Basis Set: (AUG-CC-PVTZ AUX)
    Blend: AUG-CC-PVTZ-JKFIT

    Orbital Energies [Eh]
    ---------------------

    Doubly Occupied:

       1A    -15.578282     2A    -11.283266     3A    -11.278867
       4A    -11.245705     5A    -11.238387     6A    -11.237838
       7A    -11.237702     8A    -11.236379     9A    -11.235720
      10A    -11.233549    11A    -11.230932    12A    -11.229178
      13A    -11.226683    14A    -11.224988    15A     -1.259143
      16A     -1.152718    17A     -1.128889    18A     -1.039471
      19A     -1.016845    20A     -1.011343    21A     -0.988304
      22A     -0.913987    23A     -0.843646    24A     -0.829368
      25A     -0.816883    26A     -0.785060    27A     -0.713938
      28A     -0.704826    29A     -0.668980    30A     -0.640720
      31A     -0.636163    32A     -0.619695    33A     -0.598170
      34A     -0.587702    35A     -0.586052    36A     -0.583166
      37A     -0.553691    38A     -0.538865    39A     -0.530763
      40A     -0.513627    41A     -0.499634    42A     -0.493483
      43A     -0.490588    44A     -0.484978    45A     -0.439946
      46A     -0.341141    47A     -0.336382    48A     -0.330692
      49A     -0.276147

  @DF-RHF Final Energy:  -554.47130456113007

   => Energetics <=

    Nuclear Repulsion Energy =            786.5426678608779412
    One-Electron Energy =               -2310.6829828448662738
    Two-Electron Energy =                 969.6690104228583778
    Total Energy =                       -554.4713045611300686
  Basis Set: (AUG-CC-PVTZ AUX)
    Blend: AUG-CC-PVTZ-RI
    Molecular point group: c1

    Geometry (in Angstrom), charge = 0, multiplicity = 1:

       Center              X                  Y                   Z               Mass
    ------------   -----------------  -----------------  -----------------  -----------------
         N            0.514025386602     1.178632152435     0.291059519377    14.003074004430
         C           -0.782521613398     0.657181152435     0.150547519377    12.000000000000
         C            1.697095386602     0.443974152435     0.082709519377    12.000000000000
         C           -3.438214613398    -0.310829847565    -0.025261480623    12.000000000000
         C           -1.152339613398    -0.532752847565     0.797805519377    12.000000000000
         C           -1.755033613398     1.362193152435    -0.571515480623    12.000000000000
         C           -2.457199613398    -1.008049847565     0.693702519377    12.000000000000
         C           -3.064604613398     0.888461152435    -0.642318480623    12.000000000000
         C            2.917043386602     1.053738152435     0.417537519377    12.000000000000
         C            1.706046386602    -0.860147847565    -0.434711480623    12.000000000000
         C           -4.858419613398    -0.809944847565    -0.084483480623    12.000000000000
         C            4.121153386602     0.382170152435     0.221375519377    12.000000000000
         C            2.917603386602    -1.530562847565    -0.609074480623    12.000000000000
         C            4.129885386602    -0.921020847565    -0.282387480623    12.000000000000
         H            0.594268386602     2.161599152435     0.051971519377     1.007825032230
         H           -0.418547613398    -1.067415847565     1.395461519377     1.007825032230
         H           -1.479792613398     2.281735152435    -1.086490480623     1.007825032230
         H           -2.722402613398    -1.936301847565     1.198217519377     1.007825032230
         H           -3.802953613398     1.453564152435    -1.209452480623     1.007825032230
         H            2.910142386602     2.058888152435     0.836018519377     1.007825032230
         H            0.775017386602    -1.334574847565    -0.729223480623     1.007825032230
         H           -5.368157613398    -0.438708847565    -0.978228480623     1.007825032230
         H           -4.891091613398    -1.903187847565    -0.106465480623     1.007825032230
         H           -5.538897113398    -0.419183647565     0.946592919377     1.007825032230
         H            5.055355386602     0.874077152435     0.482721519377     1.007825032230
         H            2.908909386602    -2.539833847565    -1.014940480623     1.007825032230
         H            5.068355386602    -1.450355847565    -0.424028480623     1.007825032230

  Basis Set: AUG-CC-PVTZ
    Blend: AUG-CC-PVTZ
  Basis Set: (AUG-CC-PVTZ AUX)
    Blend: AUG-CC-PVTZ-JKFIT
	 Reference Energy          =    -554.4713045611300686 [Eh]
	 Singles Energy            =      -0.0000000000000000 [Eh]
	 Same-Spin Energy          =      -0.6238690262991486 [Eh]
	 Opposite-Spin Energy      =      -1.9541003226658247 [Eh]
	 Correlation Energy        =      -2.5779693489649733 [Eh]
	 Total Energy              =    -557.0492739100950530 [Eh]

	 ================> DF-SCS-MP2 Energies <==================
	-----------------------------------------------------------
	 SCS Same-Spin Scale       =       0.3333333333333333 [-]
	 SCS Opposite-Spin Scale   =       1.2000000000000000 [-]
	 SCS Same-Spin Energy      =      -0.2079563420997162 [Eh]
	 SCS Opposite-Spin Energy  =      -2.3449203871989894 [Eh]
	 SCS Correlation Energy    =      -2.5528767292987058 [Eh]
	 SCS Total Energy          =    -557.0241812904288281 [Eh]
	-----------------------------------------------------------

  Dipole Moment: [D]
     X:    -0.4534      Y:     0.5789      Z:    -0.4234     Total:     0.8485

*** Psi4 exiting successfully. Buy a developer a beer!
