                               Psi4 1.4a3.dev225

  ==> Input File <==

--------------------------------------------------------------------------
#psi4
#
memory 32 gb

molecule  {
0 1
  N        0.5479400     1.1907050     0.2959170
  C       -0.7486070     0.6692540     0.1554050
  C        1.5629740     0.5603933     0.1171598
  C       -3.4043000    -0.2987570    -0.0204040
  C       -1.1184250    -0.5206800     0.8026630
  C       -1.7211190     1.3742660    -0.5666580
  C       -2.4232850    -0.9959770     0.6985600
  C       -3.0306900     0.9005340    -0.6374610
  C        2.9509580     1.0658110     0.4223950
  C        1.7399610    -0.8480750    -0.4298540
  C       -4.8245050    -0.7978720    -0.0796260
  C        4.1550680     0.3942430     0.2262330
  C        2.9515180    -1.5184900    -0.6042170
  C        4.1638000    -0.9089480    -0.2775300
  H        0.6281830     2.1736720     0.0568290
  H       -0.3846330    -1.0553430     1.4003190
  H       -1.4458780     2.2938080    -1.0816330
  H       -2.6884880    -1.9242290     1.2030750
  H       -3.7690390     1.4656370    -1.2045950
  H        2.9440570     2.0709610     0.8408760
  H        0.8089320    -1.3225020    -0.7243660
  H       -5.3342430    -0.4266360    -0.9733710
  H       -4.8571770    -1.8911150    -0.1016080
  H       -5.3999470    -0.4674270     0.7922980
  H        5.0892700     0.8861500     0.4875790
  H        2.9428240    -2.5277610    -1.0100830
  H        5.1022700    -1.4382830    -0.4191710
units angstrom
no_reorient  #important for SAPT in psi4, default
symmetry c1  #important for SAPT in psi4, default
}

set PROPERTIES_ORIGIN ["COM"]
properties('MP2/aug-cc-pvtz', properties = ['dipole'])
--------------------------------------------------------------------------

    Molecular point group: c1
  Charge       = 0
  Multiplicity = 1
  Basis Set: AUG-CC-PVTZ
    Blend: AUG-CC-PVTZ
  Basis Set: (AUG-CC-PVTZ AUX)
    Blend: AUG-CC-PVTZ-JKFIT

    Orbital Energies [Eh]
    ---------------------

    Doubly Occupied:

       1A    -15.600673     2A    -11.294304     3A    -11.290303
       4A    -11.248616     5A    -11.247761     6A    -11.244498
       7A    -11.244232     8A    -11.243023     9A    -11.231013
      10A    -11.229399    11A    -11.228697    12A    -11.222284
      13A    -11.221925    14A    -11.205402    15A     -1.339070
      16A     -1.162118    17A     -1.109516    18A     -1.058369
      19A     -1.025885    20A     -0.992005    21A     -0.975001
      22A     -0.932087    23A     -0.859034    24A     -0.840671
      25A     -0.813466    26A     -0.786361    27A     -0.730364
      28A     -0.727714    29A     -0.667245    30A     -0.651568
      31A     -0.650859    32A     -0.617623    33A     -0.604634
      34A     -0.594926    35A     -0.591311    36A     -0.581149
      37A     -0.563428    38A     -0.552487    39A     -0.542784
      40A     -0.515565    41A     -0.504291    42A     -0.498309
      43A     -0.494485    44A     -0.458781    45A     -0.434855
      46A     -0.348816    47A     -0.333394    48A     -0.325901
      49A     -0.255728

  @DF-RHF Final Energy:  -554.42807599329660

   => Energetics <=

    Nuclear Repulsion Energy =            788.1170015287867727
    One-Electron Energy =               -2313.3062951069618975
    Two-Electron Energy =                 970.7612175848786364
    Total Energy =                       -554.4280759932966021
  Basis Set: (AUG-CC-PVTZ AUX)
    Blend: AUG-CC-PVTZ-RI
    Molecular point group: c1

    Geometry (in Angstrom), charge = 0, multiplicity = 1:

       Center              X                  Y                   Z               Mass
    ------------   -----------------  -----------------  -----------------  -----------------
         N            0.524459709459     1.172125674027     0.289996107452    14.003074004430
         C           -0.772087290541     0.650674674027     0.149484107452    12.000000000000
         C            1.539493709459     0.541813974027     0.111238907452    12.000000000000
         C           -3.427780290541    -0.317336325973    -0.026324892548    12.000000000000
         C           -1.141905290541    -0.539259325973     0.796742107452    12.000000000000
         C           -1.744599290541     1.355686674027    -0.572578892548    12.000000000000
         C           -2.446765290541    -1.014556325973     0.692639107452    12.000000000000
         C           -3.054170290541     0.881954674027    -0.643381892548    12.000000000000
         C            2.927477709459     1.047231674027     0.416474107452    12.000000000000
         C            1.716480709459    -0.866654325973    -0.435774892548    12.000000000000
         C           -4.847985290541    -0.816451325973    -0.085546892548    12.000000000000
         C            4.131587709459     0.375663674027     0.220312107452    12.000000000000
         C            2.928037709459    -1.537069325973    -0.610137892548    12.000000000000
         C            4.140319709459    -0.927527325973    -0.283450892548    12.000000000000
         H            0.604702709459     2.155092674027     0.050908107452     1.007825032230
         H           -0.408113290541    -1.073922325973     1.394398107452     1.007825032230
         H           -1.469358290541     2.275228674027    -1.087553892548     1.007825032230
         H           -2.711968290541    -1.942808325973     1.197154107452     1.007825032230
         H           -3.792519290541     1.447057674027    -1.210515892548     1.007825032230
         H            2.920576709459     2.052381674027     0.834955107452     1.007825032230
         H            0.785451709459    -1.341081325973    -0.730286892548     1.007825032230
         H           -5.357723290541    -0.445215325973    -0.979291892548     1.007825032230
         H           -4.880657290541    -1.909694325973    -0.107528892548     1.007825032230
         H           -5.423427290541    -0.486006325973     0.786377107452     1.007825032230
         H            5.065789709459     0.867570674027     0.481658107452     1.007825032230
         H            2.919343709459    -2.546340325973    -1.016003892548     1.007825032230
         H            5.078789709459    -1.456862325973    -0.425091892548     1.007825032230

  Basis Set: AUG-CC-PVTZ
    Blend: AUG-CC-PVTZ
  Basis Set: (AUG-CC-PVTZ AUX)
    Blend: AUG-CC-PVTZ-JKFIT
	 Reference Energy          =    -554.4280759932966021 [Eh]
	 Singles Energy            =      -0.0000000000000000 [Eh]
	 Same-Spin Energy          =      -0.6263792223546191 [Eh]
	 Opposite-Spin Energy      =      -1.9564707112761197 [Eh]
	 Correlation Energy        =      -2.5828499336307389 [Eh]
	 Total Energy              =    -557.0109259269273707 [Eh]

	 ================> DF-SCS-MP2 Energies <==================
	-----------------------------------------------------------
	 SCS Same-Spin Scale       =       0.3333333333333333 [-]
	 SCS Opposite-Spin Scale   =       1.2000000000000000 [-]
	 SCS Same-Spin Energy      =      -0.2087930741182064 [Eh]
	 SCS Opposite-Spin Energy  =      -2.3477648535313436 [Eh]
	 SCS Correlation Energy    =      -2.5565579276495498 [Eh]
	 SCS Total Energy          =    -556.9846339209461803 [Eh]
	-----------------------------------------------------------

  Dipole Moment: [D]
     X:    -2.5644      Y:     1.0798      Z:    -0.1400     Total:     2.7860

*** Psi4 exiting successfully. Buy a developer a beer!
