                               Psi4 1.4a3.dev225

  ==> Input File <==

--------------------------------------------------------------------------
#psi4
#
memory 32 gb

molecule  {
0 1
  N        0.5479400     1.1907050     0.2959170
  C       -0.7486070     0.6692540     0.1554050
  C        1.7310100     0.4560470     0.0875670
  C       -3.4043000    -0.2987570    -0.0204040
  C       -1.1184250    -0.5206800     0.8026630
  C       -1.7211190     1.3742660    -0.5666580
  C       -2.4232850    -0.9959770     0.6985600
  C       -3.0306900     0.9005340    -0.6374610
  C        2.9509580     1.0658110     0.4223950
  C        1.7399610    -0.8480750    -0.4298540
  C       -4.8245050    -0.7978720    -0.0796260
  C        4.1550680     0.3942430     0.2262330
  C        2.9515180    -1.5184900    -0.6042170
  C        4.0769398    -0.9526218    -0.3009372
  H        0.6281830     2.1736720     0.0568290
  H       -0.3846330    -1.0553430     1.4003190
  H       -1.4458780     2.2938080    -1.0816330
  H       -2.6884880    -1.9242290     1.2030750
  H       -3.7690390     1.4656370    -1.2045950
  H        2.9440570     2.0709610     0.8408760
  H        0.8089320    -1.3225020    -0.7243660
  H       -5.3342430    -0.4266360    -0.9733710
  H       -4.8571770    -1.8911150    -0.1016080
  H       -5.3999470    -0.4674270     0.7922980
  H        5.0892700     0.8861500     0.4875790
  H        2.9428240    -2.5277610    -1.0100830
  H        5.1022700    -1.4382830    -0.4191710
units angstrom
no_reorient  #important for SAPT in psi4, default
symmetry c1  #important for SAPT in psi4, default
}

set PROPERTIES_ORIGIN ["COM"]
properties('MP2/aug-cc-pvtz', properties = ['dipole'])
--------------------------------------------------------------------------

    Molecular point group: c1
  Charge       = 0
  Multiplicity = 1
  Basis Set: AUG-CC-PVTZ
    Blend: AUG-CC-PVTZ
  Basis Set: (AUG-CC-PVTZ AUX)
    Blend: AUG-CC-PVTZ-JKFIT

    Orbital Energies [Eh]
    ---------------------

    Doubly Occupied:

       1A    -15.576713     2A    -11.281286     3A    -11.276888
       4A    -11.243557     5A    -11.235783     6A    -11.234382
       7A    -11.233761     8A    -11.232179     9A    -11.231331
      10A    -11.229494    11A    -11.224417    12A    -11.223462
      13A    -11.222854    14A    -11.221988    15A     -1.257717
      16A     -1.154189    17A     -1.132421    18A     -1.043557
      19A     -1.015547    20A     -1.013281    21A     -0.988439
      22A     -0.921914    23A     -0.841241    24A     -0.834854
      25A     -0.810816    26A     -0.785575    27A     -0.714291
      28A     -0.704233    29A     -0.662295    30A     -0.638906
      31A     -0.635187    32A     -0.622726    33A     -0.595898
      34A     -0.590776    35A     -0.586176    36A     -0.583264
      37A     -0.572897    38A     -0.545298    39A     -0.531005
      40A     -0.513498    41A     -0.498051    42A     -0.495261
      43A     -0.487348    44A     -0.478961    45A     -0.444497
      46A     -0.344487    47A     -0.338485    48A     -0.327602
      49A     -0.276053

  @DF-RHF Final Energy:  -554.47745491582123

   => Energetics <=

    Nuclear Repulsion Energy =            788.5496206283376068
    One-Electron Energy =               -2314.7444703804726487
    Two-Electron Energy =                 971.7173948363138152
    Total Energy =                       -554.4774549158212267
  Basis Set: (AUG-CC-PVTZ AUX)
    Blend: AUG-CC-PVTZ-RI
    Molecular point group: c1

    Geometry (in Angstrom), charge = 0, multiplicity = 1:

       Center              X                  Y                   Z               Mass
    ------------   -----------------  -----------------  -----------------  -----------------
         N            0.519139752783     1.181826354761     0.293469528149    14.003074004430
         C           -0.777407247217     0.660375354761     0.152957528149    12.000000000000
         C            1.702209752783     0.447168354761     0.085119528149    12.000000000000
         C           -3.433100247217    -0.307635645239    -0.022851471851    12.000000000000
         C           -1.147225247217    -0.529558645239     0.800215528149    12.000000000000
         C           -1.749919247217     1.365387354761    -0.569105471851    12.000000000000
         C           -2.452085247217    -1.004855645239     0.696112528149    12.000000000000
         C           -3.059490247217     0.891655354761    -0.639908471851    12.000000000000
         C            2.922157752783     1.056932354761     0.419947528149    12.000000000000
         C            1.711160752783    -0.856953645239    -0.432301471851    12.000000000000
         C           -4.853305247217    -0.806750645239    -0.082073471851    12.000000000000
         C            4.126267752783     0.385364354761     0.223785528149    12.000000000000
         C            2.922717752783    -1.527368645239    -0.606664471851    12.000000000000
         C            4.048139552783    -0.961500445239    -0.303384671851    12.000000000000
         H            0.599382752783     2.164793354761     0.054381528149     1.007825032230
         H           -0.413433247217    -1.064221645239     1.397871528149     1.007825032230
         H           -1.474678247217     2.284929354761    -1.084080471851     1.007825032230
         H           -2.717288247217    -1.933107645239     1.200627528149     1.007825032230
         H           -3.797839247217     1.456758354761    -1.207042471851     1.007825032230
         H            2.915256752783     2.062082354761     0.838428528149     1.007825032230
         H            0.780131752783    -1.331380645239    -0.726813471851     1.007825032230
         H           -5.363043247217    -0.435514645239    -0.975818471851     1.007825032230
         H           -4.885977247217    -1.899993645239    -0.104055471851     1.007825032230
         H           -5.428747247217    -0.476305645239     0.789850528149     1.007825032230
         H            5.060469752783     0.877271354761     0.485131528149     1.007825032230
         H            2.914023752783    -2.536639645239    -1.012530471851     1.007825032230
         H            5.073469752783    -1.447161645239    -0.421618471851     1.007825032230

  Basis Set: AUG-CC-PVTZ
    Blend: AUG-CC-PVTZ
  Basis Set: (AUG-CC-PVTZ AUX)
    Blend: AUG-CC-PVTZ-JKFIT
	 Reference Energy          =    -554.4774549158212267 [Eh]
	 Singles Energy            =      -0.0000000000000000 [Eh]
	 Same-Spin Energy          =      -0.6237652302131391 [Eh]
	 Opposite-Spin Energy      =      -1.9529462587743331 [Eh]
	 Correlation Energy        =      -2.5767114889874723 [Eh]
	 Total Energy              =    -557.0541664048087114 [Eh]

	 ================> DF-SCS-MP2 Energies <==================
	-----------------------------------------------------------
	 SCS Same-Spin Scale       =       0.3333333333333333 [-]
	 SCS Opposite-Spin Scale   =       1.2000000000000000 [-]
	 SCS Same-Spin Energy      =      -0.2079217434043797 [Eh]
	 SCS Opposite-Spin Energy  =      -2.3435355105291995 [Eh]
	 SCS Correlation Energy    =      -2.5514572539335791 [Eh]
	 SCS Total Energy          =    -557.0289121697547898 [Eh]
	-----------------------------------------------------------

  Dipole Moment: [D]
     X:    -0.5854      Y:     0.6215      Z:    -0.3199     Total:     0.9117

*** Psi4 exiting successfully. Buy a developer a beer!
