                               Psi4 1.4a3.dev225

  ==> Input File <==

--------------------------------------------------------------------------
#psi4
#
memory 32 gb

molecule  {
0 1
  N        0.5479400     1.1907050     0.2959170
  C       -0.7947631     0.6506907     0.1504029
  C        1.7310100     0.4560470     0.0875670
  C       -3.4043000    -0.2987570    -0.0204040
  C       -1.1184250    -0.5206800     0.8026630
  C       -1.7211190     1.3742660    -0.5666580
  C       -2.4232850    -0.9959770     0.6985600
  C       -3.0306900     0.9005340    -0.6374610
  C        2.9509580     1.0658110     0.4223950
  C        1.7399610    -0.8480750    -0.4298540
  C       -4.8245050    -0.7978720    -0.0796260
  C        4.1550680     0.3942430     0.2262330
  C        2.9515180    -1.5184900    -0.6042170
  C        4.1638000    -0.9089480    -0.2775300
  H        0.6281830     2.1736720     0.0568290
  H       -0.3846330    -1.0553430     1.4003190
  H       -1.4458780     2.2938080    -1.0816330
  H       -2.6884880    -1.9242290     1.2030750
  H       -3.7690390     1.4656370    -1.2045950
  H        2.9440570     2.0709610     0.8408760
  H        0.8089320    -1.3225020    -0.7243660
  H       -5.3342430    -0.4266360    -0.9733710
  H       -4.8571770    -1.8911150    -0.1016080
  H       -5.3999470    -0.4674270     0.7922980
  H        5.0892700     0.8861500     0.4875790
  H        2.9428240    -2.5277610    -1.0100830
  H        5.1022700    -1.4382830    -0.4191710
units angstrom
no_reorient  #important for SAPT in psi4, default
symmetry c1  #important for SAPT in psi4, default
}

set PROPERTIES_ORIGIN ["COM"]
properties('MP2/aug-cc-pvtz', properties = ['dipole'])
--------------------------------------------------------------------------

    Molecular point group: c1
  Charge       = 0
  Multiplicity = 1
  Basis Set: AUG-CC-PVTZ
    Blend: AUG-CC-PVTZ
  Basis Set: (AUG-CC-PVTZ AUX)
    Blend: AUG-CC-PVTZ-JKFIT

    Orbital Energies [Eh]
    ---------------------

    Doubly Occupied:

       1A    -15.573223     2A    -11.280123     3A    -11.275352
       4A    -11.238557     5A    -11.236545     6A    -11.236039
       7A    -11.236029     8A    -11.235439     9A    -11.232947
      10A    -11.230222    11A    -11.225920    12A    -11.224763
      13A    -11.223659    14A    -11.222075    15A     -1.245739
      16A     -1.155957    17A     -1.125861    18A     -1.043845
      19A     -1.019850    20A     -1.009699    21A     -0.986160
      22A     -0.923056    23A     -0.844354    24A     -0.827038
      25A     -0.814902    26A     -0.786606    27A     -0.709275
      28A     -0.698824    29A     -0.667016    30A     -0.640706
      31A     -0.636421    32A     -0.618237    33A     -0.596384
      34A     -0.590551    35A     -0.583733    36A     -0.580753
      37A     -0.574289    38A     -0.543927    39A     -0.530445
      40A     -0.512141    41A     -0.500616    42A     -0.496288
      43A     -0.492183    44A     -0.486362    45A     -0.439694
      46A     -0.341983    47A     -0.334670    48A     -0.331997
      49A     -0.278160

  @DF-RHF Final Energy:  -554.48869698898329

   => Energetics <=

    Nuclear Repulsion Energy =            787.3768928550623514
    One-Electron Energy =               -2312.4539490633942478
    Two-Electron Energy =                 970.5883592193486038
    Total Energy =                       -554.4886969889832926
  Basis Set: (AUG-CC-PVTZ AUX)
    Blend: AUG-CC-PVTZ-RI
    Molecular point group: c1

    Geometry (in Angstrom), charge = 0, multiplicity = 1:

       Center              X                  Y                   Z               Mass
    ------------   -----------------  -----------------  -----------------  -----------------
         N            0.516472159135     1.180180707018     0.292263327106    14.003074004430
         C           -0.826230940865     0.640166407018     0.146749227106    12.000000000000
         C            1.699542159135     0.445522707018     0.083913327106    12.000000000000
         C           -3.435767840865    -0.309281292982    -0.024057672894    12.000000000000
         C           -1.149892840865    -0.531204292982     0.799009327106    12.000000000000
         C           -1.752586840865     1.363741707018    -0.570311672894    12.000000000000
         C           -2.454752840865    -1.006501292982     0.694906327106    12.000000000000
         C           -3.062157840865     0.890009707018    -0.641114672894    12.000000000000
         C            2.919490159135     1.055286707018     0.418741327106    12.000000000000
         C            1.708493159135    -0.858599292982    -0.433507672894    12.000000000000
         C           -4.855972840865    -0.808396292982    -0.083279672894    12.000000000000
         C            4.123600159135     0.383718707018     0.222579327106    12.000000000000
         C            2.920050159135    -1.529014292982    -0.607870672894    12.000000000000
         C            4.132332159135    -0.919472292982    -0.281183672894    12.000000000000
         H            0.596715159135     2.163147707018     0.053175327106     1.007825032230
         H           -0.416100840865    -1.065867292982     1.396665327106     1.007825032230
         H           -1.477345840865     2.283283707018    -1.085286672894     1.007825032230
         H           -2.719955840865    -1.934753292982     1.199421327106     1.007825032230
         H           -3.800506840865     1.455112707018    -1.208248672894     1.007825032230
         H            2.912589159135     2.060436707018     0.837222327106     1.007825032230
         H            0.777464159135    -1.333026292982    -0.728019672894     1.007825032230
         H           -5.365710840865    -0.437160292982    -0.977024672894     1.007825032230
         H           -4.888644840865    -1.901639292982    -0.105261672894     1.007825032230
         H           -5.431414840865    -0.477951292982     0.788644327106     1.007825032230
         H            5.057802159135     0.875625707018     0.483925327106     1.007825032230
         H            2.911356159135    -2.538285292982    -1.013736672894     1.007825032230
         H            5.070802159135    -1.448807292982    -0.422824672894     1.007825032230

  Basis Set: AUG-CC-PVTZ
    Blend: AUG-CC-PVTZ
  Basis Set: (AUG-CC-PVTZ AUX)
    Blend: AUG-CC-PVTZ-JKFIT
	 Reference Energy          =    -554.4886969889832926 [Eh]
	 Singles Energy            =      -0.0000000000000000 [Eh]
	 Same-Spin Energy          =      -0.6235442645234079 [Eh]
	 Opposite-Spin Energy      =      -1.9522846905216058 [Eh]
	 Correlation Energy        =      -2.5758289550450137 [Eh]
	 Total Energy              =    -557.0645259440283326 [Eh]

	 ================> DF-SCS-MP2 Energies <==================
	-----------------------------------------------------------
	 SCS Same-Spin Scale       =       0.3333333333333333 [-]
	 SCS Opposite-Spin Scale   =       1.2000000000000000 [-]
	 SCS Same-Spin Energy      =      -0.2078480881744693 [Eh]
	 SCS Opposite-Spin Energy  =      -2.3427416286259271 [Eh]
	 SCS Correlation Energy    =      -2.5505897168003964 [Eh]
	 SCS Total Energy          =    -557.0392867057836384 [Eh]
	-----------------------------------------------------------

  Dipole Moment: [D]
     X:    -1.0219      Y:     0.5417      Z:    -0.3566     Total:     1.2103

*** Psi4 exiting successfully. Buy a developer a beer!
