                               Psi4 1.4a3.dev225

  ==> Input File <==

--------------------------------------------------------------------------
#psi4
#
memory 32 gb

molecule  {
0 1
  N        0.5479400     1.1907050     0.2959170
  C       -0.7486070     0.6692540     0.1554050
  C        1.7310100     0.4560470     0.0875670
  C       -3.4043000    -0.2987570    -0.0204040
  C       -1.1184250    -0.5206800     0.8026630
  C       -1.7211190     1.3742660    -0.5666580
  C       -2.4232850    -0.9959770     0.6985600
  C       -3.0306900     0.9005340    -0.6374610
  C        2.9509580     1.0658110     0.4223950
  C        1.7399610    -0.8480750    -0.4298540
  C       -4.8245050    -0.7978720    -0.0796260
  C        4.1983001     0.3701312     0.2191900
  C        2.9515180    -1.5184900    -0.6042170
  C        4.1638000    -0.9089480    -0.2775300
  H        0.6281830     2.1736720     0.0568290
  H       -0.3846330    -1.0553430     1.4003190
  H       -1.4458780     2.2938080    -1.0816330
  H       -2.6884880    -1.9242290     1.2030750
  H       -3.7690390     1.4656370    -1.2045950
  H        2.9440570     2.0709610     0.8408760
  H        0.8089320    -1.3225020    -0.7243660
  H       -5.3342430    -0.4266360    -0.9733710
  H       -4.8571770    -1.8911150    -0.1016080
  H       -5.3999470    -0.4674270     0.7922980
  H        5.0892700     0.8861500     0.4875790
  H        2.9428240    -2.5277610    -1.0100830
  H        5.1022700    -1.4382830    -0.4191710
units angstrom
no_reorient  #important for SAPT in psi4, default
symmetry c1  #important for SAPT in psi4, default
}

set PROPERTIES_ORIGIN ["COM"]
properties('MP2/aug-cc-pvtz', properties = ['dipole'])
--------------------------------------------------------------------------

    Molecular point group: c1
  Charge       = 0
  Multiplicity = 1
  Basis Set: AUG-CC-PVTZ
    Blend: AUG-CC-PVTZ
  Basis Set: (AUG-CC-PVTZ AUX)
    Blend: AUG-CC-PVTZ-JKFIT

    Orbital Energies [Eh]
    ---------------------

    Doubly Occupied:

       1A    -15.576593     2A    -11.282079     3A    -11.277282
       4A    -11.238417     5A    -11.237973     6A    -11.236107
       7A    -11.234799     8A    -11.234187     9A    -11.232425
      10A    -11.232203    11A    -11.229940    12A    -11.227953
      13A    -11.223190    14A    -11.223095    15A     -1.257659
      16A     -1.150959    17A     -1.127417    18A     -1.041285
      19A     -1.015406    20A     -1.007765    21A     -0.990520
      22A     -0.920779    23A     -0.844139    24A     -0.830506
      25A     -0.815696    26A     -0.785362    27A     -0.713943
      28A     -0.703613    29A     -0.668366    30A     -0.640058
      31A     -0.637057    32A     -0.617672    33A     -0.603221
      34A     -0.587643    35A     -0.584256    36A     -0.580688
      37A     -0.573189    38A     -0.544737    39A     -0.530057
      40A     -0.509329    41A     -0.502124    42A     -0.494164
      43A     -0.492503    44A     -0.485751    45A     -0.442316
      46A     -0.339683    47A     -0.333620    48A     -0.330467
      49A     -0.276670

  @DF-RHF Final Energy:  -554.48753243166254

   => Energetics <=

    Nuclear Repulsion Energy =            786.7272247225537285
    One-Electron Energy =               -2311.0997917185559345
    Two-Electron Energy =                 969.8850345643396622
    Total Energy =                       -554.4875324316625438
  Basis Set: (AUG-CC-PVTZ AUX)
    Blend: AUG-CC-PVTZ-RI
    Molecular point group: c1

    Geometry (in Angstrom), charge = 0, multiplicity = 1:

       Center              X                  Y                   Z               Mass
    ------------   -----------------  -----------------  -----------------  -----------------
         N            0.510613992645     1.180544334843     0.292397080017    14.003074004430
         C           -0.785933007355     0.659093334843     0.151885080017    12.000000000000
         C            1.693683992645     0.445886334843     0.084047080017    12.000000000000
         C           -3.441626007355    -0.308917665157    -0.023923919983    12.000000000000
         C           -1.155751007355    -0.530840665157     0.799143080017    12.000000000000
         C           -1.758445007355     1.364105334843    -0.570177919983    12.000000000000
         C           -2.460611007355    -1.006137665157     0.695040080017    12.000000000000
         C           -3.068016007355     0.890373334843    -0.640980919983    12.000000000000
         C            2.913631992645     1.055650334843     0.418875080017    12.000000000000
         C            1.702634992645    -0.858235665157    -0.433373919983    12.000000000000
         C           -4.861831007355    -0.808032665157    -0.083145919983    12.000000000000
         C            4.160974092645     0.359970534843     0.215670080017    12.000000000000
         C            2.914191992645    -1.528650665157    -0.607736919983    12.000000000000
         C            4.126473992645    -0.919108665157    -0.281049919983    12.000000000000
         H            0.590856992645     2.163511334843     0.053309080017     1.007825032230
         H           -0.421959007355    -1.065503665157     1.396799080017     1.007825032230
         H           -1.483204007355     2.283647334843    -1.085152919983     1.007825032230
         H           -2.725814007355    -1.934389665157     1.199555080017     1.007825032230
         H           -3.806365007355     1.455476334843    -1.208114919983     1.007825032230
         H            2.906730992645     2.060800334843     0.837356080017     1.007825032230
         H            0.771605992645    -1.332662665157    -0.727885919983     1.007825032230
         H           -5.371569007355    -0.436796665157    -0.976890919983     1.007825032230
         H           -4.894503007355    -1.901275665157    -0.105127919983     1.007825032230
         H           -5.437273007355    -0.477587665157     0.788778080017     1.007825032230
         H            5.051943992645     0.875989334843     0.484059080017     1.007825032230
         H            2.905497992645    -2.537921665157    -1.013602919983     1.007825032230
         H            5.064943992645    -1.448443665157    -0.422690919983     1.007825032230

  Basis Set: AUG-CC-PVTZ
    Blend: AUG-CC-PVTZ
  Basis Set: (AUG-CC-PVTZ AUX)
    Blend: AUG-CC-PVTZ-JKFIT
	 Reference Energy          =    -554.4875324316625438 [Eh]
	 Singles Energy            =      -0.0000000000000000 [Eh]
	 Same-Spin Energy          =      -0.6239286194813521 [Eh]
	 Opposite-Spin Energy      =      -1.9530014906002420 [Eh]
	 Correlation Energy        =      -2.5769301100815940 [Eh]
	 Total Energy              =    -557.0644625417440921 [Eh]

	 ================> DF-SCS-MP2 Energies <==================
	-----------------------------------------------------------
	 SCS Same-Spin Scale       =       0.3333333333333333 [-]
	 SCS Opposite-Spin Scale   =       1.2000000000000000 [-]
	 SCS Same-Spin Energy      =      -0.2079762064937840 [Eh]
	 SCS Opposite-Spin Energy  =      -2.3436017887202905 [Eh]
	 SCS Correlation Energy    =      -2.5515779952140747 [Eh]
	 SCS Total Energy          =    -557.0391104268766185 [Eh]
	-----------------------------------------------------------

  Dipole Moment: [D]
     X:    -0.6098      Y:     0.5618      Z:    -0.3474     Total:     0.8989

*** Psi4 exiting successfully. Buy a developer a beer!
