                               Psi4 1.4a3.dev225

  ==> Input File <==

--------------------------------------------------------------------------
#psi4
#
memory 32 gb

molecule  {
0 1
  N        0.5479400     1.1907050     0.2959170
  C       -0.7486070     0.6692540     0.1554050
  C        1.7310100     0.4560470     0.0875670
  C       -3.4043000    -0.2987570    -0.0204040
  C       -1.1184250    -0.5206800     0.8026630
  C       -1.8599008     1.4748744    -0.6696996
  C       -2.4232850    -0.9959770     0.6985600
  C       -3.0306900     0.9005340    -0.6374610
  C        2.9509580     1.0658110     0.4223950
  C        1.7399610    -0.8480750    -0.4298540
  C       -4.8245050    -0.7978720    -0.0796260
  C        4.1550680     0.3942430     0.2262330
  C        2.9515180    -1.5184900    -0.6042170
  C        4.1638000    -0.9089480    -0.2775300
  H        0.6281830     2.1736720     0.0568290
  H       -0.3846330    -1.0553430     1.4003190
  H       -1.4458780     2.2938080    -1.0816330
  H       -2.6884880    -1.9242290     1.2030750
  H       -3.7690390     1.4656370    -1.2045950
  H        2.9440570     2.0709610     0.8408760
  H        0.8089320    -1.3225020    -0.7243660
  H       -5.3342430    -0.4266360    -0.9733710
  H       -4.8571770    -1.8911150    -0.1016080
  H       -5.3999470    -0.4674270     0.7922980
  H        5.0892700     0.8861500     0.4875790
  H        2.9428240    -2.5277610    -1.0100830
  H        5.1022700    -1.4382830    -0.4191710
units angstrom
no_reorient  #important for SAPT in psi4, default
symmetry c1  #important for SAPT in psi4, default
}

set PROPERTIES_ORIGIN ["COM"]
properties('MP2/aug-cc-pvtz', properties = ['dipole'])
--------------------------------------------------------------------------

    Molecular point group: c1
  Charge       = 0
  Multiplicity = 1
  Basis Set: AUG-CC-PVTZ
    Blend: AUG-CC-PVTZ
  Basis Set: (AUG-CC-PVTZ AUX)
    Blend: AUG-CC-PVTZ-JKFIT

    Orbital Energies [Eh]
    ---------------------

    Doubly Occupied:

       1A    -15.582362     2A    -11.292257     3A    -11.283834
       4A    -11.238570     5A    -11.237632     6A    -11.236948
       7A    -11.235110     8A    -11.232505     9A    -11.229891
      10A    -11.227491    11A    -11.226621    12A    -11.225422
      13A    -11.224109    14A    -11.221694    15A     -1.256817
      16A     -1.147892    17A     -1.129572    18A     -1.030473
      19A     -1.029037    20A     -1.012339    21A     -0.991307
      22A     -0.913288    23A     -0.840361    24A     -0.829444
      25A     -0.821779    26A     -0.781863    27A     -0.711828
      28A     -0.702477    29A     -0.680322    30A     -0.659833
      31A     -0.633172    32A     -0.614813    33A     -0.599767
      34A     -0.590186    35A     -0.584601    36A     -0.576330
      37A     -0.569768    38A     -0.543128    39A     -0.525945
      40A     -0.515248    41A     -0.509014    42A     -0.493170
      43A     -0.490027    44A     -0.465307    45A     -0.436463
      46A     -0.356436    47A     -0.337601    48A     -0.322860
      49A     -0.266540

  @DF-RHF Final Energy:  -554.44854092147966

   => Energetics <=

    Nuclear Repulsion Energy =            784.5645404838546710
    One-Electron Energy =               -2306.6992541671493200
    Two-Electron Energy =                 967.6861727618149871
    Total Energy =                       -554.4485409214796618
  Basis Set: (AUG-CC-PVTZ AUX)
    Blend: AUG-CC-PVTZ-RI
    Molecular point group: c1

    Geometry (in Angstrom), charge = 0, multiplicity = 1:

       Center              X                  Y                   Z               Mass
    ------------   -----------------  -----------------  -----------------  -----------------
         N            0.522542499199     1.172370641937     0.298688467264    14.003074004430
         C           -0.774004500801     0.650919641937     0.158176467264    12.000000000000
         C            1.705612499199     0.437712641937     0.090338467264    12.000000000000
         C           -3.429697500801    -0.317091358063    -0.017632532736    12.000000000000
         C           -1.143822500801    -0.539014358063     0.805434467264    12.000000000000
         C           -1.885298300801     1.456540041937    -0.666928132736    12.000000000000
         C           -2.448682500801    -1.014311358063     0.701331467264    12.000000000000
         C           -3.056087500801     0.882199641937    -0.634689532736    12.000000000000
         C            2.925560499199     1.047476641937     0.425166467264    12.000000000000
         C            1.714563499199    -0.866409358063    -0.427082532736    12.000000000000
         C           -4.849902500801    -0.816206358063    -0.076854532736    12.000000000000
         C            4.129670499199     0.375908641937     0.229004467264    12.000000000000
         C            2.926120499199    -1.536824358063    -0.601445532736    12.000000000000
         C            4.138402499199    -0.927282358063    -0.274758532736    12.000000000000
         H            0.602785499199     2.155337641937     0.059600467264     1.007825032230
         H           -0.410030500801    -1.073677358063     1.403090467264     1.007825032230
         H           -1.471275500801     2.275473641937    -1.078861532736     1.007825032230
         H           -2.713885500801    -1.942563358063     1.205846467264     1.007825032230
         H           -3.794436500801     1.447302641937    -1.201823532736     1.007825032230
         H            2.918659499199     2.052626641937     0.843647467264     1.007825032230
         H            0.783534499199    -1.340836358063    -0.721594532736     1.007825032230
         H           -5.359640500801    -0.444970358063    -0.970599532736     1.007825032230
         H           -4.882574500801    -1.909449358063    -0.098836532736     1.007825032230
         H           -5.425344500801    -0.485761358063     0.795069467264     1.007825032230
         H            5.063872499199     0.867815641937     0.490350467264     1.007825032230
         H            2.917426499199    -2.546095358063    -1.007311532736     1.007825032230
         H            5.076872499199    -1.456617358063    -0.416399532736     1.007825032230

  Basis Set: AUG-CC-PVTZ
    Blend: AUG-CC-PVTZ
  Basis Set: (AUG-CC-PVTZ AUX)
    Blend: AUG-CC-PVTZ-JKFIT
	 Reference Energy          =    -554.4485409214796618 [Eh]
	 Singles Energy            =      -0.0000000000000000 [Eh]
	 Same-Spin Energy          =      -0.6239958291836757 [Eh]
	 Opposite-Spin Energy      =      -1.9554380901193833 [Eh]
	 Correlation Energy        =      -2.5794339193030589 [Eh]
	 Total Energy              =    -557.0279748407826901 [Eh]

	 ================> DF-SCS-MP2 Energies <==================
	-----------------------------------------------------------
	 SCS Same-Spin Scale       =       0.3333333333333333 [-]
	 SCS Opposite-Spin Scale   =       1.2000000000000000 [-]
	 SCS Same-Spin Energy      =      -0.2079986097278919 [Eh]
	 SCS Opposite-Spin Energy  =      -2.3465257081432598 [Eh]
	 SCS Correlation Energy    =      -2.5545243178711519 [Eh]
	 SCS Total Energy          =    -557.0030652393508035 [Eh]
	-----------------------------------------------------------

  Dipole Moment: [D]
     X:    -0.4094      Y:     0.6569      Z:    -0.3595     Total:     0.8534

*** Psi4 exiting successfully. Buy a developer a beer!
