                               Psi4 1.4a3.dev225

  ==> Input File <==

--------------------------------------------------------------------------
#psi4
#
memory 32 gb

molecule  {
0 1
  N        0.5479400     1.1907050     0.2959170
  C       -0.7486070     0.6692540     0.1554050
  C        1.7310100     0.4560470     0.0875670
  C       -3.4043000    -0.2987570    -0.0204040
  C       -1.1184250    -0.5206800     0.8026630
  C       -1.7211190     1.3742660    -0.5666580
  C       -2.4232850    -0.9959770     0.6985600
  C       -3.0306900     0.9005340    -0.6374610
  C        2.9509580     1.0658110     0.4223950
  C        1.7399610    -0.8480750    -0.4298540
  C       -4.8245050    -0.7978720    -0.0796260
  C        3.9821395     0.4906904     0.2544048
  C        2.9515180    -1.5184900    -0.6042170
  C        4.1638000    -0.9089480    -0.2775300
  H        0.6281830     2.1736720     0.0568290
  H       -0.3846330    -1.0553430     1.4003190
  H       -1.4458780     2.2938080    -1.0816330
  H       -2.6884880    -1.9242290     1.2030750
  H       -3.7690390     1.4656370    -1.2045950
  H        2.9440570     2.0709610     0.8408760
  H        0.8089320    -1.3225020    -0.7243660
  H       -5.3342430    -0.4266360    -0.9733710
  H       -4.8571770    -1.8911150    -0.1016080
  H       -5.3999470    -0.4674270     0.7922980
  H        5.0892700     0.8861500     0.4875790
  H        2.9428240    -2.5277610    -1.0100830
  H        5.1022700    -1.4382830    -0.4191710
units angstrom
no_reorient  #important for SAPT in psi4, default
symmetry c1  #important for SAPT in psi4, default
}

set PROPERTIES_ORIGIN ["COM"]
properties('MP2/aug-cc-pvtz', properties = ['dipole'])
--------------------------------------------------------------------------

    Molecular point group: c1
  Charge       = 0
  Multiplicity = 1
  Basis Set: AUG-CC-PVTZ
    Blend: AUG-CC-PVTZ
  Basis Set: (AUG-CC-PVTZ AUX)
    Blend: AUG-CC-PVTZ-JKFIT

    Orbital Energies [Eh]
    ---------------------

    Doubly Occupied:

       1A    -15.580775     2A    -11.285227     3A    -11.278015
       4A    -11.236965     5A    -11.235364     6A    -11.234694
       7A    -11.234152     8A    -11.233593     9A    -11.231519
      10A    -11.230755    11A    -11.229678    12A    -11.223639
      13A    -11.219460    14A    -11.207267    15A     -1.261208
      16A     -1.162475    17A     -1.135710    18A     -1.041867
      19A     -1.036888    20A     -1.014694    21A     -0.977801
      22A     -0.923168    23A     -0.841577    24A     -0.833350
      25A     -0.809115    26A     -0.784278    27A     -0.713083
      28A     -0.705222    29A     -0.670430    30A     -0.641921
      31A     -0.635493    32A     -0.623619    33A     -0.598521
      34A     -0.588274    35A     -0.584412    36A     -0.575119
      37A     -0.570899    38A     -0.550529    39A     -0.534281
      40A     -0.526226    41A     -0.502716    42A     -0.499453
      43A     -0.487121    44A     -0.451409    45A     -0.438194
      46A     -0.367583    47A     -0.339089    48A     -0.324298
      49A     -0.270626

  @DF-RHF Final Energy:  -554.42831380747202

   => Energetics <=

    Nuclear Repulsion Energy =            790.2047612574224331
    One-Electron Energy =               -2317.9026406830412270
    Two-Electron Energy =                 973.2695656181467712
    Total Energy =                       -554.4283138074720227
  Basis Set: (AUG-CC-PVTZ AUX)
    Blend: AUG-CC-PVTZ-RI
    Molecular point group: c1

    Geometry (in Angstrom), charge = 0, multiplicity = 1:

       Center              X                  Y                   Z               Mass
    ------------   -----------------  -----------------  -----------------  -----------------
         N            0.524780345511     1.172643338230     0.290089234448    14.003074004430
         C           -0.771766654489     0.651192338230     0.149577234448    12.000000000000
         C            1.707850345511     0.437985338230     0.081739234448    12.000000000000
         C           -3.427459654489    -0.316818661770    -0.026231765552    12.000000000000
         C           -1.141584654489    -0.538741661770     0.796835234448    12.000000000000
         C           -1.744278654489     1.356204338230    -0.572485765552    12.000000000000
         C           -2.446444654489    -1.014038661770     0.692732234448    12.000000000000
         C           -3.053849654489     0.882472338230    -0.643288765552    12.000000000000
         C            2.927798345511     1.047749338230     0.416567234448    12.000000000000
         C            1.716801345511    -0.866136661770    -0.435681765552    12.000000000000
         C           -4.847664654489    -0.815933661770    -0.085453765552    12.000000000000
         C            3.958979845511     0.472628738230     0.248577034448    12.000000000000
         C            2.928358345511    -1.536551661770    -0.610044765552    12.000000000000
         C            4.140640345511    -0.927009661770    -0.283357765552    12.000000000000
         H            0.605023345511     2.155610338230     0.051001234448     1.007825032230
         H           -0.407792654489    -1.073404661770     1.394491234448     1.007825032230
         H           -1.469037654489     2.275746338230    -1.087460765552     1.007825032230
         H           -2.711647654489    -1.942290661770     1.197247234448     1.007825032230
         H           -3.792198654489     1.447575338230    -1.210422765552     1.007825032230
         H            2.920897345511     2.052899338230     0.835048234448     1.007825032230
         H            0.785772345511    -1.340563661770    -0.730193765552     1.007825032230
         H           -5.357402654489    -0.444697661770    -0.979198765552     1.007825032230
         H           -4.880336654489    -1.909176661770    -0.107435765552     1.007825032230
         H           -5.423106654489    -0.485488661770     0.786470234448     1.007825032230
         H            5.066110345511     0.868088338230     0.481751234448     1.007825032230
         H            2.919664345511    -2.545822661770    -1.015910765552     1.007825032230
         H            5.079110345511    -1.456344661770    -0.424998765552     1.007825032230

  Basis Set: AUG-CC-PVTZ
    Blend: AUG-CC-PVTZ
  Basis Set: (AUG-CC-PVTZ AUX)
    Blend: AUG-CC-PVTZ-JKFIT
	 Reference Energy          =    -554.4283138074720227 [Eh]
	 Singles Energy            =      -0.0000000000000000 [Eh]
	 Same-Spin Energy          =      -0.6233288596926698 [Eh]
	 Opposite-Spin Energy      =      -1.9540189705240871 [Eh]
	 Correlation Energy        =      -2.5773478302167572 [Eh]
	 Total Energy              =    -557.0056616376888314 [Eh]

	 ================> DF-SCS-MP2 Energies <==================
	-----------------------------------------------------------
	 SCS Same-Spin Scale       =       0.3333333333333333 [-]
	 SCS Opposite-Spin Scale   =       1.2000000000000000 [-]
	 SCS Same-Spin Energy      =      -0.2077762865642233 [Eh]
	 SCS Opposite-Spin Energy  =      -2.3448227646289044 [Eh]
	 SCS Correlation Energy    =      -2.5525990511931278 [Eh]
	 SCS Total Energy          =    -556.9809128586651923 [Eh]
	-----------------------------------------------------------

  Dipole Moment: [D]
     X:    -0.7702      Y:     0.6370      Z:    -0.3185     Total:     1.0490

*** Psi4 exiting successfully. Buy a developer a beer!
