                               Psi4 1.4a3.dev225

  ==> Input File <==

--------------------------------------------------------------------------
#psi4
#
memory 32 gb

molecule  {
0 1
  N        0.5479400     1.1907050     0.2959170
  C       -0.7486070     0.6692540     0.1554050
  C        1.7310100     0.4560470     0.0875670
  C       -3.4043000    -0.2987570    -0.0204040
  C       -1.1184250    -0.5206800     0.8026630
  C       -1.7211190     1.3742660    -0.5666580
  C       -2.4232850    -0.9959770     0.6985600
  C       -3.0306900     0.9005340    -0.6374610
  C        2.9509580     1.0658110     0.4223950
  C        1.7399610    -0.8480750    -0.4298540
  C       -4.8245050    -0.7978720    -0.0796260
  C        4.1550680     0.3942430     0.2262330
  C        2.9515180    -1.5184900    -0.6042170
  C        4.1638000    -0.9089480    -0.2775300
  H        0.6281830     2.1736720     0.0568290
  H       -0.3846330    -1.0553430     1.4003190
  H       -1.4458780     2.2938080    -1.0816330
  H       -2.6884880    -1.9242290     1.2030750
  H       -3.7690390     1.4656370    -1.2045950
  H        2.9440570     2.0709610     0.8408760
  H        0.8089320    -1.3225020    -0.7243660
  H       -5.3342430    -0.4266360    -0.9733710
  H       -4.8571770    -1.8911150    -0.1016080
  H       -5.4104506    -0.4613954     0.8082132
  H        5.0892700     0.8861500     0.4875790
  H        2.9428240    -2.5277610    -1.0100830
  H        5.1022700    -1.4382830    -0.4191710
units angstrom
no_reorient  #important for SAPT in psi4, default
symmetry c1  #important for SAPT in psi4, default
}

set PROPERTIES_ORIGIN ["COM"]
properties('MP2/aug-cc-pvtz', properties = ['dipole'])
--------------------------------------------------------------------------

    Molecular point group: c1
  Charge       = 0
  Multiplicity = 1
  Basis Set: AUG-CC-PVTZ
    Blend: AUG-CC-PVTZ
  Basis Set: (AUG-CC-PVTZ AUX)
    Blend: AUG-CC-PVTZ-JKFIT

    Orbital Energies [Eh]
    ---------------------

    Doubly Occupied:

       1A    -15.577379     2A    -11.282673     3A    -11.277487
       4A    -11.237914     5A    -11.237211     6A    -11.236359
       7A    -11.234969     8A    -11.234357     9A    -11.232681
      10A    -11.230113    11A    -11.228636    12A    -11.226096
      13A    -11.225567    14A    -11.224481    15A     -1.258276
      16A     -1.151938    17A     -1.128295    18A     -1.040456
      19A     -1.015963    20A     -1.010757    21A     -0.989276
      22A     -0.920375    23A     -0.842801    24A     -0.829619
      25A     -0.816744    26A     -0.785171    27A     -0.713285
      28A     -0.704066    29A     -0.668592    30A     -0.640287
      31A     -0.635240    32A     -0.619105    33A     -0.597596
      34A     -0.587489    35A     -0.585252    36A     -0.582412
      37A     -0.570526    38A     -0.545420    39A     -0.530726
      40A     -0.513361    41A     -0.501123    42A     -0.494816
      43A     -0.489797    44A     -0.485972    45A     -0.441752
      46A     -0.340356    47A     -0.335772    48A     -0.330919
      49A     -0.275785

  @DF-RHF Final Energy:  -554.49035871300441

   => Energetics <=

    Nuclear Repulsion Energy =            787.2510311047234381
    One-Electron Energy =               -2312.1522929260559067
    Two-Electron Energy =                 970.4109031083279433
    Total Energy =                       -554.4903587130044116
  Basis Set: (AUG-CC-PVTZ AUX)
    Blend: AUG-CC-PVTZ-RI
    Molecular point group: c1

    Geometry (in Angstrom), charge = 0, multiplicity = 1:

       Center              X                  Y                   Z               Mass
    ------------   -----------------  -----------------  -----------------  -----------------
         N            0.513505074652     1.178930939681     0.291847909612    14.003074004430
         C           -0.783041925348     0.657479939681     0.151335909612    12.000000000000
         C            1.696575074652     0.444272939681     0.083497909612    12.000000000000
         C           -3.438734925348    -0.310531060319    -0.024473090388    12.000000000000
         C           -1.152859925348    -0.532454060319     0.798593909612    12.000000000000
         C           -1.755553925348     1.362491939681    -0.570727090388    12.000000000000
         C           -2.457719925348    -1.007751060319     0.694490909612    12.000000000000
         C           -3.065124925348     0.888759939681    -0.641530090388    12.000000000000
         C            2.916523074652     1.054036939681     0.418325909612    12.000000000000
         C            1.705526074652    -0.859849060319    -0.433923090388    12.000000000000
         C           -4.858939925348    -0.809646060319    -0.083695090388    12.000000000000
         C            4.120633074652     0.382468939681     0.222163909612    12.000000000000
         C            2.917083074652    -1.530264060319    -0.608286090388    12.000000000000
         C            4.129365074652    -0.920722060319    -0.281599090388    12.000000000000
         H            0.593748074652     2.161897939681     0.052759909612     1.007825032230
         H           -0.419067925348    -1.067117060319     1.396249909612     1.007825032230
         H           -1.480312925348     2.282033939681    -1.085702090388     1.007825032230
         H           -2.722922925348    -1.936003060319     1.199005909612     1.007825032230
         H           -3.803473925348     1.453862939681    -1.208664090388     1.007825032230
         H            2.909622074652     2.059186939681     0.836806909612     1.007825032230
         H            0.774497074652    -1.334276060319    -0.728435090388     1.007825032230
         H           -5.368677925348    -0.438410060319    -0.977440090388     1.007825032230
         H           -4.891611925348    -1.902889060319    -0.105677090388     1.007825032230
         H           -5.444885525348    -0.473169460319     0.804144109612     1.007825032230
         H            5.054835074652     0.874375939681     0.483509909612     1.007825032230
         H            2.908389074652    -2.539535060319    -1.014152090388     1.007825032230
         H            5.067835074652    -1.450057060319    -0.423240090388     1.007825032230

  Basis Set: AUG-CC-PVTZ
    Blend: AUG-CC-PVTZ
  Basis Set: (AUG-CC-PVTZ AUX)
    Blend: AUG-CC-PVTZ-JKFIT
	 Reference Energy          =    -554.4903587130044116 [Eh]
	 Singles Energy            =      -0.0000000000000000 [Eh]
	 Same-Spin Energy          =      -0.6239144572487432 [Eh]
	 Opposite-Spin Energy      =      -1.9527811510793729 [Eh]
	 Correlation Energy        =      -2.5766956083281158 [Eh]
	 Total Energy              =    -557.0670543213325345 [Eh]

	 ================> DF-SCS-MP2 Energies <==================
	-----------------------------------------------------------
	 SCS Same-Spin Scale       =       0.3333333333333333 [-]
	 SCS Opposite-Spin Scale   =       1.2000000000000000 [-]
	 SCS Same-Spin Energy      =      -0.2079714857495810 [Eh]
	 SCS Opposite-Spin Energy  =      -2.3433373812952474 [Eh]
	 SCS Correlation Energy    =      -2.5513088670448285 [Eh]
	 SCS Total Energy          =    -557.0416675800491930 [Eh]
	-----------------------------------------------------------

  Dipole Moment: [D]
     X:    -0.6209      Y:     0.5780      Z:    -0.3470     Total:     0.9165

*** Psi4 exiting successfully. Buy a developer a beer!
