                               Psi4 1.4a3.dev225

  ==> Input File <==

--------------------------------------------------------------------------
#psi4
#
memory 32 gb

molecule  {
0 1
  N        0.5479400     1.1907050     0.2959170
  C       -0.7486070     0.6692540     0.1554050
  C        1.7310100     0.4560470     0.0875670
  C       -3.4043000    -0.2987570    -0.0204040
  C       -1.1184250    -0.5206800     0.8026630
  C       -1.7211190     1.3742660    -0.5666580
  C       -2.4232850    -0.9959770     0.6985600
  C       -3.0306900     0.9005340    -0.6374610
  C        2.9509580     1.0658110     0.4223950
  C        1.7399610    -0.8480750    -0.4298540
  C       -4.8245050    -0.7978720    -0.0796260
  C        4.1550680     0.3942430     0.2262330
  C        2.9515180    -1.5184900    -0.6042170
  C        4.1638000    -0.9089480    -0.2775300
  H        0.6281830     2.1736720     0.0568290
  H       -0.3846330    -1.0553430     1.4003190
  H       -1.4458780     2.2938080    -1.0816330
  H       -2.6884880    -1.9242290     1.2030750
  H       -3.7690390     1.4656370    -1.2045950
  H        2.9440570     2.0709610     0.8408760
  H        0.8089320    -1.3225020    -0.7243660
  H       -5.3342430    -0.4266360    -0.9733710
  H       -4.8571770    -1.8911150    -0.1016080
  H       -5.4262059    -0.4523480     0.8320861
  H        5.0892700     0.8861500     0.4875790
  H        2.9428240    -2.5277610    -1.0100830
  H        5.1022700    -1.4382830    -0.4191710
units angstrom
no_reorient  #important for SAPT in psi4, default
symmetry c1  #important for SAPT in psi4, default
}

set PROPERTIES_ORIGIN ["COM"]
properties('MP2/aug-cc-pvtz', properties = ['dipole'])
--------------------------------------------------------------------------

    Molecular point group: c1
  Charge       = 0
  Multiplicity = 1
  Basis Set: AUG-CC-PVTZ
    Blend: AUG-CC-PVTZ
  Basis Set: (AUG-CC-PVTZ AUX)
    Blend: AUG-CC-PVTZ-JKFIT

    Orbital Energies [Eh]
    ---------------------

    Doubly Occupied:

       1A    -15.577492     2A    -11.282748     3A    -11.277658
       4A    -11.237974     5A    -11.237273     6A    -11.236569
       7A    -11.235148     8A    -11.234535     9A    -11.232794
      10A    -11.230219    11A    -11.229103    12A    -11.228704
      13A    -11.226170    14A    -11.224545    15A     -1.258384
      16A     -1.152024    17A     -1.128352    18A     -1.040123
      19A     -1.016074    20A     -1.010823    21A     -0.988983
      22A     -0.918948    23A     -0.842905    24A     -0.829508
      25A     -0.816721    26A     -0.785081    27A     -0.713362
      28A     -0.704149    29A     -0.668606    30A     -0.640244
      31A     -0.635341    32A     -0.619162    33A     -0.597641
      34A     -0.587288    35A     -0.585349    36A     -0.582510
      37A     -0.566329    38A     -0.545078    39A     -0.530883
      40A     -0.513413    41A     -0.500844    42A     -0.494780
      43A     -0.489902    44A     -0.485960    45A     -0.441542
      46A     -0.340456    47A     -0.335850    48A     -0.330872
      49A     -0.275819

  @DF-RHF Final Energy:  -554.48881323162607

   => Energetics <=

    Nuclear Repulsion Energy =            787.1233519797527833
    One-Electron Energy =               -2311.8958584647521093
    Two-Electron Energy =                 970.2836932533731442
    Total Energy =                       -554.4888132316260680
  Basis Set: (AUG-CC-PVTZ AUX)
    Blend: AUG-CC-PVTZ-RI
    Molecular point group: c1

    Geometry (in Angstrom), charge = 0, multiplicity = 1:

       Center              X                  Y                   Z               Mass
    ------------   -----------------  -----------------  -----------------  -----------------
         N            0.513591793219     1.178881141990     0.291716511056    14.003074004430
         C           -0.782955206781     0.657430141990     0.151204511056    12.000000000000
         C            1.696661793219     0.444223141990     0.083366511056    12.000000000000
         C           -3.438648206781    -0.310580858010    -0.024604488944    12.000000000000
         C           -1.152773206781    -0.532503858010     0.798462511056    12.000000000000
         C           -1.755467206781     1.362442141990    -0.570858488944    12.000000000000
         C           -2.457633206781    -1.007800858010     0.694359511056    12.000000000000
         C           -3.065038206781     0.888710141990    -0.641661488944    12.000000000000
         C            2.916609793219     1.053987141990     0.418194511056    12.000000000000
         C            1.705612793219    -0.859898858010    -0.434054488944    12.000000000000
         C           -4.858853206781    -0.809695858010    -0.083826488944    12.000000000000
         C            4.120719793219     0.382419141990     0.222032511056    12.000000000000
         C            2.917169793219    -1.530313858010    -0.608417488944    12.000000000000
         C            4.129451793219    -0.920771858010    -0.281730488944    12.000000000000
         H            0.593834793219     2.161848141990     0.052628511056     1.007825032230
         H           -0.418981206781    -1.067166858010     1.396118511056     1.007825032230
         H           -1.480226206781     2.281984141990    -1.085833488944     1.007825032230
         H           -2.722836206781    -1.936052858010     1.198874511056     1.007825032230
         H           -3.803387206781     1.453813141990    -1.208795488944     1.007825032230
         H            2.909708793219     2.059137141990     0.836675511056     1.007825032230
         H            0.774583793219    -1.334325858010    -0.728566488944     1.007825032230
         H           -5.368591206781    -0.438459858010    -0.977571488944     1.007825032230
         H           -4.891525206781    -1.902938858010    -0.105808488944     1.007825032230
         H           -5.460554106781    -0.464171858010     0.827885611056     1.007825032230
         H            5.054921793219     0.874326141990     0.483378511056     1.007825032230
         H            2.908475793219    -2.539584858010    -1.014283488944     1.007825032230
         H            5.067921793219    -1.450106858010    -0.423371488944     1.007825032230

  Basis Set: AUG-CC-PVTZ
    Blend: AUG-CC-PVTZ
  Basis Set: (AUG-CC-PVTZ AUX)
    Blend: AUG-CC-PVTZ-JKFIT
	 Reference Energy          =    -554.4888132316260680 [Eh]
	 Singles Energy            =      -0.0000000000000000 [Eh]
	 Same-Spin Energy          =      -0.6239081282668074 [Eh]
	 Opposite-Spin Energy      =      -1.9529712883210570 [Eh]
	 Correlation Energy        =      -2.5768794165878646 [Eh]
	 Total Energy              =    -557.0656926482139397 [Eh]

	 ================> DF-SCS-MP2 Energies <==================
	-----------------------------------------------------------
	 SCS Same-Spin Scale       =       0.3333333333333333 [-]
	 SCS Opposite-Spin Scale   =       1.2000000000000000 [-]
	 SCS Same-Spin Energy      =      -0.2079693760889358 [Eh]
	 SCS Opposite-Spin Energy  =      -2.3435655459852685 [Eh]
	 SCS Correlation Energy    =      -2.5515349220742043 [Eh]
	 SCS Total Energy          =    -557.0403481537002790 [Eh]
	-----------------------------------------------------------

  Dipole Moment: [D]
     X:    -0.5992      Y:     0.5781      Z:    -0.3571     Total:     0.9059

*** Psi4 exiting successfully. Buy a developer a beer!
