                               Psi4 1.4a3.dev225

  ==> Input File <==

--------------------------------------------------------------------------
#psi4
#
memory 32 gb

molecule  {
0 1
  N        0.5479400     1.1907050     0.2959170
  C       -0.7486070     0.6692540     0.1554050
  C        1.7310100     0.4560470     0.0875670
  C       -3.4043000    -0.2987570    -0.0204040
  C       -1.1184250    -0.5206800     0.8026630
  C       -1.7211190     1.3742660    -0.5666580
  C       -2.4232850    -0.9959770     0.6985600
  C       -3.0306900     0.9005340    -0.6374610
  C        2.9509580     1.0658110     0.4223950
  C        1.7399610    -0.8480750    -0.4298540
  C       -4.8245050    -0.7978720    -0.0796260
  C        4.1550680     0.3942430     0.2262330
  C        2.9515180    -1.5184900    -0.6042170
  C        4.1638000    -0.9089480    -0.2775300
  H        0.6281830     2.1736720     0.0568290
  H       -0.3846330    -1.0553430     1.4003190
  H       -1.4458780     2.2938080    -1.0816330
  H       -2.6884880    -1.9242290     1.2030750
  H       -3.7690390     1.4656370    -1.2045950
  H        2.9440570     2.0709610     0.8408760
  H        0.8089320    -1.3225020    -0.7243660
  H       -5.3342430    -0.4266360    -0.9733710
  H       -4.8571770    -1.8911150    -0.1016080
  H       -5.3999470    -0.4674270     0.7922980
  H        5.0892700     0.8861500     0.4875790
  H        2.9428240    -2.5277610    -1.0100830
  H        4.9295556    -1.3408651    -0.3931036
units angstrom
no_reorient  #important for SAPT in psi4, default
symmetry c1  #important for SAPT in psi4, default
}

set PROPERTIES_ORIGIN ["COM"]
properties('MP2/aug-cc-pvtz', properties = ['dipole'])
--------------------------------------------------------------------------

    Molecular point group: c1
  Charge       = 0
  Multiplicity = 1
  Basis Set: AUG-CC-PVTZ
    Blend: AUG-CC-PVTZ
  Basis Set: (AUG-CC-PVTZ AUX)
    Blend: AUG-CC-PVTZ-JKFIT

    Orbital Energies [Eh]
    ---------------------

    Doubly Occupied:

       1A    -15.577019     2A    -11.282219     3A    -11.277134
       4A    -11.236523     5A    -11.236023     6A    -11.235849
       7A    -11.234651     8A    -11.234037     9A    -11.232390
      10A    -11.229810    11A    -11.227489    12A    -11.224951
      13A    -11.223021    14A    -11.200230    15A     -1.257859
      16A     -1.151981    17A     -1.129417    18A     -1.042492
      19A     -1.015681    20A     -1.009879    21A     -0.996853
      22A     -0.923051    23A     -0.845426    24A     -0.834318
      25A     -0.821149    26A     -0.787044    27A     -0.717556
      28A     -0.704612    29A     -0.691448    30A     -0.641771
      31A     -0.635540    32A     -0.618484    33A     -0.600420
      34A     -0.587782    35A     -0.584668    36A     -0.581932
      37A     -0.573238    38A     -0.545539    39A     -0.530462
      40A     -0.525986    41A     -0.502276    42A     -0.494365
      43A     -0.489037    44A     -0.485733    45A     -0.441367
      46A     -0.339855    47A     -0.334951    48A     -0.330595
      49A     -0.275466

  @DF-RHF Final Energy:  -554.45604553825012

   => Energetics <=

    Nuclear Repulsion Energy =            788.5323392658469857
    One-Electron Energy =               -2314.5776061414039759
    Two-Electron Energy =                 971.5892213373068671
    Total Energy =                       -554.4560455382501232
  Basis Set: (AUG-CC-PVTZ AUX)
    Blend: AUG-CC-PVTZ-RI
    Molecular point group: c1

    Geometry (in Angstrom), charge = 0, multiplicity = 1:

       Center              X                  Y                   Z               Mass
    ------------   -----------------  -----------------  -----------------  -----------------
         N            0.514397897261     1.178427941392     0.291792031004    14.003074004430
         C           -0.782149102739     0.656976941392     0.151280031004    12.000000000000
         C            1.697467897261     0.443769941392     0.083442031004    12.000000000000
         C           -3.437842102739    -0.311034058608    -0.024528968996    12.000000000000
         C           -1.151967102739    -0.532957058608     0.798538031004    12.000000000000
         C           -1.754661102739     1.361988941392    -0.570782968996    12.000000000000
         C           -2.456827102739    -1.008254058608     0.694435031004    12.000000000000
         C           -3.064232102739     0.888256941392    -0.641585968996    12.000000000000
         C            2.917415897261     1.053533941392     0.418270031004    12.000000000000
         C            1.706418897261    -0.860352058608    -0.433978968996    12.000000000000
         C           -4.858047102739    -0.810149058608    -0.083750968996    12.000000000000
         C            4.121525897261     0.381965941392     0.222108031004    12.000000000000
         C            2.917975897261    -1.530767058608    -0.608341968996    12.000000000000
         C            4.130257897261    -0.921225058608    -0.281654968996    12.000000000000
         H            0.594640897261     2.161394941392     0.052704031004     1.007825032230
         H           -0.418175102739    -1.067620058608     1.396194031004     1.007825032230
         H           -1.479420102739     2.281530941392    -1.085757968996     1.007825032230
         H           -2.722030102739    -1.936506058608     1.198950031004     1.007825032230
         H           -3.802581102739     1.453359941392    -1.208719968996     1.007825032230
         H            2.910514897261     2.058683941392     0.836751031004     1.007825032230
         H            0.775389897261    -1.334779058608    -0.728490968996     1.007825032230
         H           -5.367785102739    -0.438913058608    -0.977495968996     1.007825032230
         H           -4.890719102739    -1.903392058608    -0.105732968996     1.007825032230
         H           -5.433489102739    -0.479704058608     0.788173031004     1.007825032230
         H            5.055727897261     0.873872941392     0.483454031004     1.007825032230
         H            2.909281897261    -2.540038058608    -1.014207968996     1.007825032230
         H            4.896013497261    -1.353142158608    -0.397228568996     1.007825032230

  Basis Set: AUG-CC-PVTZ
    Blend: AUG-CC-PVTZ
  Basis Set: (AUG-CC-PVTZ AUX)
    Blend: AUG-CC-PVTZ-JKFIT
	 Reference Energy          =    -554.4560455382501232 [Eh]
	 Singles Energy            =      -0.0000000000000000 [Eh]
	 Same-Spin Energy          =      -0.6237747671323418 [Eh]
	 Opposite-Spin Energy      =      -1.9521983491249515 [Eh]
	 Correlation Energy        =      -2.5759731162572934 [Eh]
	 Total Energy              =    -557.0320186545073966 [Eh]

	 ================> DF-SCS-MP2 Energies <==================
	-----------------------------------------------------------
	 SCS Same-Spin Scale       =       0.3333333333333333 [-]
	 SCS Opposite-Spin Scale   =       1.2000000000000000 [-]
	 SCS Same-Spin Energy      =      -0.2079249223774473 [Eh]
	 SCS Opposite-Spin Energy  =      -2.3426380189499416 [Eh]
	 SCS Correlation Energy    =      -2.5505629413273887 [Eh]
	 SCS Total Energy          =    -557.0066084795774941 [Eh]
	-----------------------------------------------------------

  Dipole Moment: [D]
     X:    -0.5860      Y:     0.5548      Z:    -0.3472     Total:     0.8785

*** Psi4 exiting successfully. Buy a developer a beer!
