                               Psi4 1.4a3.dev225

  ==> Input File <==

--------------------------------------------------------------------------
#psi4
#
memory 32 gb

molecule  {
0 1
  N        0.5479400     1.1907050     0.2959170
  C       -0.7486070     0.6692540     0.1554050
  C        1.7310100     0.4560470     0.0875670
  C       -3.4043000    -0.2987570    -0.0204040
  C       -1.1236925    -0.5376288     0.8118822
  C       -1.7211190     1.3742660    -0.5666580
  C       -2.4232850    -0.9959770     0.6985600
  C       -3.0306900     0.9005340    -0.6374610
  C        2.9509580     1.0658110     0.4223950
  C        1.7399610    -0.8480750    -0.4298540
  C       -4.8245050    -0.7978720    -0.0796260
  C        4.1550680     0.3942430     0.2262330
  C        2.9515180    -1.5184900    -0.6042170
  C        4.1638000    -0.9089480    -0.2775300
  H        0.6281830     2.1736720     0.0568290
  H       -0.3846330    -1.0553430     1.4003190
  H       -1.4458780     2.2938080    -1.0816330
  H       -2.6884880    -1.9242290     1.2030750
  H       -3.7690390     1.4656370    -1.2045950
  H        2.9440570     2.0709610     0.8408760
  H        0.8089320    -1.3225020    -0.7243660
  H       -5.3342430    -0.4266360    -0.9733710
  H       -4.8571770    -1.8911150    -0.1016080
  H       -5.3999470    -0.4674270     0.7922980
  H        5.0892700     0.8861500     0.4875790
  H        2.9428240    -2.5277610    -1.0100830
  H        5.1022700    -1.4382830    -0.4191710
units angstrom
no_reorient  #important for SAPT in psi4, default
symmetry c1  #important for SAPT in psi4, default
}

set PROPERTIES_ORIGIN ["COM"]
properties('MP2/aug-cc-pvtz', properties = ['dipole'])
--------------------------------------------------------------------------

    Molecular point group: c1
  Charge       = 0
  Multiplicity = 1
  Basis Set: AUG-CC-PVTZ
    Blend: AUG-CC-PVTZ
  Basis Set: (AUG-CC-PVTZ AUX)
    Blend: AUG-CC-PVTZ-JKFIT

    Orbital Energies [Eh]
    ---------------------

    Doubly Occupied:

       1A    -15.577888     2A    -11.282850     3A    -11.279550
       4A    -11.238098     5A    -11.237395     6A    -11.235885
       7A    -11.234575     8A    -11.233489     9A    -11.232030
      10A    -11.230473    11A    -11.228856    12A    -11.226319
      13A    -11.224694    14A    -11.223007    15A     -1.258017
      16A     -1.151375    17A     -1.128451    18A     -1.039493
      19A     -1.016863    20A     -1.011241    21A     -0.989579
      22A     -0.920420    23A     -0.842102    24A     -0.830047
      25A     -0.816479    26A     -0.785945    27A     -0.713302
      28A     -0.703743    29A     -0.668834    30A     -0.642359
      31A     -0.634793    32A     -0.619005    33A     -0.597780
      34A     -0.587231    35A     -0.585283    36A     -0.583138
      37A     -0.573073    38A     -0.545084    39A     -0.530311
      40A     -0.513849    41A     -0.501817    42A     -0.494181
      43A     -0.490564    44A     -0.484704    45A     -0.442040
      46A     -0.341295    47A     -0.336202    48A     -0.330309
      49A     -0.274871

  @DF-RHF Final Energy:  -554.49025110124762

   => Energetics <=

    Nuclear Repulsion Energy =            787.0678781821319490
    One-Electron Energy =               -2311.7784815181767044
    Two-Electron Energy =                 970.2203522347970193
    Total Energy =                       -554.4902511012476225
  Basis Set: (AUG-CC-PVTZ AUX)
    Blend: AUG-CC-PVTZ-RI
    Molecular point group: c1

    Geometry (in Angstrom), charge = 0, multiplicity = 1:

       Center              X                  Y                   Z               Mass
    ------------   -----------------  -----------------  -----------------  -----------------
         N            0.513792474050     1.180074898759     0.291331316582    14.003074004430
         C           -0.782754525950     0.658623898759     0.150819316582    12.000000000000
         C            1.696862474050     0.445416898759     0.082981316582    12.000000000000
         C           -3.438447525950    -0.309387101241    -0.024989683418    12.000000000000
         C           -1.157840025950    -0.548258901241     0.807296516582    12.000000000000
         C           -1.755266525950     1.363635898759    -0.571243683418    12.000000000000
         C           -2.457432525950    -1.006607101241     0.693974316582    12.000000000000
         C           -3.064837525950     0.889903898759    -0.642046683418    12.000000000000
         C            2.916810474050     1.055180898759     0.417809316582    12.000000000000
         C            1.705813474050    -0.858705101241    -0.434439683418    12.000000000000
         C           -4.858652525950    -0.808502101241    -0.084211683418    12.000000000000
         C            4.120920474050     0.383612898759     0.221647316582    12.000000000000
         C            2.917370474050    -1.529120101241    -0.608802683418    12.000000000000
         C            4.129652474050    -0.919578101241    -0.282115683418    12.000000000000
         H            0.594035474050     2.163041898759     0.052243316582     1.007825032230
         H           -0.418780525950    -1.065973101241     1.395733316582     1.007825032230
         H           -1.480025525950     2.283177898759    -1.086218683418     1.007825032230
         H           -2.722635525950    -1.934859101241     1.198489316582     1.007825032230
         H           -3.803186525950     1.455006898759    -1.209180683418     1.007825032230
         H            2.909909474050     2.060330898759     0.836290316582     1.007825032230
         H            0.774784474050    -1.333132101241    -0.728951683418     1.007825032230
         H           -5.368390525950    -0.437266101241    -0.977956683418     1.007825032230
         H           -4.891324525950    -1.901745101241    -0.106193683418     1.007825032230
         H           -5.434094525950    -0.478057101241     0.787712316582     1.007825032230
         H            5.055122474050     0.875519898759     0.482993316582     1.007825032230
         H            2.908676474050    -2.538391101241    -1.014668683418     1.007825032230
         H            5.068122474050    -1.448913101241    -0.423756683418     1.007825032230

  Basis Set: AUG-CC-PVTZ
    Blend: AUG-CC-PVTZ
  Basis Set: (AUG-CC-PVTZ AUX)
    Blend: AUG-CC-PVTZ-JKFIT
	 Reference Energy          =    -554.4902511012476225 [Eh]
	 Singles Energy            =      -0.0000000000000000 [Eh]
	 Same-Spin Energy          =      -0.6238861140506644 [Eh]
	 Opposite-Spin Energy      =      -1.9527304309991416 [Eh]
	 Correlation Energy        =      -2.5766165450498058 [Eh]
	 Total Energy              =    -557.0668676462973963 [Eh]

	 ================> DF-SCS-MP2 Energies <==================
	-----------------------------------------------------------
	 SCS Same-Spin Scale       =       0.3333333333333333 [-]
	 SCS Opposite-Spin Scale   =       1.2000000000000000 [-]
	 SCS Same-Spin Energy      =      -0.2079620380168881 [Eh]
	 SCS Opposite-Spin Energy  =      -2.3432765171989698 [Eh]
	 SCS Correlation Energy    =      -2.5512385552158579 [Eh]
	 SCS Total Energy          =    -557.0414896564634546 [Eh]
	-----------------------------------------------------------

  Dipole Moment: [D]
     X:    -0.5994      Y:     0.5822      Z:    -0.3389     Total:     0.9017

*** Psi4 exiting successfully. Buy a developer a beer!
