                               Psi4 1.4a3.dev225

  ==> Input File <==

--------------------------------------------------------------------------
#psi4
#
memory 32 gb

molecule  {
0 1
  N        0.5479400     1.1907050     0.2959170
  C       -0.7486070     0.6692540     0.1554050
  C        1.6469920     0.5082202     0.1023634
  C       -3.4043000    -0.2987570    -0.0204040
  C       -1.1184250    -0.5206800     0.8026630
  C       -1.7211190     1.3742660    -0.5666580
  C       -2.4232850    -0.9959770     0.6985600
  C       -3.0306900     0.9005340    -0.6374610
  C        2.9509580     1.0658110     0.4223950
  C        1.7399610    -0.8480750    -0.4298540
  C       -4.8245050    -0.7978720    -0.0796260
  C        4.1550680     0.3942430     0.2262330
  C        2.9515180    -1.5184900    -0.6042170
  C        4.1638000    -0.9089480    -0.2775300
  H        0.6281830     2.1736720     0.0568290
  H       -0.3846330    -1.0553430     1.4003190
  H       -1.4458780     2.2938080    -1.0816330
  H       -2.6884880    -1.9242290     1.2030750
  H       -3.7690390     1.4656370    -1.2045950
  H        2.9440570     2.0709610     0.8408760
  H        0.8089320    -1.3225020    -0.7243660
  H       -5.3342430    -0.4266360    -0.9733710
  H       -4.8571770    -1.8911150    -0.1016080
  H       -5.3999470    -0.4674270     0.7922980
  H        5.0892700     0.8861500     0.4875790
  H        2.9428240    -2.5277610    -1.0100830
  H        5.1022700    -1.4382830    -0.4191710
units angstrom
no_reorient  #important for SAPT in psi4, default
symmetry c1  #important for SAPT in psi4, default
}

set PROPERTIES_ORIGIN ["COM"]
properties('MP2/aug-cc-pvtz', properties = ['dipole'])
--------------------------------------------------------------------------

    Molecular point group: c1
  Charge       = 0
  Multiplicity = 1
  Basis Set: AUG-CC-PVTZ
    Blend: AUG-CC-PVTZ
  Basis Set: (AUG-CC-PVTZ AUX)
    Blend: AUG-CC-PVTZ-JKFIT

    Orbital Energies [Eh]
    ---------------------

    Doubly Occupied:

       1A    -15.587888     2A    -11.288453     3A    -11.283320
       4A    -11.241661     5A    -11.239860     6A    -11.238730
       7A    -11.238546     8A    -11.235976     9A    -11.233880
      10A    -11.233148    11A    -11.226658    12A    -11.226171
      13A    -11.224761    14A    -11.216453    15A     -1.292327
      16A     -1.154348    17A     -1.121030    18A     -1.048348
      19A     -1.019695    20A     -1.001761    21A     -0.981852
      22A     -0.927730    23A     -0.848774    24A     -0.832048
      25A     -0.815003    26A     -0.785999    27A     -0.721002
      28A     -0.715620    29A     -0.670748    30A     -0.645489
      31A     -0.641485    32A     -0.616067    33A     -0.597228
      34A     -0.593291    35A     -0.588837    36A     -0.576906
      37A     -0.571094    38A     -0.551824    39A     -0.536196
      40A     -0.513844    41A     -0.503908    42A     -0.493313
      43A     -0.491980    44A     -0.472890    45A     -0.444886
      46A     -0.343540    47A     -0.331491    48A     -0.329749
      49A     -0.268164

  @DF-RHF Final Energy:  -554.47595062638675

   => Energetics <=

    Nuclear Repulsion Energy =            787.5933147742881602
    One-Electron Energy =               -2312.6105805367751600
    Two-Electron Energy =                 970.5413151361003656
    Total Energy =                       -554.4759506263867479
  Basis Set: (AUG-CC-PVTZ AUX)
    Blend: AUG-CC-PVTZ-RI
    Molecular point group: c1

    Geometry (in Angstrom), charge = 0, multiplicity = 1:

       Center              X                  Y                   Z               Mass
    ------------   -----------------  -----------------  -----------------  -----------------
         N            0.518953485683     1.175544902808     0.290965807867    14.003074004430
         C           -0.777593514317     0.654093902808     0.150453807867    12.000000000000
         C            1.618005485683     0.493060102808     0.097412207867    12.000000000000
         C           -3.433286514317    -0.313917097192    -0.025355192133    12.000000000000
         C           -1.147411514317    -0.535840097192     0.797711807867    12.000000000000
         C           -1.750105514317     1.359105902808    -0.571609192133    12.000000000000
         C           -2.452271514317    -1.011137097192     0.693608807867    12.000000000000
         C           -3.059676514317     0.885373902808    -0.642412192133    12.000000000000
         C            2.921971485683     1.050650902808     0.417443807867    12.000000000000
         C            1.710974485683    -0.863235097192    -0.434805192133    12.000000000000
         C           -4.853491514317    -0.813032097192    -0.084577192133    12.000000000000
         C            4.126081485683     0.379082902808     0.221281807867    12.000000000000
         C            2.922531485683    -1.533650097192    -0.609168192133    12.000000000000
         C            4.134813485683    -0.924108097192    -0.282481192133    12.000000000000
         H            0.599196485683     2.158511902808     0.051877807867     1.007825032230
         H           -0.413619514317    -1.070503097192     1.395367807867     1.007825032230
         H           -1.474864514317     2.278647902808    -1.086584192133     1.007825032230
         H           -2.717474514317    -1.939389097192     1.198123807867     1.007825032230
         H           -3.798025514317     1.450476902808    -1.209546192133     1.007825032230
         H            2.915070485683     2.055800902808     0.835924807867     1.007825032230
         H            0.779945485683    -1.337662097192    -0.729317192133     1.007825032230
         H           -5.363229514317    -0.441796097192    -0.978322192133     1.007825032230
         H           -4.886163514317    -1.906275097192    -0.106559192133     1.007825032230
         H           -5.428933514317    -0.482587097192     0.787346807867     1.007825032230
         H            5.060283485683     0.870989902808     0.482627807867     1.007825032230
         H            2.913837485683    -2.542921097192    -1.015034192133     1.007825032230
         H            5.073283485683    -1.453443097192    -0.424122192133     1.007825032230

  Basis Set: AUG-CC-PVTZ
    Blend: AUG-CC-PVTZ
  Basis Set: (AUG-CC-PVTZ AUX)
    Blend: AUG-CC-PVTZ-JKFIT
	 Reference Energy          =    -554.4759506263867479 [Eh]
	 Singles Energy            =      -0.0000000000000000 [Eh]
	 Same-Spin Energy          =      -0.6249564545734827 [Eh]
	 Opposite-Spin Energy      =      -1.9541283500153623 [Eh]
	 Correlation Energy        =      -2.5790848045888453 [Eh]
	 Total Energy              =    -557.0550354309756358 [Eh]

	 ================> DF-SCS-MP2 Energies <==================
	-----------------------------------------------------------
	 SCS Same-Spin Scale       =       0.3333333333333333 [-]
	 SCS Opposite-Spin Scale   =       1.2000000000000000 [-]
	 SCS Same-Spin Energy      =      -0.2083188181911609 [Eh]
	 SCS Opposite-Spin Energy  =      -2.3449540200184349 [Eh]
	 SCS Correlation Energy    =      -2.5532728382095957 [Eh]
	 SCS Total Energy          =    -557.0292234645963845 [Eh]
	-----------------------------------------------------------

  Dipole Moment: [D]
     X:    -1.5394      Y:     0.8169      Z:    -0.2468     Total:     1.7600

*** Psi4 exiting successfully. Buy a developer a beer!
