                               Psi4 1.4a3.dev225

  ==> Input File <==

--------------------------------------------------------------------------
#psi4
#
memory 32 gb

molecule  {
0 1
  N        0.5479400     1.1907050     0.2959170
  C       -0.7486070     0.6692540     0.1554050
  C        1.7310100     0.4560470     0.0875670
  C       -3.4043000    -0.2987570    -0.0204040
  C       -1.1184250    -0.5206800     0.8026630
  C       -1.7211190     1.3742660    -0.5666580
  C       -2.4232850    -0.9959770     0.6985600
  C       -3.0306900     0.9005340    -0.6374610
  C        2.9509580     1.0658110     0.4223950
  C        1.7399610    -0.8480750    -0.4298540
  C       -4.8245050    -0.7978720    -0.0796260
  C        4.1550680     0.3942430     0.2262330
  C        2.9515180    -1.5184900    -0.6042170
  C        4.1638000    -0.9089480    -0.2775300
  H        0.6281830     2.1736720     0.0568290
  H       -0.3846330    -1.0553430     1.4003190
  H       -1.4458780     2.2938080    -1.0816330
  H       -2.6884880    -1.9242290     1.2030750
  H       -3.7690390     1.4656370    -1.2045950
  H        2.9440570     2.0709610     0.8408760
  H        0.8089320    -1.3225020    -0.7243660
  H       -5.3342430    -0.4266360    -0.9733710
  H       -4.8571770    -1.8911150    -0.1016080
  H       -5.3999470    -0.4674270     0.7922980
  H        5.0892700     0.8861500     0.4875790
  H        2.9428240    -2.5277610    -1.0100830
  H        5.1454486    -1.4626375    -0.4256878
units angstrom
no_reorient  #important for SAPT in psi4, default
symmetry c1  #important for SAPT in psi4, default
}

set PROPERTIES_ORIGIN ["COM"]
properties('MP2/aug-cc-pvtz', properties = ['dipole'])
--------------------------------------------------------------------------

    Molecular point group: c1
  Charge       = 0
  Multiplicity = 1
  Basis Set: AUG-CC-PVTZ
    Blend: AUG-CC-PVTZ
  Basis Set: (AUG-CC-PVTZ AUX)
    Blend: AUG-CC-PVTZ-JKFIT

    Orbital Energies [Eh]
    ---------------------

    Doubly Occupied:

       1A    -15.577461     2A    -11.282847     3A    -11.277495
       4A    -11.238421     5A    -11.237709     6A    -11.236321
       7A    -11.234953     8A    -11.234342     9A    -11.232713
      10A    -11.230232    11A    -11.230154    12A    -11.228969
      13A    -11.226426    14A    -11.223237    15A     -1.258375
      16A     -1.152008    17A     -1.128272    18A     -1.040593
      19A     -1.016055    20A     -1.011013    21A     -0.988474
      22A     -0.921219    23A     -0.842684    24A     -0.829361
      25A     -0.815790    26A     -0.784976    27A     -0.712992
      28A     -0.704076    29A     -0.663679    30A     -0.639857
      31A     -0.634920    32A     -0.619315    33A     -0.596695
      34A     -0.587758    35A     -0.585397    36A     -0.582464
      37A     -0.573389    38A     -0.545654    39A     -0.530756
      40A     -0.509910    41A     -0.500155    42A     -0.494972
      43A     -0.489910    44A     -0.486028    45A     -0.442100
      46A     -0.340475    47A     -0.335987    48A     -0.331145
      49A     -0.275941

  @DF-RHF Final Energy:  -554.48840206318596

   => Energetics <=

    Nuclear Repulsion Energy =            787.0840943003826169
    One-Electron Energy =               -2311.8176398545165284
    Two-Electron Energy =                 970.2451434909478394
    Total Energy =                       -554.4884020631859585
  Basis Set: (AUG-CC-PVTZ AUX)
    Blend: AUG-CC-PVTZ-RI
    Molecular point group: c1

    Geometry (in Angstrom), charge = 0, multiplicity = 1:

       Center              X                  Y                   Z               Mass
    ------------   -----------------  -----------------  -----------------  -----------------
         N            0.513209603069     1.179098187467     0.291971377326    14.003074004430
         C           -0.783337396931     0.657647187467     0.151459377326    12.000000000000
         C            1.696279603069     0.444440187467     0.083621377326    12.000000000000
         C           -3.439030396931    -0.310363812533    -0.024349622674    12.000000000000
         C           -1.153155396931    -0.532286812533     0.798717377326    12.000000000000
         C           -1.755849396931     1.362659187467    -0.570603622674    12.000000000000
         C           -2.458015396931    -1.007583812533     0.694614377326    12.000000000000
         C           -3.065420396931     0.888927187467    -0.641406622674    12.000000000000
         C            2.916227603069     1.054204187467     0.418449377326    12.000000000000
         C            1.705230603069    -0.859681812533    -0.433799622674    12.000000000000
         C           -4.859235396931    -0.809478812533    -0.083571622674    12.000000000000
         C            4.120337603069     0.382636187467     0.222287377326    12.000000000000
         C            2.916787603069    -1.530096812533    -0.608162622674    12.000000000000
         C            4.129069603069    -0.920554812533    -0.281475622674    12.000000000000
         H            0.593452603069     2.162065187467     0.052883377326     1.007825032230
         H           -0.419363396931    -1.066949812533     1.396373377326     1.007825032230
         H           -1.480608396931     2.282201187467    -1.085578622674     1.007825032230
         H           -2.723218396931    -1.935835812533     1.199129377326     1.007825032230
         H           -3.803769396931     1.454030187467    -1.208540622674     1.007825032230
         H            2.909326603069     2.059354187467     0.836930377326     1.007825032230
         H            0.774201603069    -1.334108812533    -0.728311622674     1.007825032230
         H           -5.368973396931    -0.438242812533    -0.977316622674     1.007825032230
         H           -4.891907396931    -1.902721812533    -0.105553622674     1.007825032230
         H           -5.434677396931    -0.479033812533     0.788352377326     1.007825032230
         H            5.054539603069     0.874543187467     0.483633377326     1.007825032230
         H            2.908093603069    -2.539367812533    -1.014028622674     1.007825032230
         H            5.110718203069    -1.474244312533    -0.429633422674     1.007825032230

  Basis Set: AUG-CC-PVTZ
    Blend: AUG-CC-PVTZ
  Basis Set: (AUG-CC-PVTZ AUX)
    Blend: AUG-CC-PVTZ-JKFIT
	 Reference Energy          =    -554.4884020631859585 [Eh]
	 Singles Energy            =      -0.0000000000000000 [Eh]
	 Same-Spin Energy          =      -0.6240082409723252 [Eh]
	 Opposite-Spin Energy      =      -1.9530693660596632 [Eh]
	 Correlation Energy        =      -2.5770776070319883 [Eh]
	 Total Energy              =    -557.0654796702179965 [Eh]

	 ================> DF-SCS-MP2 Energies <==================
	-----------------------------------------------------------
	 SCS Same-Spin Scale       =       0.3333333333333333 [-]
	 SCS Opposite-Spin Scale   =       1.2000000000000000 [-]
	 SCS Same-Spin Energy      =      -0.2080027469907751 [Eh]
	 SCS Opposite-Spin Energy  =      -2.3436832392715958 [Eh]
	 SCS Correlation Energy    =      -2.5516859862623709 [Eh]
	 SCS Total Energy          =    -557.0400880494482863 [Eh]
	-----------------------------------------------------------

  Dipole Moment: [D]
     X:    -0.6574      Y:     0.5891      Z:    -0.3379     Total:     0.9452

*** Psi4 exiting successfully. Buy a developer a beer!
