                               Psi4 1.4a3.dev225

  ==> Input File <==

--------------------------------------------------------------------------
#psi4
#
memory 32 gb

molecule  {
0 1
  N        0.5479400     1.1907050     0.2959170
  C       -0.7486070     0.6692540     0.1554050
  C        1.7310100     0.4560470     0.0875670
  C       -3.4043000    -0.2987570    -0.0204040
  C       -1.1184250    -0.5206800     0.8026630
  C       -1.7211190     1.3742660    -0.5666580
  C       -2.4232850    -0.9959770     0.6985600
  C       -3.0306900     0.9005340    -0.6374610
  C        2.9509580     1.0658110     0.4223950
  C        1.7399610    -0.8480750    -0.4298540
  C       -4.8245050    -0.7978720    -0.0796260
  C        4.1550680     0.3942430     0.2262330
  C        2.9515180    -1.5184900    -0.6042170
  C        4.1638000    -0.9089480    -0.2775300
  H        0.6281830     2.1736720     0.0568290
  H       -0.5196488    -0.9569664     1.2903519
  H       -1.4458780     2.2938080    -1.0816330
  H       -2.6884880    -1.9242290     1.2030750
  H       -3.7690390     1.4656370    -1.2045950
  H        2.9440570     2.0709610     0.8408760
  H        0.8089320    -1.3225020    -0.7243660
  H       -5.3342430    -0.4266360    -0.9733710
  H       -4.8571770    -1.8911150    -0.1016080
  H       -5.3999470    -0.4674270     0.7922980
  H        5.0892700     0.8861500     0.4875790
  H        2.9428240    -2.5277610    -1.0100830
  H        5.1022700    -1.4382830    -0.4191710
units angstrom
no_reorient  #important for SAPT in psi4, default
symmetry c1  #important for SAPT in psi4, default
}

set PROPERTIES_ORIGIN ["COM"]
properties('MP2/aug-cc-pvtz', properties = ['dipole'])
--------------------------------------------------------------------------

    Molecular point group: c1
  Charge       = 0
  Multiplicity = 1
  Basis Set: AUG-CC-PVTZ
    Blend: AUG-CC-PVTZ
  Basis Set: (AUG-CC-PVTZ AUX)
    Blend: AUG-CC-PVTZ-JKFIT

    Orbital Energies [Eh]
    ---------------------

    Doubly Occupied:

       1A    -15.577483     2A    -11.283042     3A    -11.276086
       4A    -11.238270     5A    -11.237636     6A    -11.235408
       7A    -11.234304     8A    -11.233215     9A    -11.231576
      10A    -11.228887    11A    -11.226602    12A    -11.224755
      13A    -11.222601    14A    -11.206641    15A     -1.258654
      16A     -1.152549    17A     -1.128477    18A     -1.042471
      19A     -1.022894    20A     -1.012259    21A     -0.989680
      22A     -0.921519    23A     -0.851632    24A     -0.833908
      25A     -0.817181    26A     -0.792418    27A     -0.716303
      28A     -0.704007    29A     -0.676126    30A     -0.657144
      31A     -0.635041    32A     -0.620535    33A     -0.598783
      34A     -0.592012    35A     -0.587011    36A     -0.583596
      37A     -0.572995    38A     -0.546937    39A     -0.530514
      40A     -0.513754    41A     -0.501934    42A     -0.494644
      43A     -0.492472    44A     -0.488033    45A     -0.441810
      46A     -0.340212    47A     -0.335869    48A     -0.330745
      49A     -0.275700

  @DF-RHF Final Energy:  -554.45644972619152

   => Energetics <=

    Nuclear Repulsion Energy =            788.4233597217432816
    One-Electron Energy =               -2314.3269628153648227
    Two-Electron Energy =                 971.4471533674300190
    Total Energy =                       -554.4564497261915221
  Basis Set: (AUG-CC-PVTZ AUX)
    Blend: AUG-CC-PVTZ-RI
    Molecular point group: c1

    Geometry (in Angstrom), charge = 0, multiplicity = 1:

       Center              X                  Y                   Z               Mass
    ------------   -----------------  -----------------  -----------------  -----------------
         N            0.514190400828     1.178422664623     0.292540776939    14.003074004430
         C           -0.782356599172     0.656971664623     0.152028776939    12.000000000000
         C            1.697260400828     0.443764664623     0.084190776939    12.000000000000
         C           -3.438049599172    -0.311039335377    -0.023780223061    12.000000000000
         C           -1.152174599172    -0.532962335377     0.799286776939    12.000000000000
         C           -1.754868599172     1.361983664623    -0.570034223061    12.000000000000
         C           -2.457034599172    -1.008259335377     0.695183776939    12.000000000000
         C           -3.064439599172     0.888251664623    -0.640837223061    12.000000000000
         C            2.917208400828     1.053528664623     0.419018776939    12.000000000000
         C            1.706211400828    -0.860357335377    -0.433230223061    12.000000000000
         C           -4.858254599172    -0.810154335377    -0.083002223061    12.000000000000
         C            4.121318400828     0.381960664623     0.222856776939    12.000000000000
         C            2.917768400828    -1.530772335377    -0.607593223061    12.000000000000
         C            4.130050400828    -0.921230335377    -0.280906223061    12.000000000000
         H            0.594433400828     2.161389664623     0.053452776939     1.007825032230
         H           -0.553398399172    -0.969248735377     1.286975676939     1.007825032230
         H           -1.479627599172     2.281525664623    -1.085009223061     1.007825032230
         H           -2.722237599172    -1.936511335377     1.199698776939     1.007825032230
         H           -3.802788599172     1.453354664623    -1.207971223061     1.007825032230
         H            2.910307400828     2.058678664623     0.837499776939     1.007825032230
         H            0.775182400828    -1.334784335377    -0.727742223061     1.007825032230
         H           -5.367992599172    -0.438918335377    -0.976747223061     1.007825032230
         H           -4.890926599172    -1.903397335377    -0.104984223061     1.007825032230
         H           -5.433696599172    -0.479709335377     0.788921776939     1.007825032230
         H            5.055520400828     0.873867664623     0.484202776939     1.007825032230
         H            2.909074400828    -2.540043335377    -1.013459223061     1.007825032230
         H            5.068520400828    -1.450565335377    -0.422547223061     1.007825032230

  Basis Set: AUG-CC-PVTZ
    Blend: AUG-CC-PVTZ
  Basis Set: (AUG-CC-PVTZ AUX)
    Blend: AUG-CC-PVTZ-JKFIT
	 Reference Energy          =    -554.4564497261915221 [Eh]
	 Singles Energy            =      -0.0000000000000000 [Eh]
	 Same-Spin Energy          =      -0.6235039119841738 [Eh]
	 Opposite-Spin Energy      =      -1.9519911800712262 [Eh]
	 Correlation Energy        =      -2.5754950920553998 [Eh]
	 Total Energy              =    -557.0319448182468705 [Eh]

	 ================> DF-SCS-MP2 Energies <==================
	-----------------------------------------------------------
	 SCS Same-Spin Scale       =       0.3333333333333333 [-]
	 SCS Opposite-Spin Scale   =       1.2000000000000000 [-]
	 SCS Same-Spin Energy      =      -0.2078346373280579 [Eh]
	 SCS Opposite-Spin Energy  =      -2.3423894160854712 [Eh]
	 SCS Correlation Energy    =      -2.5502240534135292 [Eh]
	 SCS Total Energy          =    -557.0066737796050802 [Eh]
	-----------------------------------------------------------

  Dipole Moment: [D]
     X:    -0.5991      Y:     0.5781      Z:    -0.3361     Total:     0.8978

*** Psi4 exiting successfully. Buy a developer a beer!
