                               Psi4 1.4a3.dev225

  ==> Input File <==

--------------------------------------------------------------------------
#psi4
#
memory 32 gb

molecule  {
0 1
  N        0.5479400     1.1907050     0.2959170
  C       -0.7486070     0.6692540     0.1554050
  C        1.7310100     0.4560470     0.0875670
  C       -3.4205315    -0.3161606    -0.0147174
  C       -1.1184250    -0.5206800     0.8026630
  C       -1.7211190     1.3742660    -0.5666580
  C       -2.4232850    -0.9959770     0.6985600
  C       -3.0306900     0.9005340    -0.6374610
  C        2.9509580     1.0658110     0.4223950
  C        1.7399610    -0.8480750    -0.4298540
  C       -4.8245050    -0.7978720    -0.0796260
  C        4.1550680     0.3942430     0.2262330
  C        2.9515180    -1.5184900    -0.6042170
  C        4.1638000    -0.9089480    -0.2775300
  H        0.6281830     2.1736720     0.0568290
  H       -0.3846330    -1.0553430     1.4003190
  H       -1.4458780     2.2938080    -1.0816330
  H       -2.6884880    -1.9242290     1.2030750
  H       -3.7690390     1.4656370    -1.2045950
  H        2.9440570     2.0709610     0.8408760
  H        0.8089320    -1.3225020    -0.7243660
  H       -5.3342430    -0.4266360    -0.9733710
  H       -4.8571770    -1.8911150    -0.1016080
  H       -5.3999470    -0.4674270     0.7922980
  H        5.0892700     0.8861500     0.4875790
  H        2.9428240    -2.5277610    -1.0100830
  H        5.1022700    -1.4382830    -0.4191710
units angstrom
no_reorient  #important for SAPT in psi4, default
symmetry c1  #important for SAPT in psi4, default
}

set PROPERTIES_ORIGIN ["COM"]
properties('MP2/aug-cc-pvtz', properties = ['dipole'])
--------------------------------------------------------------------------

    Molecular point group: c1
  Charge       = 0
  Multiplicity = 1
  Basis Set: AUG-CC-PVTZ
    Blend: AUG-CC-PVTZ
  Basis Set: (AUG-CC-PVTZ AUX)
    Blend: AUG-CC-PVTZ-JKFIT

    Orbital Energies [Eh]
    ---------------------

    Doubly Occupied:

       1A    -15.577418     2A    -11.282631     3A    -11.277534
       4A    -11.237853     5A    -11.237793     6A    -11.237131
       7A    -11.236748     8A    -11.234253     9A    -11.232942
      10A    -11.229722    11A    -11.228591    12A    -11.225998
      13A    -11.224425    14A    -11.222756    15A     -1.258226
      16A     -1.150852    17A     -1.127632    18A     -1.042759
      19A     -1.015225    20A     -1.010307    21A     -0.990504
      22A     -0.922005    23A     -0.841721    24A     -0.829962
      25A     -0.815638    26A     -0.785056    27A     -0.712963
      28A     -0.703814    29A     -0.668528    30A     -0.641884
      31A     -0.635188    32A     -0.618569    33A     -0.597583
      34A     -0.587872    35A     -0.584406    36A     -0.581655
      37A     -0.575042    38A     -0.545923    39A     -0.530986
      40A     -0.516092    41A     -0.503566    42A     -0.493942
      43A     -0.490344    44A     -0.482578    45A     -0.440905
      46A     -0.340031    47A     -0.335562    48A     -0.330053
      49A     -0.275040

  @DF-RHF Final Energy:  -554.48951834305342

   => Energetics <=

    Nuclear Repulsion Energy =            787.0856893493116786
    One-Electron Energy =               -2311.8139945661559977
    Two-Electron Energy =                 970.2387868737909002
    Total Energy =                       -554.4895183430534189
  Basis Set: (AUG-CC-PVTZ AUX)
    Blend: AUG-CC-PVTZ-RI
    Molecular point group: c1

    Geometry (in Angstrom), charge = 0, multiplicity = 1:

       Center              X                  Y                   Z               Mass
    ------------   -----------------  -----------------  -----------------  -----------------
         N            0.514511013380     1.180104704641     0.291562829902    14.003074004430
         C           -0.782035986620     0.658653704641     0.151050829902    12.000000000000
         C            1.697581013380     0.445446704641     0.083212829902    12.000000000000
         C           -3.453960486620    -0.326760895359    -0.019071570098    12.000000000000
         C           -1.151853986620    -0.531280295359     0.798308829902    12.000000000000
         C           -1.754547986620     1.363665704641    -0.571012170098    12.000000000000
         C           -2.456713986620    -1.006577295359     0.694205829902    12.000000000000
         C           -3.064118986620     0.889933704641    -0.641815170098    12.000000000000
         C            2.917529013380     1.055210704641     0.418040829902    12.000000000000
         C            1.706532013380    -0.858675295359    -0.434208170098    12.000000000000
         C           -4.857933986620    -0.808472295359    -0.083980170098    12.000000000000
         C            4.121639013380     0.383642704641     0.221878829902    12.000000000000
         C            2.918089013380    -1.529090295359    -0.608571170098    12.000000000000
         C            4.130371013380    -0.919548295359    -0.281884170098    12.000000000000
         H            0.594754013380     2.163071704641     0.052474829902     1.007825032230
         H           -0.418061986620    -1.065943295359     1.395964829902     1.007825032230
         H           -1.479306986620     2.283207704641    -1.085987170098     1.007825032230
         H           -2.721916986620    -1.934829295359     1.198720829902     1.007825032230
         H           -3.802467986620     1.455036704641    -1.208949170098     1.007825032230
         H            2.910628013380     2.060360704641     0.836521829902     1.007825032230
         H            0.775503013380    -1.333102295359    -0.728720170098     1.007825032230
         H           -5.367671986620    -0.437236295359    -0.977725170098     1.007825032230
         H           -4.890605986620    -1.901715295359    -0.105962170098     1.007825032230
         H           -5.433375986620    -0.478027295359     0.787943829902     1.007825032230
         H            5.055841013380     0.875549704641     0.483224829902     1.007825032230
         H            2.909395013380    -2.538361295359    -1.014437170098     1.007825032230
         H            5.068841013380    -1.448883295359    -0.423525170098     1.007825032230

  Basis Set: AUG-CC-PVTZ
    Blend: AUG-CC-PVTZ
  Basis Set: (AUG-CC-PVTZ AUX)
    Blend: AUG-CC-PVTZ-JKFIT
	 Reference Energy          =    -554.4895183430534189 [Eh]
	 Singles Energy            =      -0.0000000000000000 [Eh]
	 Same-Spin Energy          =      -0.6241464546505534 [Eh]
	 Opposite-Spin Energy      =      -1.9530166396622601 [Eh]
	 Correlation Energy        =      -2.5771630943128137 [Eh]
	 Total Energy              =    -557.0666814373662419 [Eh]

	 ================> DF-SCS-MP2 Energies <==================
	-----------------------------------------------------------
	 SCS Same-Spin Scale       =       0.3333333333333333 [-]
	 SCS Opposite-Spin Scale   =       1.2000000000000000 [-]
	 SCS Same-Spin Energy      =      -0.2080488182168511 [Eh]
	 SCS Opposite-Spin Energy  =      -2.3436199675947123 [Eh]
	 SCS Correlation Energy    =      -2.5516687858115632 [Eh]
	 SCS Total Energy          =    -557.0411871288649763 [Eh]
	-----------------------------------------------------------

  Dipole Moment: [D]
     X:    -0.6608      Y:     0.5766      Z:    -0.3463     Total:     0.9429

*** Psi4 exiting successfully. Buy a developer a beer!
