                               Psi4 1.4a3.dev225

  ==> Input File <==

--------------------------------------------------------------------------
#psi4
#
memory 32 gb

molecule  {
0 1
  N        0.5479400     1.1907050     0.2959170
  C       -0.7775003     0.7582184     0.1260578
  C        1.7310100     0.4560470     0.0875670
  C       -3.4043000    -0.2987570    -0.0204040
  C       -1.1184250    -0.5206800     0.8026630
  C       -1.7211190     1.3742660    -0.5666580
  C       -2.4232850    -0.9959770     0.6985600
  C       -3.0306900     0.9005340    -0.6374610
  C        2.9509580     1.0658110     0.4223950
  C        1.7399610    -0.8480750    -0.4298540
  C       -4.8245050    -0.7978720    -0.0796260
  C        4.1550680     0.3942430     0.2262330
  C        2.9515180    -1.5184900    -0.6042170
  C        4.1638000    -0.9089480    -0.2775300
  H        0.6281830     2.1736720     0.0568290
  H       -0.3846330    -1.0553430     1.4003190
  H       -1.4458780     2.2938080    -1.0816330
  H       -2.6884880    -1.9242290     1.2030750
  H       -3.7690390     1.4656370    -1.2045950
  H        2.9440570     2.0709610     0.8408760
  H        0.8089320    -1.3225020    -0.7243660
  H       -5.3342430    -0.4266360    -0.9733710
  H       -4.8571770    -1.8911150    -0.1016080
  H       -5.3999470    -0.4674270     0.7922980
  H        5.0892700     0.8861500     0.4875790
  H        2.9428240    -2.5277610    -1.0100830
  H        5.1022700    -1.4382830    -0.4191710
units angstrom
no_reorient  #important for SAPT in psi4, default
symmetry c1  #important for SAPT in psi4, default
}

set PROPERTIES_ORIGIN ["COM"]
properties('MP2/aug-cc-pvtz', properties = ['dipole'])
--------------------------------------------------------------------------

    Molecular point group: c1
  Charge       = 0
  Multiplicity = 1
  Basis Set: AUG-CC-PVTZ
    Blend: AUG-CC-PVTZ
  Basis Set: (AUG-CC-PVTZ AUX)
    Blend: AUG-CC-PVTZ-JKFIT

    Orbital Energies [Eh]
    ---------------------

    Doubly Occupied:

       1A    -15.577223     2A    -11.284784     3A    -11.276382
       4A    -11.238402     5A    -11.238225     6A    -11.237560
       7A    -11.236591     8A    -11.234032     9A    -11.233680
      10A    -11.229497    11A    -11.226682    12A    -11.224946
      13A    -11.223304    14A    -11.223211    15A     -1.258008
      16A     -1.153180    17A     -1.128679    18A     -1.045812
      19A     -1.014914    20A     -1.008384    21A     -0.990956
      22A     -0.922009    23A     -0.842905    24A     -0.829346
      25A     -0.817677    26A     -0.784934    27A     -0.715931
      28A     -0.699893    29A     -0.670725    30A     -0.642011
      31A     -0.634902    32A     -0.619684    33A     -0.600013
      34A     -0.588951    35A     -0.584173    36A     -0.576758
      37A     -0.572146    38A     -0.545194    39A     -0.531956
      40A     -0.513907    41A     -0.502425    42A     -0.494982
      43A     -0.492128    44A     -0.478359    45A     -0.442668
      46A     -0.344889    47A     -0.337219    48A     -0.327678
      49A     -0.276262

  @DF-RHF Final Energy:  -554.47960060594789

   => Energetics <=

    Nuclear Repulsion Energy =            786.9562682597006642
    One-Electron Energy =               -2311.5233860102916879
    Two-Electron Energy =                 970.0875171446431295
    Total Energy =                       -554.4796006059478941
  Basis Set: (AUG-CC-PVTZ AUX)
    Blend: AUG-CC-PVTZ-RI
    Molecular point group: c1

    Geometry (in Angstrom), charge = 0, multiplicity = 1:

       Center              X                  Y                   Z               Mass
    ------------   -----------------  -----------------  -----------------  -----------------
         N            0.515340820138     1.173133745911     0.293858813412    14.003074004430
         C           -0.810099479862     0.740647145911     0.123999613412    12.000000000000
         C            1.698410820138     0.438475745911     0.085508813412    12.000000000000
         C           -3.436899179862    -0.316328254089    -0.022462186588    12.000000000000
         C           -1.151024179862    -0.538251254089     0.800604813412    12.000000000000
         C           -1.753718179862     1.356694745911    -0.568716186588    12.000000000000
         C           -2.455884179862    -1.013548254089     0.696501813412    12.000000000000
         C           -3.063289179862     0.882962745911    -0.639519186588    12.000000000000
         C            2.918358820138     1.048239745911     0.420336813412    12.000000000000
         C            1.707361820138    -0.865646254089    -0.431912186588    12.000000000000
         C           -4.857104179862    -0.815443254089    -0.081684186588    12.000000000000
         C            4.122468820138     0.376671745911     0.224174813412    12.000000000000
         C            2.918918820138    -1.536061254089    -0.606275186588    12.000000000000
         C            4.131200820138    -0.926519254089    -0.279588186588    12.000000000000
         H            0.595583820138     2.156100745911     0.054770813412     1.007825032230
         H           -0.417232179862    -1.072914254089     1.398260813412     1.007825032230
         H           -1.478477179862     2.276236745911    -1.083691186588     1.007825032230
         H           -2.721087179862    -1.941800254089     1.201016813412     1.007825032230
         H           -3.801638179862     1.448065745911    -1.206653186588     1.007825032230
         H            2.911457820138     2.053389745911     0.838817813412     1.007825032230
         H            0.776332820138    -1.340073254089    -0.726424186588     1.007825032230
         H           -5.366842179862    -0.444207254089    -0.975429186588     1.007825032230
         H           -4.889776179862    -1.908686254089    -0.103666186588     1.007825032230
         H           -5.432546179862    -0.484998254089     0.790239813412     1.007825032230
         H            5.056670820138     0.868578745911     0.485520813412     1.007825032230
         H            2.910224820138    -2.545332254089    -1.012141186588     1.007825032230
         H            5.069670820138    -1.455854254089    -0.421229186588     1.007825032230

  Basis Set: AUG-CC-PVTZ
    Blend: AUG-CC-PVTZ
  Basis Set: (AUG-CC-PVTZ AUX)
    Blend: AUG-CC-PVTZ-JKFIT
	 Reference Energy          =    -554.4796006059478941 [Eh]
	 Singles Energy            =      -0.0000000000000000 [Eh]
	 Same-Spin Energy          =      -0.6234274518271661 [Eh]
	 Opposite-Spin Energy      =      -1.9530489384223715 [Eh]
	 Correlation Energy        =      -2.5764763902495376 [Eh]
	 Total Energy              =    -557.0560769961974756 [Eh]

	 ================> DF-SCS-MP2 Energies <==================
	-----------------------------------------------------------
	 SCS Same-Spin Scale       =       0.3333333333333333 [-]
	 SCS Opposite-Spin Scale   =       1.2000000000000000 [-]
	 SCS Same-Spin Energy      =      -0.2078091506090554 [Eh]
	 SCS Opposite-Spin Energy  =      -2.3436587261068458 [Eh]
	 SCS Correlation Energy    =      -2.5514678767159009 [Eh]
	 SCS Total Energy          =    -557.0310684826638408 [Eh]
	-----------------------------------------------------------

  Dipole Moment: [D]
     X:    -0.6036      Y:     0.5512      Z:    -0.3611     Total:     0.8936

*** Psi4 exiting successfully. Buy a developer a beer!
