                               Psi4 1.4a3.dev225

  ==> Input File <==

--------------------------------------------------------------------------
#psi4
#
memory 32 gb

molecule  {
0 1
  N        0.5479400     1.1907050     0.2959170
  C       -0.7486070     0.6692540     0.1554050
  C        1.7310100     0.4560470     0.0875670
  C       -3.4043000    -0.2987570    -0.0204040
  C       -1.1184250    -0.5206800     0.8026630
  C       -1.7558144     1.3994181    -0.5924184
  C       -2.4232850    -0.9959770     0.6985600
  C       -3.0306900     0.9005340    -0.6374610
  C        2.9509580     1.0658110     0.4223950
  C        1.7399610    -0.8480750    -0.4298540
  C       -4.8245050    -0.7978720    -0.0796260
  C        4.1550680     0.3942430     0.2262330
  C        2.9515180    -1.5184900    -0.6042170
  C        4.1638000    -0.9089480    -0.2775300
  H        0.6281830     2.1736720     0.0568290
  H       -0.3846330    -1.0553430     1.4003190
  H       -1.4458780     2.2938080    -1.0816330
  H       -2.6884880    -1.9242290     1.2030750
  H       -3.7690390     1.4656370    -1.2045950
  H        2.9440570     2.0709610     0.8408760
  H        0.8089320    -1.3225020    -0.7243660
  H       -5.3342430    -0.4266360    -0.9733710
  H       -4.8571770    -1.8911150    -0.1016080
  H       -5.3999470    -0.4674270     0.7922980
  H        5.0892700     0.8861500     0.4875790
  H        2.9428240    -2.5277610    -1.0100830
  H        5.1022700    -1.4382830    -0.4191710
units angstrom
no_reorient  #important for SAPT in psi4, default
symmetry c1  #important for SAPT in psi4, default
}

set PROPERTIES_ORIGIN ["COM"]
properties('MP2/aug-cc-pvtz', properties = ['dipole'])
--------------------------------------------------------------------------

    Molecular point group: c1
  Charge       = 0
  Multiplicity = 1
  Basis Set: AUG-CC-PVTZ
    Blend: AUG-CC-PVTZ
  Basis Set: (AUG-CC-PVTZ AUX)
    Blend: AUG-CC-PVTZ-JKFIT

    Orbital Energies [Eh]
    ---------------------

    Doubly Occupied:

       1A    -15.578821     2A    -11.283038     3A    -11.282465
       4A    -11.238110     5A    -11.237338     6A    -11.235384
       7A    -11.234241     8A    -11.233954     9A    -11.232275
      10A    -11.229004    11A    -11.228552    12A    -11.226253
      13A    -11.224753    14A    -11.222766    15A     -1.257759
      16A     -1.150505    17A     -1.128572    18A     -1.037362
      19A     -1.018480    20A     -1.011538    21A     -0.990215
      22A     -0.919078    23A     -0.841207    24A     -0.829749
      25A     -0.818049    26A     -0.784911    27A     -0.712724
      28A     -0.704067    29A     -0.669399    30A     -0.644761
      31A     -0.634976    32A     -0.617825    33A     -0.597657
      34A     -0.587964    35A     -0.586142    36A     -0.582273
      37A     -0.572693    38A     -0.544871    39A     -0.529055
      40A     -0.513688    41A     -0.503481    42A     -0.494961
      43A     -0.490000    44A     -0.482287    45A     -0.441836
      46A     -0.343513    47A     -0.336746    48A     -0.328283
      49A     -0.273314

  @DF-RHF Final Energy:  -554.48736913840287

   => Energetics <=

    Nuclear Repulsion Energy =            786.6034433600381135
    One-Electron Energy =               -2310.8478410830093708
    Two-Electron Energy =                 969.7570285845685021
    Total Energy =                       -554.4873691384028689
  Basis Set: (AUG-CC-PVTZ AUX)
    Blend: AUG-CC-PVTZ-RI
    Molecular point group: c1

    Geometry (in Angstrom), charge = 0, multiplicity = 1:

       Center              X                  Y                   Z               Mass
    ------------   -----------------  -----------------  -----------------  -----------------
         N            0.515721067954     1.177315764091     0.293623748028    14.003074004430
         C           -0.780825932046     0.655864764091     0.153111748028    12.000000000000
         C            1.698791067954     0.442657764091     0.085273748028    12.000000000000
         C           -3.436518932046    -0.312146235909    -0.022697251972    12.000000000000
         C           -1.150643932046    -0.534069235909     0.800369748028    12.000000000000
         C           -1.788033332046     1.386028864091    -0.594711651972    12.000000000000
         C           -2.455503932046    -1.009366235909     0.696266748028    12.000000000000
         C           -3.062908932046     0.887144764091    -0.639754251972    12.000000000000
         C            2.918739067954     1.052421764091     0.420101748028    12.000000000000
         C            1.707742067954    -0.861464235909    -0.432147251972    12.000000000000
         C           -4.856723932046    -0.811261235909    -0.081919251972    12.000000000000
         C            4.122849067954     0.380853764091     0.223939748028    12.000000000000
         C            2.919299067954    -1.531879235909    -0.606510251972    12.000000000000
         C            4.131581067954    -0.922337235909    -0.279823251972    12.000000000000
         H            0.595964067954     2.160282764091     0.054535748028     1.007825032230
         H           -0.416851932046    -1.068732235909     1.398025748028     1.007825032230
         H           -1.478096932046     2.280418764091    -1.083926251972     1.007825032230
         H           -2.720706932046    -1.937618235909     1.200781748028     1.007825032230
         H           -3.801257932046     1.452247764091    -1.206888251972     1.007825032230
         H            2.911838067954     2.057571764091     0.838582748028     1.007825032230
         H            0.776713067954    -1.335891235909    -0.726659251972     1.007825032230
         H           -5.366461932046    -0.440025235909    -0.975664251972     1.007825032230
         H           -4.889395932046    -1.904504235909    -0.103901251972     1.007825032230
         H           -5.432165932046    -0.480816235909     0.790004748028     1.007825032230
         H            5.057051067954     0.872760764091     0.485285748028     1.007825032230
         H            2.910605067954    -2.541150235909    -1.012376251972     1.007825032230
         H            5.070051067954    -1.451672235909    -0.421464251972     1.007825032230

  Basis Set: AUG-CC-PVTZ
    Blend: AUG-CC-PVTZ
  Basis Set: (AUG-CC-PVTZ AUX)
    Blend: AUG-CC-PVTZ-JKFIT
	 Reference Energy          =    -554.4873691384028689 [Eh]
	 Singles Energy            =      -0.0000000000000000 [Eh]
	 Same-Spin Energy          =      -0.6239933065782094 [Eh]
	 Opposite-Spin Energy      =      -1.9530144314486799 [Eh]
	 Correlation Energy        =      -2.5770077380268894 [Eh]
	 Total Energy              =    -557.0643768764297192 [Eh]

	 ================> DF-SCS-MP2 Energies <==================
	-----------------------------------------------------------
	 SCS Same-Spin Scale       =       0.3333333333333333 [-]
	 SCS Opposite-Spin Scale   =       1.2000000000000000 [-]
	 SCS Same-Spin Energy      =      -0.2079977688594031 [Eh]
	 SCS Opposite-Spin Energy  =      -2.3436173177384156 [Eh]
	 SCS Correlation Energy    =      -2.5516150865978187 [Eh]
	 SCS Total Energy          =    -557.0389842250007177 [Eh]
	-----------------------------------------------------------

  Dipole Moment: [D]
     X:    -0.5611      Y:     0.5995      Z:    -0.3433     Total:     0.8901

*** Psi4 exiting successfully. Buy a developer a beer!
