                               Psi4 1.4a3.dev225

  ==> Input File <==

--------------------------------------------------------------------------
#psi4
#
memory 32 gb

molecule  {
0 1
  N        0.5479400     1.1907050     0.2959170
  C       -0.7670694     0.6618287     0.1534042
  C        1.7310100     0.4560470     0.0875670
  C       -3.4043000    -0.2987570    -0.0204040
  C       -1.1184250    -0.5206800     0.8026630
  C       -1.7211190     1.3742660    -0.5666580
  C       -2.4232850    -0.9959770     0.6985600
  C       -3.0306900     0.9005340    -0.6374610
  C        2.9509580     1.0658110     0.4223950
  C        1.7399610    -0.8480750    -0.4298540
  C       -4.8245050    -0.7978720    -0.0796260
  C        4.1550680     0.3942430     0.2262330
  C        2.9515180    -1.5184900    -0.6042170
  C        4.1638000    -0.9089480    -0.2775300
  H        0.6281830     2.1736720     0.0568290
  H       -0.3846330    -1.0553430     1.4003190
  H       -1.4458780     2.2938080    -1.0816330
  H       -2.6884880    -1.9242290     1.2030750
  H       -3.7690390     1.4656370    -1.2045950
  H        2.9440570     2.0709610     0.8408760
  H        0.8089320    -1.3225020    -0.7243660
  H       -5.3342430    -0.4266360    -0.9733710
  H       -4.8571770    -1.8911150    -0.1016080
  H       -5.3999470    -0.4674270     0.7922980
  H        5.0892700     0.8861500     0.4875790
  H        2.9428240    -2.5277610    -1.0100830
  H        5.1022700    -1.4382830    -0.4191710
units angstrom
no_reorient  #important for SAPT in psi4, default
symmetry c1  #important for SAPT in psi4, default
}

set PROPERTIES_ORIGIN ["COM"]
properties('MP2/aug-cc-pvtz', properties = ['dipole'])
--------------------------------------------------------------------------

    Molecular point group: c1
  Charge       = 0
  Multiplicity = 1
  Basis Set: AUG-CC-PVTZ
    Blend: AUG-CC-PVTZ
  Basis Set: (AUG-CC-PVTZ AUX)
    Blend: AUG-CC-PVTZ-JKFIT

    Orbital Energies [Eh]
    ---------------------

    Doubly Occupied:

       1A    -15.575680     2A    -11.281611     3A    -11.276498
       4A    -11.237191     5A    -11.237127     6A    -11.236463
       7A    -11.235528     8A    -11.234971     9A    -11.232766
      10A    -11.230129    11A    -11.227499    12A    -11.225069
      13A    -11.223831    14A    -11.223471    15A     -1.252922
      16A     -1.153373    17A     -1.127421    18A     -1.041948
      19A     -1.017222    20A     -1.010505    21A     -0.988201
      22A     -0.922098    23A     -0.843225    24A     -0.828560
      25A     -0.816142    26A     -0.785768    27A     -0.711597
      28A     -0.701809    29A     -0.667927    30A     -0.640463
      31A     -0.635644    32A     -0.618752    33A     -0.596923
      34A     -0.587267    35A     -0.585915    36A     -0.582184
      37A     -0.573848    38A     -0.544657    39A     -0.530714
      40A     -0.512846    41A     -0.500944    42A     -0.495397
      43A     -0.489307    44A     -0.487807    45A     -0.441133
      46A     -0.340844    47A     -0.335401    48A     -0.331267
      49A     -0.276882

  @DF-RHF Final Energy:  -554.49074275170915

   => Energetics <=

    Nuclear Repulsion Energy =            787.3479654867786621
    One-Electron Energy =               -2312.3679218192896769
    Two-Electron Energy =                 970.5292135808017520
    Total Energy =                       -554.4907427517091492
  Basis Set: (AUG-CC-PVTZ AUX)
    Blend: AUG-CC-PVTZ-RI
    Molecular point group: c1

    Geometry (in Angstrom), charge = 0, multiplicity = 1:

       Center              X                  Y                   Z               Mass
    ------------   -----------------  -----------------  -----------------  -----------------
         N            0.514657218177     1.179450764381     0.292066633190    14.003074004430
         C           -0.800352181823     0.650574464381     0.149553833190    12.000000000000
         C            1.697727218177     0.444792764381     0.083716633190    12.000000000000
         C           -3.437582781823    -0.310011235619    -0.024254366810    12.000000000000
         C           -1.151707781823    -0.531934235619     0.798812633190    12.000000000000
         C           -1.754401781823     1.363011764381    -0.570508366810    12.000000000000
         C           -2.456567781823    -1.007231235619     0.694709633190    12.000000000000
         C           -3.063972781823     0.889279764381    -0.641311366810    12.000000000000
         C            2.917675218177     1.054556764381     0.418544633190    12.000000000000
         C            1.706678218177    -0.859329235619    -0.433704366810    12.000000000000
         C           -4.857787781823    -0.809126235619    -0.083476366810    12.000000000000
         C            4.121785218177     0.382988764381     0.222382633190    12.000000000000
         C            2.918235218177    -1.529744235619    -0.608067366810    12.000000000000
         C            4.130517218177    -0.920202235619    -0.281380366810    12.000000000000
         H            0.594900218177     2.162417764381     0.052978633190     1.007825032230
         H           -0.417915781823    -1.066597235619     1.396468633190     1.007825032230
         H           -1.479160781823     2.282553764381    -1.085483366810     1.007825032230
         H           -2.721770781823    -1.935483235619     1.199224633190     1.007825032230
         H           -3.802321781823     1.454382764381    -1.208445366810     1.007825032230
         H            2.910774218177     2.059706764381     0.837025633190     1.007825032230
         H            0.775649218177    -1.333756235619    -0.728216366810     1.007825032230
         H           -5.367525781823    -0.437890235619    -0.977221366810     1.007825032230
         H           -4.890459781823    -1.902369235619    -0.105458366810     1.007825032230
         H           -5.433229781823    -0.478681235619     0.788447633190     1.007825032230
         H            5.055987218177     0.874895764381     0.483728633190     1.007825032230
         H            2.909541218177    -2.539015235619    -1.013933366810     1.007825032230
         H            5.068987218177    -1.449537235619    -0.423021366810     1.007825032230

  Basis Set: AUG-CC-PVTZ
    Blend: AUG-CC-PVTZ
  Basis Set: (AUG-CC-PVTZ AUX)
    Blend: AUG-CC-PVTZ-JKFIT
	 Reference Energy          =    -554.4907427517091492 [Eh]
	 Singles Energy            =      -0.0000000000000000 [Eh]
	 Same-Spin Energy          =      -0.6237382246494917 [Eh]
	 Opposite-Spin Energy      =      -1.9524569863909855 [Eh]
	 Correlation Energy        =      -2.5761952110404773 [Eh]
	 Total Energy              =    -557.0669379627496482 [Eh]

	 ================> DF-SCS-MP2 Energies <==================
	-----------------------------------------------------------
	 SCS Same-Spin Scale       =       0.3333333333333333 [-]
	 SCS Opposite-Spin Scale   =       1.2000000000000000 [-]
	 SCS Same-Spin Energy      =      -0.2079127415498306 [Eh]
	 SCS Opposite-Spin Energy  =      -2.3429483836691825 [Eh]
	 SCS Correlation Energy    =      -2.5508611252190132 [Eh]
	 SCS Total Energy          =    -557.0416038769282068 [Eh]
	-----------------------------------------------------------

  Dipole Moment: [D]
     X:    -0.7923      Y:     0.5632      Z:    -0.3474     Total:     1.0323

*** Psi4 exiting successfully. Buy a developer a beer!
