                               Psi4 1.4a3.dev225

  ==> Input File <==

--------------------------------------------------------------------------
#psi4
#
memory 32 gb

molecule  {
0 1
  N        0.5479400     1.1907050     0.2959170
  C       -0.7024509     0.6878173     0.1604071
  C        1.7310100     0.4560470     0.0875670
  C       -3.4043000    -0.2987570    -0.0204040
  C       -1.1184250    -0.5206800     0.8026630
  C       -1.7211190     1.3742660    -0.5666580
  C       -2.4232850    -0.9959770     0.6985600
  C       -3.0306900     0.9005340    -0.6374610
  C        2.9509580     1.0658110     0.4223950
  C        1.7399610    -0.8480750    -0.4298540
  C       -4.8245050    -0.7978720    -0.0796260
  C        4.1550680     0.3942430     0.2262330
  C        2.9515180    -1.5184900    -0.6042170
  C        4.1638000    -0.9089480    -0.2775300
  H        0.6281830     2.1736720     0.0568290
  H       -0.3846330    -1.0553430     1.4003190
  H       -1.4458780     2.2938080    -1.0816330
  H       -2.6884880    -1.9242290     1.2030750
  H       -3.7690390     1.4656370    -1.2045950
  H        2.9440570     2.0709610     0.8408760
  H        0.8089320    -1.3225020    -0.7243660
  H       -5.3342430    -0.4266360    -0.9733710
  H       -4.8571770    -1.8911150    -0.1016080
  H       -5.3999470    -0.4674270     0.7922980
  H        5.0892700     0.8861500     0.4875790
  H        2.9428240    -2.5277610    -1.0100830
  H        5.1022700    -1.4382830    -0.4191710
units angstrom
no_reorient  #important for SAPT in psi4, default
symmetry c1  #important for SAPT in psi4, default
}

set PROPERTIES_ORIGIN ["COM"]
properties('MP2/aug-cc-pvtz', properties = ['dipole'])
--------------------------------------------------------------------------

    Molecular point group: c1
  Charge       = 0
  Multiplicity = 1
  Basis Set: AUG-CC-PVTZ
    Blend: AUG-CC-PVTZ
  Basis Set: (AUG-CC-PVTZ AUX)
    Blend: AUG-CC-PVTZ-JKFIT

    Orbital Energies [Eh]
    ---------------------

    Doubly Occupied:

       1A    -15.581476     2A    -11.285306     3A    -11.279962
       4A    -11.239881     5A    -11.239073     6A    -11.233849
       7A    -11.233191     8A    -11.232291     9A    -11.231834
      10A    -11.231535    11A    -11.229707    12A    -11.228703
      13A    -11.227060    14A    -11.221343    15A     -1.273329
      16A     -1.149535    17A     -1.129218    18A     -1.038029
      19A     -1.015581    20A     -1.008610    21A     -0.992383
      22A     -0.919555    23A     -0.842638    24A     -0.833226
      25A     -0.817367    26A     -0.784173    27A     -0.717650
      28A     -0.710093    29A     -0.670563    30A     -0.639973
      31A     -0.634531    32A     -0.619905    33A     -0.599611
      34A     -0.591116    35A     -0.586179    36A     -0.577156
      37A     -0.571681    38A     -0.549293    39A     -0.529365
      40A     -0.514748    41A     -0.501942    42A     -0.493986
      43A     -0.492276    44A     -0.478702    45A     -0.442823
      46A     -0.340320    47A     -0.335348    48A     -0.330789
      49A     -0.272059

  @DF-RHF Final Energy:  -554.48645612384200

   => Energetics <=

    Nuclear Repulsion Energy =            787.3534575696813818
    One-Electron Energy =               -2312.2818970948142123
    Two-Electron Energy =                 970.4419834012909405
    Total Energy =                       -554.4864561238420038
  Basis Set: (AUG-CC-PVTZ AUX)
    Blend: AUG-CC-PVTZ-RI
    Molecular point group: c1

    Geometry (in Angstrom), charge = 0, multiplicity = 1:

       Center              X                  Y                   Z               Mass
    ------------   -----------------  -----------------  -----------------  -----------------
         N            0.510422364681     1.177747569266     0.291607689458    14.003074004430
         C           -0.739968535319     0.674859869266     0.156097789458    12.000000000000
         C            1.693492364681     0.443089569266     0.083257689458    12.000000000000
         C           -3.441817635319    -0.311714430734    -0.024713310542    12.000000000000
         C           -1.155942635319    -0.533637430734     0.798353689458    12.000000000000
         C           -1.758636635319     1.361308569266    -0.570967310542    12.000000000000
         C           -2.460802635319    -1.008934430734     0.694250689458    12.000000000000
         C           -3.068207635319     0.887576569266    -0.641770310542    12.000000000000
         C            2.913440364681     1.052853569266     0.418085689458    12.000000000000
         C            1.702443364681    -0.861032430734    -0.434163310542    12.000000000000
         C           -4.862022635319    -0.810829430734    -0.083935310542    12.000000000000
         C            4.117550364681     0.381285569266     0.221923689458    12.000000000000
         C            2.914000364681    -1.531447430734    -0.608526310542    12.000000000000
         C            4.126282364681    -0.921905430734    -0.281839310542    12.000000000000
         H            0.590665364681     2.160714569266     0.052519689458     1.007825032230
         H           -0.422150635319    -1.068300430734     1.396009689458     1.007825032230
         H           -1.483395635319     2.280850569266    -1.085942310542     1.007825032230
         H           -2.726005635319    -1.937186430734     1.198765689458     1.007825032230
         H           -3.806556635319     1.452679569266    -1.208904310542     1.007825032230
         H            2.906539364681     2.058003569266     0.836566689458     1.007825032230
         H            0.771414364681    -1.335459430734    -0.728675310542     1.007825032230
         H           -5.371760635319    -0.439593430734    -0.977680310542     1.007825032230
         H           -4.894694635319    -1.904072430734    -0.105917310542     1.007825032230
         H           -5.437464635319    -0.480384430734     0.787988689458     1.007825032230
         H            5.051752364681     0.873192569266     0.483269689458     1.007825032230
         H            2.905306364681    -2.540718430734    -1.014392310542     1.007825032230
         H            5.064752364681    -1.451240430734    -0.423480310542     1.007825032230

  Basis Set: AUG-CC-PVTZ
    Blend: AUG-CC-PVTZ
  Basis Set: (AUG-CC-PVTZ AUX)
    Blend: AUG-CC-PVTZ-JKFIT
	 Reference Energy          =    -554.4864561238420038 [Eh]
	 Singles Energy            =      -0.0000000000000000 [Eh]
	 Same-Spin Energy          =      -0.6245431361899341 [Eh]
	 Opposite-Spin Energy      =      -1.9534930731524500 [Eh]
	 Correlation Energy        =      -2.5780362093423843 [Eh]
	 Total Energy              =    -557.0644923331843756 [Eh]

	 ================> DF-SCS-MP2 Energies <==================
	-----------------------------------------------------------
	 SCS Same-Spin Scale       =       0.3333333333333333 [-]
	 SCS Opposite-Spin Scale   =       1.2000000000000000 [-]
	 SCS Same-Spin Energy      =      -0.2081810453966447 [Eh]
	 SCS Opposite-Spin Energy  =      -2.3441916877829398 [Eh]
	 SCS Correlation Energy    =      -2.5523727331795847 [Eh]
	 SCS Total Energy          =    -557.0388288570215991 [Eh]
	-----------------------------------------------------------

  Dipole Moment: [D]
     X:    -0.2182      Y:     0.6164      Z:    -0.3236     Total:     0.7295

*** Psi4 exiting successfully. Buy a developer a beer!
