                               Psi4 1.4a3.dev225

  ==> Input File <==

--------------------------------------------------------------------------
#psi4
#
memory 32 gb

molecule  {
0 1
  N        0.5479400     1.1907050     0.2959170
  C       -0.7486070     0.6692540     0.1554050
  C        1.7310100     0.4560470     0.0875670
  C       -3.4364591    -0.3337714    -0.0088135
  C       -1.1184250    -0.5206800     0.8026630
  C       -1.7211190     1.3742660    -0.5666580
  C       -2.4232850    -0.9959770     0.6985600
  C       -3.0306900     0.9005340    -0.6374610
  C        2.9509580     1.0658110     0.4223950
  C        1.7399610    -0.8480750    -0.4298540
  C       -4.8245050    -0.7978720    -0.0796260
  C        4.1550680     0.3942430     0.2262330
  C        2.9515180    -1.5184900    -0.6042170
  C        4.1638000    -0.9089480    -0.2775300
  H        0.6281830     2.1736720     0.0568290
  H       -0.3846330    -1.0553430     1.4003190
  H       -1.4458780     2.2938080    -1.0816330
  H       -2.6884880    -1.9242290     1.2030750
  H       -3.7690390     1.4656370    -1.2045950
  H        2.9440570     2.0709610     0.8408760
  H        0.8089320    -1.3225020    -0.7243660
  H       -5.3342430    -0.4266360    -0.9733710
  H       -4.8571770    -1.8911150    -0.1016080
  H       -5.3999470    -0.4674270     0.7922980
  H        5.0892700     0.8861500     0.4875790
  H        2.9428240    -2.5277610    -1.0100830
  H        5.1022700    -1.4382830    -0.4191710
units angstrom
no_reorient  #important for SAPT in psi4, default
symmetry c1  #important for SAPT in psi4, default
}

set PROPERTIES_ORIGIN ["COM"]
properties('MP2/aug-cc-pvtz', properties = ['dipole'])
--------------------------------------------------------------------------

    Molecular point group: c1
  Charge       = 0
  Multiplicity = 1
  Basis Set: AUG-CC-PVTZ
    Blend: AUG-CC-PVTZ
  Basis Set: (AUG-CC-PVTZ AUX)
    Blend: AUG-CC-PVTZ-JKFIT

    Orbital Energies [Eh]
    ---------------------

    Doubly Occupied:

       1A    -15.577525     2A    -11.282632     3A    -11.277677
       4A    -11.239728     5A    -11.238382     6A    -11.237826
       7A    -11.237088     8A    -11.234145     9A    -11.233214
      10A    -11.229405    11A    -11.228585    12A    -11.225944
      13A    -11.224406    14A    -11.222311    15A     -1.258244
      16A     -1.149964    17A     -1.127050    18A     -1.045075
      19A     -1.014697    20A     -1.009864    21A     -0.991394
      22A     -0.922535    23A     -0.840830    24A     -0.830197
      25A     -0.814422    26A     -0.784812    27A     -0.712706
      28A     -0.703598    29A     -0.668492    30A     -0.643497
      31A     -0.635249    32A     -0.618076    33A     -0.597610
      34A     -0.588194    35A     -0.584026    36A     -0.580725
      37A     -0.576648    38A     -0.546230    39A     -0.531654
      40A     -0.519705    41A     -0.505017    42A     -0.493283
      43A     -0.490498    44A     -0.478414    45A     -0.439947
      46A     -0.339934    47A     -0.335540    48A     -0.328946
      49A     -0.274261

  @DF-RHF Final Energy:  -554.48670164036446

   => Energetics <=

    Nuclear Repulsion Energy =            786.8439169805088795
    One-Electron Energy =               -2311.3208401209503791
    Two-Electron Energy =                 969.9902215000771548
    Total Energy =                       -554.4867016403644584
  Basis Set: (AUG-CC-PVTZ AUX)
    Blend: AUG-CC-PVTZ-RI
    Molecular point group: c1

    Geometry (in Angstrom), charge = 0, multiplicity = 1:

       Center              X                  Y                   Z               Mass
    ------------   -----------------  -----------------  -----------------  -----------------
         N            0.515554848389     1.181258850248     0.291175910497    14.003074004430
         C           -0.780992151611     0.659807850248     0.150663910497    12.000000000000
         C            1.698624848389     0.446600850248     0.082825910497    12.000000000000
         C           -3.468844251611    -0.343217549752    -0.013554589503    12.000000000000
         C           -1.150810151611    -0.530126149752     0.797921910497    12.000000000000
         C           -1.753504151611     1.364819850248    -0.571399089503    12.000000000000
         C           -2.455670151611    -1.005423149752     0.693818910497    12.000000000000
         C           -3.063075151611     0.891087850248    -0.642202089503    12.000000000000
         C            2.918572848389     1.056364850248     0.417653910497    12.000000000000
         C            1.707575848389    -0.857521149752    -0.434595089503    12.000000000000
         C           -4.856890151611    -0.807318149752    -0.084367089503    12.000000000000
         C            4.122682848389     0.384796850248     0.221491910497    12.000000000000
         C            2.919132848389    -1.527936149752    -0.608958089503    12.000000000000
         C            4.131414848389    -0.918394149752    -0.282271089503    12.000000000000
         H            0.595797848389     2.164225850248     0.052087910497     1.007825032230
         H           -0.417018151611    -1.064789149752     1.395577910497     1.007825032230
         H           -1.478263151611     2.284361850248    -1.086374089503     1.007825032230
         H           -2.720873151611    -1.933675149752     1.198333910497     1.007825032230
         H           -3.801424151611     1.456190850248    -1.209336089503     1.007825032230
         H            2.911671848389     2.061514850248     0.836134910497     1.007825032230
         H            0.776546848389    -1.331948149752    -0.729107089503     1.007825032230
         H           -5.366628151611    -0.436082149752    -0.978112089503     1.007825032230
         H           -4.889562151611    -1.900561149752    -0.106349089503     1.007825032230
         H           -5.432332151611    -0.476873149752     0.787556910497     1.007825032230
         H            5.056884848389     0.876703850248     0.482837910497     1.007825032230
         H            2.910438848389    -2.537207149752    -1.014824089503     1.007825032230
         H            5.069884848389    -1.447729149752    -0.423912089503     1.007825032230

  Basis Set: AUG-CC-PVTZ
    Blend: AUG-CC-PVTZ
  Basis Set: (AUG-CC-PVTZ AUX)
    Blend: AUG-CC-PVTZ-JKFIT
	 Reference Energy          =    -554.4867016403644584 [Eh]
	 Singles Energy            =      -0.0000000000000000 [Eh]
	 Same-Spin Energy          =      -0.6244059067724241 [Eh]
	 Opposite-Spin Energy      =      -1.9534624195147330 [Eh]
	 Correlation Energy        =      -2.5778683262871569 [Eh]
	 Total Energy              =    -557.0645699666515611 [Eh]

	 ================> DF-SCS-MP2 Energies <==================
	-----------------------------------------------------------
	 SCS Same-Spin Scale       =       0.3333333333333333 [-]
	 SCS Opposite-Spin Scale   =       1.2000000000000000 [-]
	 SCS Same-Spin Energy      =      -0.2081353022574747 [Eh]
	 SCS Opposite-Spin Energy  =      -2.3441549034176794 [Eh]
	 SCS Correlation Energy    =      -2.5522902056751540 [Eh]
	 SCS Total Energy          =    -557.0389918460396075 [Eh]
	-----------------------------------------------------------

  Dipole Moment: [D]
     X:    -0.6882      Y:     0.5753      Z:    -0.3516     Total:     0.9634

*** Psi4 exiting successfully. Buy a developer a beer!
