                               Psi4 1.4a3.dev225

  ==> Input File <==

--------------------------------------------------------------------------
#psi4
#
memory 32 gb

molecule  {
0 1
  N        0.5479400     1.1907050     0.2959170
  C       -0.5639827     0.7435070     0.1754135
  C        1.7310100     0.4560470     0.0875670
  C       -3.4043000    -0.2987570    -0.0204040
  C       -1.1184250    -0.5206800     0.8026630
  C       -1.7211190     1.3742660    -0.5666580
  C       -2.4232850    -0.9959770     0.6985600
  C       -3.0306900     0.9005340    -0.6374610
  C        2.9509580     1.0658110     0.4223950
  C        1.7399610    -0.8480750    -0.4298540
  C       -4.8245050    -0.7978720    -0.0796260
  C        4.1550680     0.3942430     0.2262330
  C        2.9515180    -1.5184900    -0.6042170
  C        4.1638000    -0.9089480    -0.2775300
  H        0.6281830     2.1736720     0.0568290
  H       -0.3846330    -1.0553430     1.4003190
  H       -1.4458780     2.2938080    -1.0816330
  H       -2.6884880    -1.9242290     1.2030750
  H       -3.7690390     1.4656370    -1.2045950
  H        2.9440570     2.0709610     0.8408760
  H        0.8089320    -1.3225020    -0.7243660
  H       -5.3342430    -0.4266360    -0.9733710
  H       -4.8571770    -1.8911150    -0.1016080
  H       -5.3999470    -0.4674270     0.7922980
  H        5.0892700     0.8861500     0.4875790
  H        2.9428240    -2.5277610    -1.0100830
  H        5.1022700    -1.4382830    -0.4191710
units angstrom
no_reorient  #important for SAPT in psi4, default
symmetry c1  #important for SAPT in psi4, default
}

set PROPERTIES_ORIGIN ["COM"]
properties('MP2/aug-cc-pvtz', properties = ['dipole'])
--------------------------------------------------------------------------

    Molecular point group: c1
  Charge       = 0
  Multiplicity = 1
  Basis Set: AUG-CC-PVTZ
    Blend: AUG-CC-PVTZ
  Basis Set: (AUG-CC-PVTZ AUX)
    Blend: AUG-CC-PVTZ-JKFIT

    Orbital Energies [Eh]
    ---------------------

    Doubly Occupied:

       1A    -15.596642     2A    -11.295210     3A    -11.289065
       4A    -11.247508     5A    -11.246342     6A    -11.242853
       7A    -11.239031     8A    -11.237188     9A    -11.228875
      10A    -11.227691    11A    -11.227190    12A    -11.226335
      13A    -11.219204    14A    -11.213720    15A     -1.337193
      16A     -1.156537    17A     -1.119658    18A     -1.038746
      19A     -1.023667    20A     -0.996525    21A     -0.991758
      22A     -0.914132    23A     -0.851035    24A     -0.848430
      25A     -0.814380    26A     -0.785084    27A     -0.730629
      28A     -0.727992    29A     -0.679998    30A     -0.642247
      31A     -0.635392    32A     -0.623878    33A     -0.607291
      34A     -0.594417    35A     -0.591164    36A     -0.568710
      37A     -0.562888    38A     -0.559709    39A     -0.524601
      40A     -0.518709    41A     -0.503064    42A     -0.500114
      43A     -0.493840    44A     -0.454451    45A     -0.432158
      46A     -0.346987    47A     -0.337238    48A     -0.327887
      49A     -0.253908

  @DF-RHF Final Energy:  -554.42425767998941

   => Energetics <=

    Nuclear Repulsion Energy =            787.7921870080365352
    One-Electron Energy =               -2312.7703533225435422
    Two-Electron Energy =                 970.5539086345175974
    Total Energy =                       -554.4242576799894096
  Basis Set: (AUG-CC-PVTZ AUX)
    Blend: AUG-CC-PVTZ-RI
    Molecular point group: c1

    Geometry (in Angstrom), charge = 0, multiplicity = 1:

       Center              X                  Y                   Z               Mass
    ------------   -----------------  -----------------  -----------------  -----------------
         N            0.501347679554     1.174097875745     0.290624226433    14.003074004430
         C           -0.610575020446     0.726899875745     0.170120726433    12.000000000000
         C            1.684417679554     0.439439875745     0.082274226433    12.000000000000
         C           -3.450892320446    -0.315364124255    -0.025696773567    12.000000000000
         C           -1.165017320446    -0.537287124255     0.797370226433    12.000000000000
         C           -1.767711320446     1.357658875745    -0.571950773567    12.000000000000
         C           -2.469877320446    -1.012584124255     0.693267226433    12.000000000000
         C           -3.077282320446     0.883926875745    -0.642753773567    12.000000000000
         C            2.904365679554     1.049203875745     0.417102226433    12.000000000000
         C            1.693368679554    -0.864682124255    -0.435146773567    12.000000000000
         C           -4.871097320446    -0.814479124255    -0.084918773567    12.000000000000
         C            4.108475679554     0.377635875745     0.220940226433    12.000000000000
         C            2.904925679554    -1.535097124255    -0.609509773567    12.000000000000
         C            4.117207679554    -0.925555124255    -0.282822773567    12.000000000000
         H            0.581590679554     2.157064875745     0.051536226433     1.007825032230
         H           -0.431225320446    -1.071950124255     1.395026226433     1.007825032230
         H           -1.492470320446     2.277200875745    -1.086925773567     1.007825032230
         H           -2.735080320446    -1.940836124255     1.197782226433     1.007825032230
         H           -3.815631320446     1.449029875745    -1.209887773567     1.007825032230
         H            2.897464679554     2.054353875745     0.835583226433     1.007825032230
         H            0.762339679554    -1.339109124255    -0.729658773567     1.007825032230
         H           -5.380835320446    -0.443243124255    -0.978663773567     1.007825032230
         H           -4.903769320446    -1.907722124255    -0.106900773567     1.007825032230
         H           -5.446539320446    -0.484034124255     0.787005226433     1.007825032230
         H            5.042677679554     0.869542875745     0.482286226433     1.007825032230
         H            2.896231679554    -2.544368124255    -1.015375773567     1.007825032230
         H            5.055677679554    -1.454890124255    -0.424463773567     1.007825032230

  Basis Set: AUG-CC-PVTZ
    Blend: AUG-CC-PVTZ
  Basis Set: (AUG-CC-PVTZ AUX)
    Blend: AUG-CC-PVTZ-JKFIT
	 Reference Energy          =    -554.4242576799894096 [Eh]
	 Singles Energy            =      -0.0000000000000000 [Eh]
	 Same-Spin Energy          =      -0.6274726295935430 [Eh]
	 Opposite-Spin Energy      =      -1.9580461111262113 [Eh]
	 Correlation Energy        =      -2.5855187407197544 [Eh]
	 Total Energy              =    -557.0097764207091586 [Eh]

	 ================> DF-SCS-MP2 Energies <==================
	-----------------------------------------------------------
	 SCS Same-Spin Scale       =       0.3333333333333333 [-]
	 SCS Opposite-Spin Scale   =       1.2000000000000000 [-]
	 SCS Same-Spin Energy      =      -0.2091575431978477 [Eh]
	 SCS Opposite-Spin Energy  =      -2.3496553333514534 [Eh]
	 SCS Correlation Energy    =      -2.5588128765493012 [Eh]
	 SCS Total Energy          =    -556.9830705565386779 [Eh]
	-----------------------------------------------------------

  Dipole Moment: [D]
     X:     1.1962      Y:     0.7440      Z:    -0.2614     Total:     1.4327

*** Psi4 exiting successfully. Buy a developer a beer!
