                               Psi4 1.4a3.dev225

  ==> Input File <==

--------------------------------------------------------------------------
#psi4
#
memory 32 gb

molecule  {
0 1
  N        0.5479400     1.1907050     0.2959170
  C       -0.7486070     0.6692540     0.1554050
  C        1.7310100     0.4560470     0.0875670
  C       -3.4043000    -0.2987570    -0.0204040
  C       -1.1184250    -0.5206800     0.8026630
  C       -1.7211190     1.3742660    -0.5666580
  C       -2.4232850    -0.9959770     0.6985600
  C       -3.0306900     0.9005340    -0.6374610
  C        2.9509580     1.0658110     0.4223950
  C        1.7396420    -0.8016003    -0.4114148
  C       -4.8245050    -0.7978720    -0.0796260
  C        4.1550680     0.3942430     0.2262330
  C        2.9515180    -1.5184900    -0.6042170
  C        4.1638000    -0.9089480    -0.2775300
  H        0.6281830     2.1736720     0.0568290
  H       -0.3846330    -1.0553430     1.4003190
  H       -1.4458780     2.2938080    -1.0816330
  H       -2.6884880    -1.9242290     1.2030750
  H       -3.7690390     1.4656370    -1.2045950
  H        2.9440570     2.0709610     0.8408760
  H        0.8089320    -1.3225020    -0.7243660
  H       -5.3342430    -0.4266360    -0.9733710
  H       -4.8571770    -1.8911150    -0.1016080
  H       -5.3999470    -0.4674270     0.7922980
  H        5.0892700     0.8861500     0.4875790
  H        2.9428240    -2.5277610    -1.0100830
  H        5.1022700    -1.4382830    -0.4191710
units angstrom
no_reorient  #important for SAPT in psi4, default
symmetry c1  #important for SAPT in psi4, default
}

set PROPERTIES_ORIGIN ["COM"]
properties('MP2/aug-cc-pvtz', properties = ['dipole'])
--------------------------------------------------------------------------

    Molecular point group: c1
  Charge       = 0
  Multiplicity = 1
  Basis Set: AUG-CC-PVTZ
    Blend: AUG-CC-PVTZ
  Basis Set: (AUG-CC-PVTZ AUX)
    Blend: AUG-CC-PVTZ-JKFIT

    Orbital Energies [Eh]
    ---------------------

    Doubly Occupied:

       1A    -15.575473     2A    -11.276577     3A    -11.276228
       4A    -11.240063     5A    -11.237902     6A    -11.235491
       7A    -11.234135     8A    -11.233524     9A    -11.231816
      10A    -11.230190    11A    -11.229275    12A    -11.225760
      13A    -11.224702    14A    -11.222672    15A     -1.258537
      16A     -1.152946    17A     -1.128467    18A     -1.040786
      19A     -1.015229    20A     -1.008674    21A     -0.993109
      22A     -0.921167    23A     -0.843585    24A     -0.829331
      25A     -0.817674    26A     -0.783905    27A     -0.713733
      28A     -0.703474    29A     -0.665958    30A     -0.640475
      31A     -0.635208    32A     -0.618349    33A     -0.602143
      34A     -0.587070    35A     -0.583629    36A     -0.579813
      37A     -0.572551    38A     -0.545370    39A     -0.530929
      40A     -0.510495    41A     -0.503415    42A     -0.495067
      43A     -0.487797    44A     -0.485428    45A     -0.441372
      46A     -0.339665    47A     -0.334876    48A     -0.331554
      49A     -0.277677

  @DF-RHF Final Energy:  -554.48794771214875

   => Energetics <=

    Nuclear Repulsion Energy =            788.0295598570465927
    One-Electron Energy =               -2313.7284885407552792
    Two-Electron Energy =                 971.2109809715600477
    Total Energy =                       -554.4879477121487525
  Basis Set: (AUG-CC-PVTZ AUX)
    Blend: AUG-CC-PVTZ-RI
    Molecular point group: c1

    Geometry (in Angstrom), charge = 0, multiplicity = 1:

       Center              X                  Y                   Z               Mass
    ------------   -----------------  -----------------  -----------------  -----------------
         N            0.513468167968     1.175918361069     0.290727072453    14.003074004430
         C           -0.783078832032     0.654467361069     0.150215072453    12.000000000000
         C            1.696538167968     0.441260361069     0.082377072453    12.000000000000
         C           -3.438771832032    -0.313543638931    -0.025593927547    12.000000000000
         C           -1.152896832032    -0.535466638931     0.797473072453    12.000000000000
         C           -1.755590832032     1.359479361069    -0.571847927547    12.000000000000
         C           -2.457756832032    -1.010763638931     0.693370072453    12.000000000000
         C           -3.065161832032     0.885747361069    -0.642650927547    12.000000000000
         C            2.916486167968     1.051024361069     0.417205072453    12.000000000000
         C            1.705170167968    -0.816386938931    -0.416604727547    12.000000000000
         C           -4.858976832032    -0.812658638931    -0.084815927547    12.000000000000
         C            4.120596167968     0.379456361069     0.221043072453    12.000000000000
         C            2.917046167968    -1.533276638931    -0.609406927547    12.000000000000
         C            4.129328167968    -0.923734638931    -0.282719927547    12.000000000000
         H            0.593711167968     2.158885361069     0.051639072453     1.007825032230
         H           -0.419104832032    -1.070129638931     1.395129072453     1.007825032230
         H           -1.480349832032     2.279021361069    -1.086822927547     1.007825032230
         H           -2.722959832032    -1.939015638931     1.197885072453     1.007825032230
         H           -3.803510832032     1.450850361069    -1.209784927547     1.007825032230
         H            2.909585167968     2.056174361069     0.835686072453     1.007825032230
         H            0.774460167968    -1.337288638931    -0.729555927547     1.007825032230
         H           -5.368714832032    -0.441422638931    -0.978560927547     1.007825032230
         H           -4.891648832032    -1.905901638931    -0.106797927547     1.007825032230
         H           -5.434418832032    -0.482213638931     0.787108072453     1.007825032230
         H            5.054798167968     0.871363361069     0.482389072453     1.007825032230
         H            2.908352167968    -2.542547638931    -1.015272927547     1.007825032230
         H            5.067798167968    -1.453069638931    -0.424360927547     1.007825032230

  Basis Set: AUG-CC-PVTZ
    Blend: AUG-CC-PVTZ
  Basis Set: (AUG-CC-PVTZ AUX)
    Blend: AUG-CC-PVTZ-JKFIT
	 Reference Energy          =    -554.4879477121487525 [Eh]
	 Singles Energy            =      -0.0000000000000000 [Eh]
	 Same-Spin Energy          =      -0.6239061647475016 [Eh]
	 Opposite-Spin Energy      =      -1.9527511526323373 [Eh]
	 Correlation Energy        =      -2.5766573173798388 [Eh]
	 Total Energy              =    -557.0646050295285931 [Eh]

	 ================> DF-SCS-MP2 Energies <==================
	-----------------------------------------------------------
	 SCS Same-Spin Scale       =       0.3333333333333333 [-]
	 SCS Opposite-Spin Scale   =       1.2000000000000000 [-]
	 SCS Same-Spin Energy      =      -0.2079687215825005 [Eh]
	 SCS Opposite-Spin Energy  =      -2.3433013831588045 [Eh]
	 SCS Correlation Energy    =      -2.5512701047413051 [Eh]
	 SCS Total Energy          =    -557.0392178168900728 [Eh]
	-----------------------------------------------------------

  Dipole Moment: [D]
     X:    -0.5226      Y:     0.5403      Z:    -0.3526     Total:     0.8303

*** Psi4 exiting successfully. Buy a developer a beer!
