                               Psi4 1.4a3.dev225

  ==> Input File <==

--------------------------------------------------------------------------
#psi4
#
memory 32 gb

molecule  {
0 1
  N        0.5479400     1.1907050     0.2959170
  C       -0.7486070     0.6692540     0.1554050
  C        1.7310100     0.4560470     0.0875670
  C       -3.4043000    -0.2987570    -0.0204040
  C       -1.1184250    -0.5206800     0.8026630
  C       -1.7211190     1.3742660    -0.5666580
  C       -2.4232850    -0.9959770     0.6985600
  C       -3.0306900     0.9005340    -0.6374610
  C        2.9509580     1.0658110     0.4223950
  C        1.7399610    -0.8480750    -0.4298540
  C       -4.8245050    -0.7978720    -0.0796260
  C        4.1550680     0.3942430     0.2262330
  C        2.9515180    -1.5184900    -0.6042170
  C        4.1638000    -0.9089480    -0.2775300
  H        0.6439975     2.3673976     0.0097089
  H       -0.3846330    -1.0553430     1.4003190
  H       -1.4458780     2.2938080    -1.0816330
  H       -2.6884880    -1.9242290     1.2030750
  H       -3.7690390     1.4656370    -1.2045950
  H        2.9440570     2.0709610     0.8408760
  H        0.8089320    -1.3225020    -0.7243660
  H       -5.3342430    -0.4266360    -0.9733710
  H       -4.8571770    -1.8911150    -0.1016080
  H       -5.3999470    -0.4674270     0.7922980
  H        5.0892700     0.8861500     0.4875790
  H        2.9428240    -2.5277610    -1.0100830
  H        5.1022700    -1.4382830    -0.4191710
units angstrom
no_reorient  #important for SAPT in psi4, default
symmetry c1  #important for SAPT in psi4, default
}

set PROPERTIES_ORIGIN ["COM"]
properties('MP2/aug-cc-pvtz', properties = ['dipole'])
--------------------------------------------------------------------------

    Molecular point group: c1
  Charge       = 0
  Multiplicity = 1
  Basis Set: AUG-CC-PVTZ
    Blend: AUG-CC-PVTZ
  Basis Set: (AUG-CC-PVTZ AUX)
    Blend: AUG-CC-PVTZ-JKFIT

    Orbital Energies [Eh]
    ---------------------

    Doubly Occupied:

       1A    -15.593608     2A    -11.282798     3A    -11.277907
       4A    -11.237461     5A    -11.236933     6A    -11.235744
       7A    -11.234517     8A    -11.233952     9A    -11.231894
      10A    -11.230178    11A    -11.228018    12A    -11.226096
      13A    -11.224137    14A    -11.222857    15A     -1.244833
      16A     -1.151471    17A     -1.124751    18A     -1.039627
      19A     -1.015094    20A     -1.010394    21A     -0.985415
      22A     -0.917456    23A     -0.839196    24A     -0.829019
      25A     -0.815889    26A     -0.779280    27A     -0.712410
      28A     -0.681568    29A     -0.664135    30A     -0.639840
      31A     -0.633105    32A     -0.617256    33A     -0.594215
      34A     -0.584914    35A     -0.582026    36A     -0.574998
      37A     -0.572432    38A     -0.543749    39A     -0.529609
      40A     -0.512759    41A     -0.500823    42A     -0.493792
      43A     -0.489012    44A     -0.484185    45A     -0.440584
      46A     -0.340038    47A     -0.335417    48A     -0.329761
      49A     -0.274362

  @DF-RHF Final Energy:  -554.46068613617069

   => Energetics <=

    Nuclear Repulsion Energy =            786.1975664934651604
    One-Electron Energy =               -2310.1574726416210979
    Two-Electron Energy =                 969.4992200119851304
    Total Energy =                       -554.4606861361706933
  Basis Set: (AUG-CC-PVTZ AUX)
    Blend: AUG-CC-PVTZ-RI
    Molecular point group: c1

    Geometry (in Angstrom), charge = 0, multiplicity = 1:

       Center              X                  Y                   Z               Mass
    ------------   -----------------  -----------------  -----------------  -----------------
         N            0.513360217499     1.177897855282     0.292194861485    14.003074004430
         C           -0.783186782501     0.656446855282     0.151682861485    12.000000000000
         C            1.696430217499     0.443239855282     0.083844861485    12.000000000000
         C           -3.438879782501    -0.311564144718    -0.024126138515    12.000000000000
         C           -1.153004782501    -0.533487144718     0.798940861485    12.000000000000
         C           -1.755698782501     1.361458855282    -0.570380138515    12.000000000000
         C           -2.457864782501    -1.008784144718     0.694837861485    12.000000000000
         C           -3.065269782501     0.887726855282    -0.641183138515    12.000000000000
         C            2.916378217499     1.053003855282     0.418672861485    12.000000000000
         C            1.705381217499    -0.860882144718    -0.433576138515    12.000000000000
         C           -4.859084782501    -0.810679144718    -0.083348138515    12.000000000000
         C            4.120488217499     0.381435855282     0.222510861485    12.000000000000
         C            2.916938217499    -1.531297144718    -0.607939138515    12.000000000000
         C            4.129220217499    -0.921755144718    -0.281252138515    12.000000000000
         H            0.609417717499     2.354590455282     0.005986761485     1.007825032230
         H           -0.419212782501    -1.068150144718     1.396596861485     1.007825032230
         H           -1.480457782501     2.281000855282    -1.085355138515     1.007825032230
         H           -2.723067782501    -1.937036144718     1.199352861485     1.007825032230
         H           -3.803618782501     1.452829855282    -1.208317138515     1.007825032230
         H            2.909477217499     2.058153855282     0.837153861485     1.007825032230
         H            0.774352217499    -1.335309144718    -0.728088138515     1.007825032230
         H           -5.368822782501    -0.439443144718    -0.977093138515     1.007825032230
         H           -4.891756782501    -1.903922144718    -0.105330138515     1.007825032230
         H           -5.434526782501    -0.480234144718     0.788575861485     1.007825032230
         H            5.054690217499     0.873342855282     0.483856861485     1.007825032230
         H            2.908244217499    -2.540568144718    -1.013805138515     1.007825032230
         H            5.067690217499    -1.451090144718    -0.422893138515     1.007825032230

  Basis Set: AUG-CC-PVTZ
    Blend: AUG-CC-PVTZ
  Basis Set: (AUG-CC-PVTZ AUX)
    Blend: AUG-CC-PVTZ-JKFIT
	 Reference Energy          =    -554.4606861361706933 [Eh]
	 Singles Energy            =      -0.0000000000000000 [Eh]
	 Same-Spin Energy          =      -0.6257073611994640 [Eh]
	 Opposite-Spin Energy      =      -1.9572766271238906 [Eh]
	 Correlation Energy        =      -2.5829839883233547 [Eh]
	 Total Energy              =    -557.0436701244940423 [Eh]

	 ================> DF-SCS-MP2 Energies <==================
	-----------------------------------------------------------
	 SCS Same-Spin Scale       =       0.3333333333333333 [-]
	 SCS Opposite-Spin Scale   =       1.2000000000000000 [-]
	 SCS Same-Spin Energy      =      -0.2085691203998213 [Eh]
	 SCS Opposite-Spin Energy  =      -2.3487319525486687 [Eh]
	 SCS Correlation Energy    =      -2.5573010729484902 [Eh]
	 SCS Total Energy          =    -557.0179872091191555 [Eh]
	-----------------------------------------------------------

  Dipole Moment: [D]
     X:    -0.6061      Y:     0.6922      Z:    -0.3672     Total:     0.9907

*** Psi4 exiting successfully. Buy a developer a beer!
