                               Psi4 1.4a3.dev225

  ==> Input File <==

--------------------------------------------------------------------------
#psi4
#
memory 32 gb

molecule  {
0 1
  N        0.5479400     1.1907050     0.2959170
  C       -0.8409192     0.6321275     0.1454008
  C        1.7310100     0.4560470     0.0875670
  C       -3.4043000    -0.2987570    -0.0204040
  C       -1.1184250    -0.5206800     0.8026630
  C       -1.7211190     1.3742660    -0.5666580
  C       -2.4232850    -0.9959770     0.6985600
  C       -3.0306900     0.9005340    -0.6374610
  C        2.9509580     1.0658110     0.4223950
  C        1.7399610    -0.8480750    -0.4298540
  C       -4.8245050    -0.7978720    -0.0796260
  C        4.1550680     0.3942430     0.2262330
  C        2.9515180    -1.5184900    -0.6042170
  C        4.1638000    -0.9089480    -0.2775300
  H        0.6281830     2.1736720     0.0568290
  H       -0.3846330    -1.0553430     1.4003190
  H       -1.4458780     2.2938080    -1.0816330
  H       -2.6884880    -1.9242290     1.2030750
  H       -3.7690390     1.4656370    -1.2045950
  H        2.9440570     2.0709610     0.8408760
  H        0.8089320    -1.3225020    -0.7243660
  H       -5.3342430    -0.4266360    -0.9733710
  H       -4.8571770    -1.8911150    -0.1016080
  H       -5.3999470    -0.4674270     0.7922980
  H        5.0892700     0.8861500     0.4875790
  H        2.9428240    -2.5277610    -1.0100830
  H        5.1022700    -1.4382830    -0.4191710
units angstrom
no_reorient  #important for SAPT in psi4, default
symmetry c1  #important for SAPT in psi4, default
}

set PROPERTIES_ORIGIN ["COM"]
properties('MP2/aug-cc-pvtz', properties = ['dipole'])
--------------------------------------------------------------------------

    Molecular point group: c1
  Charge       = 0
  Multiplicity = 1
  Basis Set: AUG-CC-PVTZ
    Blend: AUG-CC-PVTZ
  Basis Set: (AUG-CC-PVTZ AUX)
    Blend: AUG-CC-PVTZ-JKFIT

    Orbital Energies [Eh]
    ---------------------

    Doubly Occupied:

       1A    -15.568983     2A    -11.277696     3A    -11.274013
       4A    -11.240621     5A    -11.238312     6A    -11.237822
       7A    -11.234295     8A    -11.233807     9A    -11.233230
      10A    -11.230391    11A    -11.226202    12A    -11.223412
      13A    -11.221436    14A    -11.219874    15A     -1.235639
      16A     -1.160802    17A     -1.122827    18A     -1.047032
      19A     -1.025015    20A     -1.008010    21A     -0.982667
      22A     -0.924470    23A     -0.847053    24A     -0.824813
      25A     -0.812437    26A     -0.788059    27A     -0.705794
      28A     -0.694908    29A     -0.665712    30A     -0.641822
      31A     -0.637469    32A     -0.617241    33A     -0.599782
      34A     -0.592278    35A     -0.581526    36A     -0.578232
      37A     -0.572568    38A     -0.543960    39A     -0.529509
      40A     -0.510879    41A     -0.501627    42A     -0.499039
      43A     -0.493970    44A     -0.482601    45A     -0.436591
      46A     -0.344296    47A     -0.333827    48A     -0.333217
      49A     -0.279314

  @DF-RHF Final Energy:  -554.48067185324226

   => Energetics <=

    Nuclear Repulsion Energy =            787.4612278210116756
    One-Electron Energy =               -2312.6536359752144563
    Two-Electron Energy =                 970.7117363009606379
    Total Energy =                       -554.4806718532422565
  Basis Set: (AUG-CC-PVTZ AUX)
    Blend: AUG-CC-PVTZ-RI
    Molecular point group: c1

    Geometry (in Angstrom), charge = 0, multiplicity = 1:

       Center              X                  Y                   Z               Mass
    ------------   -----------------  -----------------  -----------------  -----------------
         N            0.519497056361     1.181397269340     0.292591145930    14.003074004430
         C           -0.869362143639     0.622819769340     0.142074945930    12.000000000000
         C            1.702567056361     0.446739269340     0.084241145930    12.000000000000
         C           -3.432742943639    -0.308064730660    -0.023729854070    12.000000000000
         C           -1.146867943639    -0.529987730660     0.799337145930    12.000000000000
         C           -1.749561943639     1.364958269340    -0.569983854070    12.000000000000
         C           -2.451727943639    -1.005284730660     0.695234145930    12.000000000000
         C           -3.059132943639     0.891226269340    -0.640786854070    12.000000000000
         C            2.922515056361     1.056503269340     0.419069145930    12.000000000000
         C            1.711518056361    -0.857382730660    -0.433179854070    12.000000000000
         C           -4.852947943639    -0.807179730660    -0.082951854070    12.000000000000
         C            4.126625056361     0.384935269340     0.222907145930    12.000000000000
         C            2.923075056361    -1.527797730660    -0.607542854070    12.000000000000
         C            4.135357056361    -0.918255730660    -0.280855854070    12.000000000000
         H            0.599740056361     2.164364269340     0.053503145930     1.007825032230
         H           -0.413075943639    -1.064650730660     1.396993145930     1.007825032230
         H           -1.474320943639     2.284500269340    -1.084958854070     1.007825032230
         H           -2.716930943639    -1.933536730660     1.199749145930     1.007825032230
         H           -3.797481943639     1.456329269340    -1.207920854070     1.007825032230
         H            2.915614056361     2.061653269340     0.837550145930     1.007825032230
         H            0.780489056361    -1.331809730660    -0.727691854070     1.007825032230
         H           -5.362685943639    -0.435943730660    -0.976696854070     1.007825032230
         H           -4.885619943639    -1.900422730660    -0.104933854070     1.007825032230
         H           -5.428389943639    -0.476734730660     0.788972145930     1.007825032230
         H            5.060827056361     0.876842269340     0.484253145930     1.007825032230
         H            2.914381056361    -2.537068730660    -1.013408854070     1.007825032230
         H            5.073827056361    -1.447590730660    -0.422496854070     1.007825032230

  Basis Set: AUG-CC-PVTZ
    Blend: AUG-CC-PVTZ
  Basis Set: (AUG-CC-PVTZ AUX)
    Blend: AUG-CC-PVTZ-JKFIT
	 Reference Energy          =    -554.4806718532422565 [Eh]
	 Singles Energy            =      -0.0000000000000000 [Eh]
	 Same-Spin Energy          =      -0.6234319136994989 [Eh]
	 Opposite-Spin Energy      =      -1.9523602420704673 [Eh]
	 Correlation Energy        =      -2.5757921557699661 [Eh]
	 Total Energy              =    -557.0564640090121884 [Eh]

	 ================> DF-SCS-MP2 Energies <==================
	-----------------------------------------------------------
	 SCS Same-Spin Scale       =       0.3333333333333333 [-]
	 SCS Opposite-Spin Scale   =       1.2000000000000000 [-]
	 SCS Same-Spin Energy      =      -0.2078106378998330 [Eh]
	 SCS Opposite-Spin Energy  =      -2.3428322904845609 [Eh]
	 SCS Correlation Energy    =      -2.5506429283843937 [Eh]
	 SCS Total Energy          =    -557.0313147816266337 [Eh]
	-----------------------------------------------------------

  Dipole Moment: [D]
     X:    -1.3867      Y:     0.5072      Z:    -0.3708     Total:     1.5224

*** Psi4 exiting successfully. Buy a developer a beer!
