                               Psi4 1.4a3.dev225

  ==> Input File <==

--------------------------------------------------------------------------
#psi4
#
memory 32 gb

molecule  {
0 1
  N        0.5479400     1.1907050     0.2959170
  C       -0.7486070     0.6692540     0.1554050
  C        1.7310100     0.4560470     0.0875670
  C       -3.4043000    -0.2987570    -0.0204040
  C       -1.1184250    -0.5206800     0.8026630
  C       -1.7211190     1.3742660    -0.5666580
  C       -2.4232850    -0.9959770     0.6985600
  C       -3.0306900     0.9005340    -0.6374610
  C        2.9509580     1.0658110     0.4223950
  C        1.7399610    -0.8480750    -0.4298540
  C       -4.8245050    -0.7978720    -0.0796260
  C        4.1550680     0.3942430     0.2262330
  C        2.9515180    -1.5184900    -0.6042170
  C        4.1638000    -0.9089480    -0.2775300
  H        0.6281830     2.1736720     0.0568290
  H       -0.3846330    -1.0553430     1.4003190
  H       -1.4458780     2.2938080    -1.0816330
  H       -2.6884880    -1.9242290     1.2030750
  H       -3.7690390     1.4656370    -1.2045950
  H        2.9440570     2.0709610     0.8408760
  H        0.8089320    -1.3225020    -0.7243660
  H       -5.3342430    -0.4266360    -0.9733710
  H       -4.8586703    -1.9410826    -0.1026127
  H       -5.3999470    -0.4674270     0.7922980
  H        5.0892700     0.8861500     0.4875790
  H        2.9428240    -2.5277610    -1.0100830
  H        5.1022700    -1.4382830    -0.4191710
units angstrom
no_reorient  #important for SAPT in psi4, default
symmetry c1  #important for SAPT in psi4, default
}

set PROPERTIES_ORIGIN ["COM"]
properties('MP2/aug-cc-pvtz', properties = ['dipole'])
--------------------------------------------------------------------------

    Molecular point group: c1
  Charge       = 0
  Multiplicity = 1
  Basis Set: AUG-CC-PVTZ
    Blend: AUG-CC-PVTZ
  Basis Set: (AUG-CC-PVTZ AUX)
    Blend: AUG-CC-PVTZ-JKFIT

    Orbital Energies [Eh]
    ---------------------

    Doubly Occupied:

       1A    -15.577449     2A    -11.282711     3A    -11.277596
       4A    -11.237944     5A    -11.237237     6A    -11.236639
       7A    -11.235201     8A    -11.234446     9A    -11.232822
      10A    -11.230164    11A    -11.229174    12A    -11.228673
      13A    -11.226132    14A    -11.224512    15A     -1.258346
      16A     -1.152004    17A     -1.128329    18A     -1.040105
      19A     -1.016048    20A     -1.010810    21A     -0.988932
      22A     -0.918971    23A     -0.842800    24A     -0.829570
      25A     -0.816551    26A     -0.785102    27A     -0.713300
      28A     -0.704153    29A     -0.668405    30A     -0.640434
      31A     -0.634492    32A     -0.619097    33A     -0.597550
      34A     -0.587892    35A     -0.585266    36A     -0.582457
      37A     -0.571148    38A     -0.543838    39A     -0.527170
      40A     -0.513517    41A     -0.501536    42A     -0.493875
      43A     -0.489867    44A     -0.486016    45A     -0.441893
      46A     -0.340438    47A     -0.335828    48A     -0.331021
      49A     -0.275886

  @DF-RHF Final Energy:  -554.48874858729596

   => Energetics <=

    Nuclear Repulsion Energy =            787.1306854906648596
    One-Electron Energy =               -2311.9121706079049545
    Two-Electron Energy =                 970.2927365299442499
    Total Energy =                       -554.4887485872959587
  Basis Set: (AUG-CC-PVTZ AUX)
    Blend: AUG-CC-PVTZ-RI
    Molecular point group: c1

    Geometry (in Angstrom), charge = 0, multiplicity = 1:

       Center              X                  Y                   Z               Mass
    ------------   -----------------  -----------------  -----------------  -----------------
         N            0.513455481163     1.179239164237     0.291941038240    14.003074004430
         C           -0.783091518837     0.657788164237     0.151429038240    12.000000000000
         C            1.696525481163     0.444581164237     0.083591038240    12.000000000000
         C           -3.438784518837    -0.310222835763    -0.024379961760    12.000000000000
         C           -1.152909518837    -0.532145835763     0.798687038240    12.000000000000
         C           -1.755603518837     1.362800164237    -0.570633961760    12.000000000000
         C           -2.457769518837    -1.007442835763     0.694584038240    12.000000000000
         C           -3.065174518837     0.889068164237    -0.641436961760    12.000000000000
         C            2.916473481163     1.054345164237     0.418419038240    12.000000000000
         C            1.705476481163    -0.859540835763    -0.433829961760    12.000000000000
         C           -4.858989518837    -0.809337835763    -0.083601961760    12.000000000000
         C            4.120583481163     0.382777164237     0.222257038240    12.000000000000
         C            2.917033481163    -1.529955835763    -0.608192961760    12.000000000000
         C            4.129315481163    -0.920413835763    -0.281505961760    12.000000000000
         H            0.593698481163     2.162206164237     0.052853038240     1.007825032230
         H           -0.419117518837    -1.066808835763     1.396343038240     1.007825032230
         H           -1.480362518837     2.282342164237    -1.085608961760     1.007825032230
         H           -2.722972518837    -1.935694835763     1.199099038240     1.007825032230
         H           -3.803523518837     1.454171164237    -1.208570961760     1.007825032230
         H            2.909572481163     2.059495164237     0.836900038240     1.007825032230
         H            0.774447481163    -1.333967835763    -0.728341961760     1.007825032230
         H           -5.368727518837    -0.438101835763    -0.977346961760     1.007825032230
         H           -4.893154818837    -1.952548435763    -0.106588661760     1.007825032230
         H           -5.434431518837    -0.478892835763     0.788322038240     1.007825032230
         H            5.054785481163     0.874684164237     0.483603038240     1.007825032230
         H            2.908339481163    -2.539226835763    -1.014058961760     1.007825032230
         H            5.067785481163    -1.449748835763    -0.423146961760     1.007825032230

  Basis Set: AUG-CC-PVTZ
    Blend: AUG-CC-PVTZ
  Basis Set: (AUG-CC-PVTZ AUX)
    Blend: AUG-CC-PVTZ-JKFIT
	 Reference Energy          =    -554.4887485872959587 [Eh]
	 Singles Energy            =      -0.0000000000000000 [Eh]
	 Same-Spin Energy          =      -0.6239202577112271 [Eh]
	 Opposite-Spin Energy      =      -1.9530044647089695 [Eh]
	 Correlation Energy        =      -2.5769247224201965 [Eh]
	 Total Energy              =    -557.0656733097162032 [Eh]

	 ================> DF-SCS-MP2 Energies <==================
	-----------------------------------------------------------
	 SCS Same-Spin Scale       =       0.3333333333333333 [-]
	 SCS Opposite-Spin Scale   =       1.2000000000000000 [-]
	 SCS Same-Spin Energy      =      -0.2079734192370757 [Eh]
	 SCS Opposite-Spin Energy  =      -2.3436053576507634 [Eh]
	 SCS Correlation Energy    =      -2.5515787768878391 [Eh]
	 SCS Total Energy          =    -557.0403273641837814 [Eh]
	-----------------------------------------------------------

  Dipole Moment: [D]
     X:    -0.6139      Y:     0.6053      Z:    -0.3402     Total:     0.9268

*** Psi4 exiting successfully. Buy a developer a beer!
