                               Psi4 1.4a3.dev225

  ==> Input File <==

--------------------------------------------------------------------------
#psi4
#
memory 32 gb

molecule  {
0 1
  N        0.5479400     1.1907050     0.2959170
  C       -0.7486070     0.6692540     0.1554050
  C        1.7310100     0.4560470     0.0875670
  C       -3.4043000    -0.2987570    -0.0204040
  C       -1.1184250    -0.5206800     0.8026630
  C       -1.7211190     1.3742660    -0.5666580
  C       -2.4232850    -0.9959770     0.6985600
  C       -3.0306900     0.9005340    -0.6374610
  C        2.9509580     1.0658110     0.4223950
  C        1.7399610    -0.8480750    -0.4298540
  C       -4.8245050    -0.7978720    -0.0796260
  C        4.1550680     0.3942430     0.2262330
  C        2.9515180    -1.5184900    -0.6042170
  C        4.1638000    -0.9089480    -0.2775300
  H        0.6281830     2.1736720     0.0568290
  H       -0.4521409    -1.0061547     1.3453354
  H       -1.4458780     2.2938080    -1.0816330
  H       -2.6884880    -1.9242290     1.2030750
  H       -3.7690390     1.4656370    -1.2045950
  H        2.9440570     2.0709610     0.8408760
  H        0.8089320    -1.3225020    -0.7243660
  H       -5.3342430    -0.4266360    -0.9733710
  H       -4.8571770    -1.8911150    -0.1016080
  H       -5.3999470    -0.4674270     0.7922980
  H        5.0892700     0.8861500     0.4875790
  H        2.9428240    -2.5277610    -1.0100830
  H        5.1022700    -1.4382830    -0.4191710
units angstrom
no_reorient  #important for SAPT in psi4, default
symmetry c1  #important for SAPT in psi4, default
}

set PROPERTIES_ORIGIN ["COM"]
properties('MP2/aug-cc-pvtz', properties = ['dipole'])
--------------------------------------------------------------------------

    Molecular point group: c1
  Charge       = 0
  Multiplicity = 1
  Basis Set: AUG-CC-PVTZ
    Blend: AUG-CC-PVTZ
  Basis Set: (AUG-CC-PVTZ AUX)
    Blend: AUG-CC-PVTZ-JKFIT

    Orbital Energies [Eh]
    ---------------------

    Doubly Occupied:

       1A    -15.577373     2A    -11.282852     3A    -11.276579
       4A    -11.238096     5A    -11.237430     6A    -11.235722
       7A    -11.234497     8A    -11.233593     9A    -11.232028
      10A    -11.228754    11A    -11.226345    12A    -11.224613
      13A    -11.222839    14A    -11.218397    15A     -1.258386
      16A     -1.152058    17A     -1.128319    18A     -1.041143
      19A     -1.018571    20A     -1.011654    21A     -0.989585
      22A     -0.921350    23A     -0.845670    24A     -0.831902
      25A     -0.816945    26A     -0.788644    27A     -0.714466
      28A     -0.703986    29A     -0.670974    30A     -0.649450
      31A     -0.635097    32A     -0.619968    33A     -0.598096
      34A     -0.589448    35A     -0.587144    36A     -0.583351
      37A     -0.573158    38A     -0.546362    39A     -0.530543
      40A     -0.513567    41A     -0.501561    42A     -0.494652
      43A     -0.491088    44A     -0.487555    45A     -0.441828
      46A     -0.340190    47A     -0.335781    48A     -0.330831
      49A     -0.275699

  @DF-RHF Final Energy:  -554.48518349877270

   => Energetics <=

    Nuclear Repulsion Energy =            787.8445614173454032
    One-Electron Energy =               -2313.2832094438062995
    Two-Electron Energy =                 970.9534645276881974
    Total Energy =                       -554.4851834987726988
  Basis Set: (AUG-CC-PVTZ AUX)
    Blend: AUG-CC-PVTZ-RI
    Molecular point group: c1

    Geometry (in Angstrom), charge = 0, multiplicity = 1:

       Center              X                  Y                   Z               Mass
    ------------   -----------------  -----------------  -----------------  -----------------
         N            0.513818831368     1.178693401382     0.292238142886    14.003074004430
         C           -0.782728168632     0.657242401382     0.151726142886    12.000000000000
         C            1.696888831368     0.444035401382     0.083888142886    12.000000000000
         C           -3.438421168632    -0.310768598618    -0.024082857114    12.000000000000
         C           -1.152546168632    -0.532691598618     0.798984142886    12.000000000000
         C           -1.755240168632     1.362254401382    -0.570336857114    12.000000000000
         C           -2.457406168632    -1.007988598618     0.694881142886    12.000000000000
         C           -3.064811168632     0.888522401382    -0.641139857114    12.000000000000
         C            2.916836831368     1.053799401382     0.418716142886    12.000000000000
         C            1.705839831368    -0.860086598618    -0.433532857114    12.000000000000
         C           -4.858626168632    -0.809883598618    -0.083304857114    12.000000000000
         C            4.120946831368     0.382231401382     0.222554142886    12.000000000000
         C            2.917396831368    -1.530501598618    -0.607895857114    12.000000000000
         C            4.129678831368    -0.920959598618    -0.281208857114    12.000000000000
         H            0.594061831368     2.161660401382     0.053150142886     1.007825032230
         H           -0.486262068632    -1.018166298618     1.341656542886     1.007825032230
         H           -1.479999168632     2.281796401382    -1.085311857114     1.007825032230
         H           -2.722609168632    -1.936240598618     1.199396142886     1.007825032230
         H           -3.803160168632     1.453625401382    -1.208273857114     1.007825032230
         H            2.909935831368     2.058949401382     0.837197142886     1.007825032230
         H            0.774810831368    -1.334513598618    -0.728044857114     1.007825032230
         H           -5.368364168632    -0.438647598618    -0.977049857114     1.007825032230
         H           -4.891298168632    -1.903126598618    -0.105286857114     1.007825032230
         H           -5.434068168632    -0.479438598618     0.788619142886     1.007825032230
         H            5.055148831368     0.874138401382     0.483900142886     1.007825032230
         H            2.908702831368    -2.539772598618    -1.013761857114     1.007825032230
         H            5.068148831368    -1.450294598618    -0.422849857114     1.007825032230

  Basis Set: AUG-CC-PVTZ
    Blend: AUG-CC-PVTZ
  Basis Set: (AUG-CC-PVTZ AUX)
    Blend: AUG-CC-PVTZ-JKFIT
	 Reference Energy          =    -554.4851834987726988 [Eh]
	 Singles Energy            =      -0.0000000000000000 [Eh]
	 Same-Spin Energy          =      -0.6236527954542926 [Eh]
	 Opposite-Spin Energy      =      -1.9520632384763392 [Eh]
	 Correlation Energy        =      -2.5757160339306320 [Eh]
	 Total Energy              =    -557.0608995327032744 [Eh]

	 ================> DF-SCS-MP2 Energies <==================
	-----------------------------------------------------------
	 SCS Same-Spin Scale       =       0.3333333333333333 [-]
	 SCS Opposite-Spin Scale   =       1.2000000000000000 [-]
	 SCS Same-Spin Energy      =      -0.2078842651514309 [Eh]
	 SCS Opposite-Spin Energy  =      -2.3424758861716071 [Eh]
	 SCS Correlation Energy    =      -2.5503601513230381 [Eh]
	 SCS Total Energy          =    -557.0355436500957467 [Eh]
	-----------------------------------------------------------

  Dipole Moment: [D]
     X:    -0.6119      Y:     0.5752      Z:    -0.3349     Total:     0.9042

*** Psi4 exiting successfully. Buy a developer a beer!
