                               Psi4 1.4a3.dev225

  ==> Input File <==

--------------------------------------------------------------------------
#psi4
#
memory 32 gb

molecule  {
0 1
  N        0.5479400     1.1907050     0.2959170
  C       -0.7486070     0.6692540     0.1554050
  C        1.7310100     0.4560470     0.0875670
  C       -3.4043000    -0.2987570    -0.0204040
  C       -1.1184250    -0.5206800     0.8026630
  C       -1.7211190     1.3742660    -0.5666580
  C       -2.4232850    -0.9959770     0.6985600
  C       -3.0306900     0.9005340    -0.6374610
  C        2.9509580     1.0658110     0.4223950
  C        1.7399610    -0.8480750    -0.4298540
  C       -4.8245050    -0.7978720    -0.0796260
  C        4.1550680     0.3942430     0.2262330
  C        2.9515180    -1.5184900    -0.6042170
  C        4.1638000    -0.9089480    -0.2775300
  H        0.6123685     1.9799464     0.1039491
  H       -0.3846330    -1.0553430     1.4003190
  H       -1.4458780     2.2938080    -1.0816330
  H       -2.6884880    -1.9242290     1.2030750
  H       -3.7690390     1.4656370    -1.2045950
  H        2.9440570     2.0709610     0.8408760
  H        0.8089320    -1.3225020    -0.7243660
  H       -5.3342430    -0.4266360    -0.9733710
  H       -4.8571770    -1.8911150    -0.1016080
  H       -5.3999470    -0.4674270     0.7922980
  H        5.0892700     0.8861500     0.4875790
  H        2.9428240    -2.5277610    -1.0100830
  H        5.1022700    -1.4382830    -0.4191710
units angstrom
no_reorient  #important for SAPT in psi4, default
symmetry c1  #important for SAPT in psi4, default
}

set PROPERTIES_ORIGIN ["COM"]
properties('MP2/aug-cc-pvtz', properties = ['dipole'])
--------------------------------------------------------------------------

    Molecular point group: c1
  Charge       = 0
  Multiplicity = 1
  Basis Set: AUG-CC-PVTZ
    Blend: AUG-CC-PVTZ
  Basis Set: (AUG-CC-PVTZ AUX)
    Blend: AUG-CC-PVTZ-JKFIT

    Orbital Energies [Eh]
    ---------------------

    Doubly Occupied:

       1A    -15.555281     2A    -11.282636     3A    -11.277197
       4A    -11.238388     5A    -11.237594     6A    -11.236792
       7A    -11.235269     8A    -11.234547     9A    -11.233353
      10A    -11.230258    11A    -11.229513    12A    -11.226617
      13A    -11.225252    14A    -11.223518    15A     -1.286210
      16A     -1.152500    17A     -1.134085    18A     -1.042670
      19A     -1.017415    20A     -1.011250    21A     -0.997036
      22A     -0.928349    23A     -0.849704    24A     -0.830628
      25A     -0.818636    26A     -0.796381    27A     -0.731427
      28A     -0.713683    29A     -0.670091    30A     -0.640964
      31A     -0.637031    32A     -0.621062    33A     -0.602696
      34A     -0.591771    35A     -0.585622    36A     -0.582815
      37A     -0.573739    38A     -0.547232    39A     -0.531594
      40A     -0.513899    41A     -0.501918    42A     -0.495891
      43A     -0.490476    44A     -0.486896    45A     -0.443769
      46A     -0.340635    47A     -0.336149    48A     -0.332187
      49A     -0.277780

  @DF-RHF Final Energy:  -554.44774814687332

   => Energetics <=

    Nuclear Repulsion Energy =            788.7958161203470127
    One-Electron Energy =               -2314.9263165911156648
    Two-Electron Energy =                 971.6827523238954427
    Total Energy =                       -554.4477481468733231
  Basis Set: (AUG-CC-PVTZ AUX)
    Blend: AUG-CC-PVTZ-RI
    Molecular point group: c1

    Geometry (in Angstrom), charge = 0, multiplicity = 1:

       Center              X                  Y                   Z               Mass
    ------------   -----------------  -----------------  -----------------  -----------------
         N            0.513534306316     1.180030421001     0.291676155078    14.003074004430
         C           -0.783012693684     0.658579421001     0.151164155078    12.000000000000
         C            1.696604306316     0.445372421001     0.083326155078    12.000000000000
         C           -3.438705693684    -0.309431578999    -0.024644844922    12.000000000000
         C           -1.152830693684    -0.531354578999     0.798422155078    12.000000000000
         C           -1.755524693684     1.363591421001    -0.570898844922    12.000000000000
         C           -2.457690693684    -1.006651578999     0.694319155078    12.000000000000
         C           -3.065095693684     0.889859421001    -0.641701844922    12.000000000000
         C            2.916552306316     1.055136421001     0.418154155078    12.000000000000
         C            1.705555306316    -0.858749578999    -0.434094844922    12.000000000000
         C           -4.858910693684    -0.808546578999    -0.083866844922    12.000000000000
         C            4.120662306316     0.383568421001     0.221992155078    12.000000000000
         C            2.917112306316    -1.529164578999    -0.608457844922    12.000000000000
         C            4.129394306316    -0.919622578999    -0.281770844922    12.000000000000
         H            0.577962806316     1.969271821001     0.099708255078     1.007825032230
         H           -0.419038693684    -1.066017578999     1.396078155078     1.007825032230
         H           -1.480283693684     2.283133421001    -1.085873844922     1.007825032230
         H           -2.722893693684    -1.934903578999     1.198834155078     1.007825032230
         H           -3.803444693684     1.454962421001    -1.208835844922     1.007825032230
         H            2.909651306316     2.060286421001     0.836635155078     1.007825032230
         H            0.774526306316    -1.333176578999    -0.728606844922     1.007825032230
         H           -5.368648693684    -0.437310578999    -0.977611844922     1.007825032230
         H           -4.891582693684    -1.901789578999    -0.105848844922     1.007825032230
         H           -5.434352693684    -0.478101578999     0.788057155078     1.007825032230
         H            5.054864306316     0.875475421001     0.483338155078     1.007825032230
         H            2.908418306316    -2.538435578999    -1.014323844922     1.007825032230
         H            5.067864306316    -1.448957578999    -0.423411844922     1.007825032230

  Basis Set: AUG-CC-PVTZ
    Blend: AUG-CC-PVTZ
  Basis Set: (AUG-CC-PVTZ AUX)
    Blend: AUG-CC-PVTZ-JKFIT
	 Reference Energy          =    -554.4477481468733231 [Eh]
	 Singles Energy            =      -0.0000000000000000 [Eh]
	 Same-Spin Energy          =      -0.6223951807571397 [Eh]
	 Opposite-Spin Energy      =      -1.9494649640124464 [Eh]
	 Correlation Energy        =      -2.5718601447695861 [Eh]
	 Total Energy              =    -557.0196082916429532 [Eh]

	 ================> DF-SCS-MP2 Energies <==================
	-----------------------------------------------------------
	 SCS Same-Spin Scale       =       0.3333333333333333 [-]
	 SCS Opposite-Spin Scale   =       1.2000000000000000 [-]
	 SCS Same-Spin Energy      =      -0.2074650602523799 [Eh]
	 SCS Opposite-Spin Energy  =      -2.3393579568149354 [Eh]
	 SCS Correlation Energy    =      -2.5468230170673154 [Eh]
	 SCS Total Energy          =    -556.9945711639406909 [Eh]
	-----------------------------------------------------------

  Dipole Moment: [D]
     X:    -0.6380      Y:     0.4277      Z:    -0.3206     Total:     0.8323

*** Psi4 exiting successfully. Buy a developer a beer!
