                               Psi4 1.4a3.dev225

  ==> Input File <==

--------------------------------------------------------------------------
#psi4
#
memory 32 gb

molecule  {
0 1
  N        0.5479400     1.1907050     0.2959170
  C       -0.7486070     0.6692540     0.1554050
  C        1.7310100     0.4560470     0.0875670
  C       -3.4043000    -0.2987570    -0.0204040
  C       -1.1184250    -0.5206800     0.8026630
  C       -1.7211190     1.3742660    -0.5666580
  C       -2.4232850    -0.9959770     0.6985600
  C       -3.0306900     0.9005340    -0.6374610
  C        2.9509580     1.0658110     0.4223950
  C        1.7399610    -0.8480750    -0.4298540
  C       -4.8245050    -0.7978720    -0.0796260
  C        4.0686038     0.4424667     0.2403189
  C        2.9515180    -1.5184900    -0.6042170
  C        4.1638000    -0.9089480    -0.2775300
  H        0.6281830     2.1736720     0.0568290
  H       -0.3846330    -1.0553430     1.4003190
  H       -1.4458780     2.2938080    -1.0816330
  H       -2.6884880    -1.9242290     1.2030750
  H       -3.7690390     1.4656370    -1.2045950
  H        2.9440570     2.0709610     0.8408760
  H        0.8089320    -1.3225020    -0.7243660
  H       -5.3342430    -0.4266360    -0.9733710
  H       -4.8571770    -1.8911150    -0.1016080
  H       -5.3999470    -0.4674270     0.7922980
  H        5.0892700     0.8861500     0.4875790
  H        2.9428240    -2.5277610    -1.0100830
  H        5.1022700    -1.4382830    -0.4191710
units angstrom
no_reorient  #important for SAPT in psi4, default
symmetry c1  #important for SAPT in psi4, default
}

set PROPERTIES_ORIGIN ["COM"]
properties('MP2/aug-cc-pvtz', properties = ['dipole'])
--------------------------------------------------------------------------

    Molecular point group: c1
  Charge       = 0
  Multiplicity = 1
  Basis Set: AUG-CC-PVTZ
    Blend: AUG-CC-PVTZ
  Basis Set: (AUG-CC-PVTZ AUX)
    Blend: AUG-CC-PVTZ-JKFIT

    Orbital Energies [Eh]
    ---------------------

    Doubly Occupied:

       1A    -15.578938     2A    -11.283803     3A    -11.277647
       4A    -11.236543     5A    -11.235634     6A    -11.235553
       7A    -11.235055     8A    -11.234423     9A    -11.233053
      10A    -11.230341    11A    -11.227101    12A    -11.223368
      13A    -11.222463    14A    -11.219204    15A     -1.259522
      16A     -1.155192    17A     -1.131316    18A     -1.040016
      19A     -1.024712    20A     -1.014188    21A     -0.984122
      22A     -0.922491    23A     -0.841235    24A     -0.830344
      25A     -0.815178    26A     -0.785031    27A     -0.712356
      28A     -0.704953    29A     -0.669405    30A     -0.641081
      31A     -0.634110    32A     -0.621995    33A     -0.593286
      34A     -0.588688    35A     -0.584720    36A     -0.580655
      37A     -0.573442    38A     -0.547698    39A     -0.532146
      40A     -0.521457    41A     -0.501370    42A     -0.496829
      43A     -0.486720    44A     -0.472233    45A     -0.441384
      46A     -0.351269    47A     -0.338679    48A     -0.327102
      49A     -0.273337

  @DF-RHF Final Energy:  -554.47754409678032

   => Energetics <=

    Nuclear Repulsion Energy =            788.6738962029262439
    One-Electron Energy =               -2314.9601097734048381
    Two-Electron Energy =                 971.8086694736982736
    Total Energy =                       -554.4775440967803206
  Basis Set: (AUG-CC-PVTZ AUX)
    Blend: AUG-CC-PVTZ-RI
    Molecular point group: c1

    Geometry (in Angstrom), charge = 0, multiplicity = 1:

       Center              X                  Y                   Z               Mass
    ------------   -----------------  -----------------  -----------------  -----------------
         N            0.519113800432     1.175803738186     0.291012371365    14.003074004430
         C           -0.777433199568     0.654352738186     0.150500371365    12.000000000000
         C            1.702183800432     0.441145738186     0.082662371365    12.000000000000
         C           -3.433126199568    -0.313658261814    -0.025308628635    12.000000000000
         C           -1.147251199568    -0.535581261814     0.797758371365    12.000000000000
         C           -1.749945199568     1.359364738186    -0.571562628635    12.000000000000
         C           -2.452111199568    -1.010878261814     0.693655371365    12.000000000000
         C           -3.059516199568     0.885632738186    -0.642365628635    12.000000000000
         C            2.922131800432     1.050909738186     0.417490371365    12.000000000000
         C            1.711134800432    -0.862976261814    -0.434758628635    12.000000000000
         C           -4.853331199568    -0.812773261814    -0.084530628635    12.000000000000
         C            4.039777600432     0.427565438186     0.235414271365    12.000000000000
         C            2.922691800432    -1.533391261814    -0.609121628635    12.000000000000
         C            4.134973800432    -0.923849261814    -0.282434628635    12.000000000000
         H            0.599356800432     2.158770738186     0.051924371365     1.007825032230
         H           -0.413459199568    -1.070244261814     1.395414371365     1.007825032230
         H           -1.474704199568     2.278906738186    -1.086537628635     1.007825032230
         H           -2.717314199568    -1.939130261814     1.198170371365     1.007825032230
         H           -3.797865199568     1.450735738186    -1.209499628635     1.007825032230
         H            2.915230800432     2.056059738186     0.835971371365     1.007825032230
         H            0.780105800432    -1.337403261814    -0.729270628635     1.007825032230
         H           -5.363069199568    -0.441537261814    -0.978275628635     1.007825032230
         H           -4.886003199568    -1.906016261814    -0.106512628635     1.007825032230
         H           -5.428773199568    -0.482328261814     0.787393371365     1.007825032230
         H            5.060443800432     0.871248738186     0.482674371365     1.007825032230
         H            2.913997800432    -2.542662261814    -1.014987628635     1.007825032230
         H            5.073443800432    -1.453184261814    -0.424075628635     1.007825032230

  Basis Set: AUG-CC-PVTZ
    Blend: AUG-CC-PVTZ
  Basis Set: (AUG-CC-PVTZ AUX)
    Blend: AUG-CC-PVTZ-JKFIT
	 Reference Energy          =    -554.4775440967803206 [Eh]
	 Singles Energy            =      -0.0000000000000000 [Eh]
	 Same-Spin Energy          =      -0.6236842531036390 [Eh]
	 Opposite-Spin Energy      =      -1.9528411585111034 [Eh]
	 Correlation Energy        =      -2.5765254116147425 [Eh]
	 Total Energy              =    -557.0540695083950595 [Eh]

	 ================> DF-SCS-MP2 Energies <==================
	-----------------------------------------------------------
	 SCS Same-Spin Scale       =       0.3333333333333333 [-]
	 SCS Opposite-Spin Scale   =       1.2000000000000000 [-]
	 SCS Same-Spin Energy      =      -0.2078947510345463 [Eh]
	 SCS Opposite-Spin Energy  =      -2.3434093902133242 [Eh]
	 SCS Correlation Energy    =      -2.5513041412478703 [Eh]
	 SCS Total Energy          =    -557.0288482380282176 [Eh]
	-----------------------------------------------------------

  Dipole Moment: [D]
     X:    -0.6904      Y:     0.6079      Z:    -0.3291     Total:     0.9769

*** Psi4 exiting successfully. Buy a developer a beer!
