                               Psi4 1.4a3.dev225

  ==> Input File <==

--------------------------------------------------------------------------
#psi4
#
memory 32 gb

molecule  {
0 1
  N        0.5479400     1.1907050     0.2959170
  C       -0.7486070     0.6692540     0.1554050
  C        1.7310100     0.4560470     0.0875670
  C       -3.4043000    -0.2987570    -0.0204040
  C       -1.1184250    -0.5206800     0.8026630
  C       -1.7211190     1.3742660    -0.5666580
  C       -2.4232850    -0.9959770     0.6985600
  C       -3.0306900     0.9005340    -0.6374610
  C        2.9509580     1.0658110     0.4223950
  C        1.7399610    -0.8480750    -0.4298540
  C       -4.8245050    -0.7978720    -0.0796260
  C        4.1550680     0.3942430     0.2262330
  C        2.9515180    -1.5184900    -0.6042170
  C        4.1638000    -0.9089480    -0.2775300
  H        0.6281830     2.1736720     0.0568290
  H       -0.3846330    -1.0553430     1.4003190
  H       -1.4458780     2.2938080    -1.0816330
  H       -2.6884880    -1.9242290     1.2030750
  H       -3.7690390     1.4656370    -1.2045950
  H        2.9427894     2.2555943     0.9177456
  H        0.8089320    -1.3225020    -0.7243660
  H       -5.3342430    -0.4266360    -0.9733710
  H       -4.8571770    -1.8911150    -0.1016080
  H       -5.3999470    -0.4674270     0.7922980
  H        5.0892700     0.8861500     0.4875790
  H        2.9428240    -2.5277610    -1.0100830
  H        5.1022700    -1.4382830    -0.4191710
units angstrom
no_reorient  #important for SAPT in psi4, default
symmetry c1  #important for SAPT in psi4, default
}

set PROPERTIES_ORIGIN ["COM"]
properties('MP2/aug-cc-pvtz', properties = ['dipole'])
--------------------------------------------------------------------------

    Molecular point group: c1
  Charge       = 0
  Multiplicity = 1
  Basis Set: AUG-CC-PVTZ
    Blend: AUG-CC-PVTZ
  Basis Set: (AUG-CC-PVTZ AUX)
    Blend: AUG-CC-PVTZ-JKFIT

    Orbital Energies [Eh]
    ---------------------

    Doubly Occupied:

       1A    -15.577233     2A    -11.285426     3A    -11.277394
       4A    -11.250573     5A    -11.240363     6A    -11.238480
       7A    -11.236301     8A    -11.234936     9A    -11.234338
      10A    -11.232650    11A    -11.230147    12A    -11.228004
      13A    -11.226356    14A    -11.223229    15A     -1.258257
      16A     -1.152242    17A     -1.129088    18A     -1.040772
      19A     -1.015711    20A     -1.009299    21A     -0.989266
      22A     -0.921428    23A     -0.841107    24A     -0.829942
      25A     -0.811932    26A     -0.785782    27A     -0.712082
      28A     -0.702161    29A     -0.661675    30A     -0.639587
      31A     -0.633192    32A     -0.619329    33A     -0.597303
      34A     -0.587868    35A     -0.583812    36A     -0.573618
      37A     -0.568260    38A     -0.544351    39A     -0.531091
      40A     -0.513701    41A     -0.498356    42A     -0.495353
      43A     -0.486795    44A     -0.480155    45A     -0.442404
      46A     -0.341053    47A     -0.336788    48A     -0.331845
      49A     -0.276412

  @DF-RHF Final Energy:  -554.46878365803343

   => Energetics <=

    Nuclear Repulsion Energy =            786.4043525657082228
    One-Electron Energy =               -2310.4313758822690943
    Two-Electron Energy =                 969.5582396585274410
    Total Energy =                       -554.4687836580334306
  Basis Set: (AUG-CC-PVTZ AUX)
    Blend: AUG-CC-PVTZ-RI
    Molecular point group: c1

    Geometry (in Angstrom), charge = 0, multiplicity = 1:

       Center              X                  Y                   Z               Mass
    ------------   -----------------  -----------------  -----------------  -----------------
         N            0.513454238890     1.177947900107     0.291512411196    14.003074004430
         C           -0.783092761110     0.656496900107     0.151000411196    12.000000000000
         C            1.696524238890     0.443289900107     0.083162411196    12.000000000000
         C           -3.438785761110    -0.311514099893    -0.024808588804    12.000000000000
         C           -1.152910761110    -0.533437099893     0.798258411196    12.000000000000
         C           -1.755604761110     1.361508900107    -0.571062588804    12.000000000000
         C           -2.457770761110    -1.008734099893     0.694155411196    12.000000000000
         C           -3.065175761110     0.887776900107    -0.641865588804    12.000000000000
         C            2.916472238890     1.053053900107     0.417990411196    12.000000000000
         C            1.705475238890    -0.860832099893    -0.434258588804    12.000000000000
         C           -4.858990761110    -0.810629099893    -0.084030588804    12.000000000000
         C            4.120582238890     0.381485900107     0.221828411196    12.000000000000
         C            2.917032238890    -1.531247099893    -0.608621588804    12.000000000000
         C            4.129314238890    -0.921705099893    -0.281934588804    12.000000000000
         H            0.593697238890     2.160914900107     0.052424411196     1.007825032230
         H           -0.419118761110    -1.068100099893     1.395914411196     1.007825032230
         H           -1.480363761110     2.281050900107    -1.086037588804     1.007825032230
         H           -2.722973761110    -1.936986099893     1.198670411196     1.007825032230
         H           -3.803524761110     1.452879900107    -1.208999588804     1.007825032230
         H            2.908303638890     2.242837200107     0.913341011196     1.007825032230
         H            0.774446238890    -1.335259099893    -0.728770588804     1.007825032230
         H           -5.368728761110    -0.439393099893    -0.977775588804     1.007825032230
         H           -4.891662761110    -1.903872099893    -0.106012588804     1.007825032230
         H           -5.434432761110    -0.480184099893     0.787893411196     1.007825032230
         H            5.054784238890     0.873392900107     0.483174411196     1.007825032230
         H            2.908338238890    -2.540518099893    -1.014487588804     1.007825032230
         H            5.067784238890    -1.451040099893    -0.423575588804     1.007825032230

  Basis Set: AUG-CC-PVTZ
    Blend: AUG-CC-PVTZ
  Basis Set: (AUG-CC-PVTZ AUX)
    Blend: AUG-CC-PVTZ-JKFIT
	 Reference Energy          =    -554.4687836580334306 [Eh]
	 Singles Energy            =      -0.0000000000000000 [Eh]
	 Same-Spin Energy          =      -0.6244620532855025 [Eh]
	 Opposite-Spin Energy      =      -1.9547954114027168 [Eh]
	 Correlation Energy        =      -2.5792574646882196 [Eh]
	 Total Energy              =    -557.0480411227216564 [Eh]

	 ================> DF-SCS-MP2 Energies <==================
	-----------------------------------------------------------
	 SCS Same-Spin Scale       =       0.3333333333333333 [-]
	 SCS Opposite-Spin Scale   =       1.2000000000000000 [-]
	 SCS Same-Spin Energy      =      -0.2081540177618342 [Eh]
	 SCS Opposite-Spin Energy  =      -2.3457544936832599 [Eh]
	 SCS Correlation Energy    =      -2.5539085114450941 [Eh]
	 SCS Total Energy          =    -557.0226921694785460 [Eh]
	-----------------------------------------------------------

  Dipole Moment: [D]
     X:    -0.6296      Y:     0.4827      Z:    -0.3756     Total:     0.8778

*** Psi4 exiting successfully. Buy a developer a beer!
