                               Psi4 1.4a3.dev225

  ==> Input File <==

--------------------------------------------------------------------------
#psi4
#
memory 32 gb

molecule  {
0 1
  N        0.5479400     1.1907050     0.2959170
  C       -0.7486070     0.6692540     0.1554050
  C        1.7310100     0.4560470     0.0875670
  C       -3.4043000    -0.2987570    -0.0204040
  C       -1.1184250    -0.5206800     0.8026630
  C       -1.7211190     1.3742660    -0.5666580
  C       -2.4232850    -0.9959770     0.6985600
  C       -3.2185200     0.8325873    -0.6476162
  C        2.9509580     1.0658110     0.4223950
  C        1.7399610    -0.8480750    -0.4298540
  C       -4.8245050    -0.7978720    -0.0796260
  C        4.1550680     0.3942430     0.2262330
  C        2.9515180    -1.5184900    -0.6042170
  C        4.1638000    -0.9089480    -0.2775300
  H        0.6281830     2.1736720     0.0568290
  H       -0.3846330    -1.0553430     1.4003190
  H       -1.4458780     2.2938080    -1.0816330
  H       -2.6884880    -1.9242290     1.2030750
  H       -3.7690390     1.4656370    -1.2045950
  H        2.9440570     2.0709610     0.8408760
  H        0.8089320    -1.3225020    -0.7243660
  H       -5.3342430    -0.4266360    -0.9733710
  H       -4.8571770    -1.8911150    -0.1016080
  H       -5.3999470    -0.4674270     0.7922980
  H        5.0892700     0.8861500     0.4875790
  H        2.9428240    -2.5277610    -1.0100830
  H        5.1022700    -1.4382830    -0.4191710
units angstrom
no_reorient  #important for SAPT in psi4, default
symmetry c1  #important for SAPT in psi4, default
}

set PROPERTIES_ORIGIN ["COM"]
properties('MP2/aug-cc-pvtz', properties = ['dipole'])
--------------------------------------------------------------------------

    Molecular point group: c1
  Charge       = 0
  Multiplicity = 1
  Basis Set: AUG-CC-PVTZ
    Blend: AUG-CC-PVTZ
  Basis Set: (AUG-CC-PVTZ AUX)
    Blend: AUG-CC-PVTZ-JKFIT

    Orbital Energies [Eh]
    ---------------------

    Doubly Occupied:

       1A    -15.576559     2A    -11.282670     3A    -11.276944
       4A    -11.243239     5A    -11.238793     6A    -11.238186
       7A    -11.237629     8A    -11.237368     9A    -11.234567
      10A    -11.229147    11A    -11.228760    12A    -11.226731
      13A    -11.224735    14A    -11.218788    15A     -1.257416
      16A     -1.150742    17A     -1.130643    18A     -1.048982
      19A     -1.012742    20A     -1.006436    21A     -0.977625
      22A     -0.921464    23A     -0.854219    24A     -0.829932
      25A     -0.817256    26A     -0.784808    27A     -0.715493
      28A     -0.706316    29A     -0.667175    30A     -0.652591
      31A     -0.637247    32A     -0.618876    33A     -0.600217
      34A     -0.594570    35A     -0.584058    36A     -0.575477
      37A     -0.574186    38A     -0.544220    39A     -0.528258
      40A     -0.514632    41A     -0.506759    42A     -0.493753
      43A     -0.489402    44A     -0.461224    45A     -0.440443
      46A     -0.343278    47A     -0.337791    48A     -0.320944
      49A     -0.281090

  @DF-RHF Final Energy:  -554.44914426174319

   => Energetics <=

    Nuclear Repulsion Energy =            785.7253437910964067
    One-Electron Energy =               -2309.0002133943257832
    Two-Electron Energy =                 968.8257253414863044
    Total Energy =                       -554.4491442617431858
  Basis Set: (AUG-CC-PVTZ AUX)
    Blend: AUG-CC-PVTZ-RI
    Molecular point group: c1

    Geometry (in Angstrom), charge = 0, multiplicity = 1:

       Center              X                  Y                   Z               Mass
    ------------   -----------------  -----------------  -----------------  -----------------
         N            0.525756933785     1.183417109350     0.292601041902    14.003074004430
         C           -0.770790066215     0.661966109350     0.152089041902    12.000000000000
         C            1.708826933785     0.448759109350     0.084251041902    12.000000000000
         C           -3.426483066215    -0.306044890650    -0.023719958098    12.000000000000
         C           -1.140608066215    -0.527967890650     0.799347041902    12.000000000000
         C           -1.743302066215     1.366978109350    -0.569973958098    12.000000000000
         C           -2.445468066215    -1.003264890650     0.695244041902    12.000000000000
         C           -3.240703066215     0.825299409350    -0.650932158098    12.000000000000
         C            2.928774933785     1.058523109350     0.419079041902    12.000000000000
         C            1.717777933785    -0.855362890650    -0.433169958098    12.000000000000
         C           -4.846688066215    -0.805159890650    -0.082941958098    12.000000000000
         C            4.132884933785     0.386955109350     0.222917041902    12.000000000000
         C            2.929334933785    -1.525777890650    -0.607532958098    12.000000000000
         C            4.141616933785    -0.916235890650    -0.280845958098    12.000000000000
         H            0.605999933785     2.166384109350     0.053513041902     1.007825032230
         H           -0.406816066215    -1.062630890650     1.397003041902     1.007825032230
         H           -1.468061066215     2.286520109350    -1.084948958098     1.007825032230
         H           -2.710671066215    -1.931516890650     1.199759041902     1.007825032230
         H           -3.791222066215     1.458349109350    -1.207910958098     1.007825032230
         H            2.921873933785     2.063673109350     0.837560041902     1.007825032230
         H            0.786748933785    -1.329789890650    -0.727681958098     1.007825032230
         H           -5.356426066215    -0.433923890650    -0.976686958098     1.007825032230
         H           -4.879360066215    -1.898402890650    -0.104923958098     1.007825032230
         H           -5.422130066215    -0.474714890650     0.788982041902     1.007825032230
         H            5.067086933785     0.878862109350     0.484263041902     1.007825032230
         H            2.920640933785    -2.535048890650    -1.013398958098     1.007825032230
         H            5.080086933785    -1.445570890650    -0.422486958098     1.007825032230

  Basis Set: AUG-CC-PVTZ
    Blend: AUG-CC-PVTZ
  Basis Set: (AUG-CC-PVTZ AUX)
    Blend: AUG-CC-PVTZ-JKFIT
	 Reference Energy          =    -554.4491442617431858 [Eh]
	 Singles Energy            =      -0.0000000000000000 [Eh]
	 Same-Spin Energy          =      -0.6232695517073149 [Eh]
	 Opposite-Spin Energy      =      -1.9552370466385816 [Eh]
	 Correlation Energy        =      -2.5785065983458964 [Eh]
	 Total Energy              =    -557.0276508600891248 [Eh]

	 ================> DF-SCS-MP2 Energies <==================
	-----------------------------------------------------------
	 SCS Same-Spin Scale       =       0.3333333333333333 [-]
	 SCS Opposite-Spin Scale   =       1.2000000000000000 [-]
	 SCS Same-Spin Energy      =      -0.2077565172357716 [Eh]
	 SCS Opposite-Spin Energy  =      -2.3462844559662979 [Eh]
	 SCS Correlation Energy    =      -2.5540409732020697 [Eh]
	 SCS Total Energy          =    -557.0031852349452492 [Eh]
	-----------------------------------------------------------

  Dipole Moment: [D]
     X:    -0.5820      Y:     0.5506      Z:    -0.3224     Total:     0.8637

*** Psi4 exiting successfully. Buy a developer a beer!
