                               Psi4 1.4a3.dev225

  ==> Input File <==

--------------------------------------------------------------------------
#psi4
#
memory 32 gb

molecule  {
0 1
  N        0.5479400     1.1907050     0.2959170
  C       -0.7486070     0.6692540     0.1554050
  C        1.7310100     0.4560470     0.0875670
  C       -3.4043000    -0.2987570    -0.0204040
  C       -1.1184250    -0.5206800     0.8026630
  C       -1.7211190     1.3742660    -0.5666580
  C       -2.4232850    -0.9959770     0.6985600
  C       -3.0306900     0.9005340    -0.6374610
  C        2.9509580     1.0658110     0.4223950
  C        1.7399610    -0.8480750    -0.4298540
  C       -4.8245050    -0.7978720    -0.0796260
  C        4.1550680     0.3942430     0.2262330
  C        2.9515180    -1.5184900    -0.6042170
  C        4.1638000    -0.9089480    -0.2775300
  H        0.6281830     2.1736720     0.0568290
  H       -0.3846330    -1.0553430     1.4003190
  H       -1.4458780     2.2938080    -1.0816330
  H       -2.6884880    -1.9242290     1.2030750
  H       -3.7690390     1.4656370    -1.2045950
  H        2.9440570     2.0709610     0.8408760
  H        0.8089320    -1.3225020    -0.7243660
  H       -5.3342430    -0.4266360    -0.9733710
  H       -4.8571770    -1.8911150    -0.1016080
  H       -5.4524648    -0.4372689     0.8718742
  H        5.0892700     0.8861500     0.4875790
  H        2.9428240    -2.5277610    -1.0100830
  H        5.1022700    -1.4382830    -0.4191710
units angstrom
no_reorient  #important for SAPT in psi4, default
symmetry c1  #important for SAPT in psi4, default
}

set PROPERTIES_ORIGIN ["COM"]
properties('MP2/aug-cc-pvtz', properties = ['dipole'])
--------------------------------------------------------------------------

    Molecular point group: c1
  Charge       = 0
  Multiplicity = 1
  Basis Set: AUG-CC-PVTZ
    Blend: AUG-CC-PVTZ
  Basis Set: (AUG-CC-PVTZ AUX)
    Blend: AUG-CC-PVTZ-JKFIT

    Orbital Energies [Eh]
    ---------------------

    Doubly Occupied:

       1A    -15.577712     2A    -11.282893     3A    -11.277994
       4A    -11.238090     5A    -11.237393     6A    -11.236979
       7A    -11.235504     8A    -11.234988     9A    -11.234693
      10A    -11.233010    11A    -11.230422    12A    -11.228837
      13A    -11.226314    14A    -11.224669    15A     -1.258596
      16A     -1.152206    17A     -1.128485    18A     -1.039735
      19A     -1.016290    20A     -1.010961    21A     -0.988623
      22A     -0.916908    23A     -0.843110    24A     -0.829387
      25A     -0.816723    26A     -0.784994    27A     -0.713518
      28A     -0.704326    29A     -0.668676    30A     -0.640289
      31A     -0.635557    32A     -0.619296    33A     -0.597770
      34A     -0.587253    35A     -0.585543    36A     -0.582698
      37A     -0.560107    38A     -0.543952    39A     -0.531108
      40A     -0.513498    41A     -0.500361    42A     -0.494599
      43A     -0.490100    44A     -0.485870    45A     -0.441130
      46A     -0.340649    47A     -0.336001    48A     -0.330804
      49A     -0.275899

  @DF-RHF Final Energy:  -554.48449993689758

   => Energetics <=

    Nuclear Repulsion Energy =            786.9197358302318435
    One-Electron Energy =               -2311.4794270855049945
    Two-Electron Energy =                 970.0751913183756869
    Total Energy =                       -554.4844999368975778
  Basis Set: (AUG-CC-PVTZ AUX)
    Blend: AUG-CC-PVTZ-RI
    Molecular point group: c1

    Geometry (in Angstrom), charge = 0, multiplicity = 1:

       Center              X                  Y                   Z               Mass
    ------------   -----------------  -----------------  -----------------  -----------------
         N            0.513736324530     1.178798145288     0.291497513830    14.003074004430
         C           -0.782810675470     0.657347145288     0.150985513830    12.000000000000
         C            1.696806324530     0.444140145288     0.083147513830    12.000000000000
         C           -3.438503675470    -0.310663854712    -0.024823486170    12.000000000000
         C           -1.152628675470    -0.532586854712     0.798243513830    12.000000000000
         C           -1.755322675470     1.362359145288    -0.571077486170    12.000000000000
         C           -2.457488675470    -1.007883854712     0.694140513830    12.000000000000
         C           -3.064893675470     0.888627145288    -0.641880486170    12.000000000000
         C            2.916754324530     1.053904145288     0.417975513830    12.000000000000
         C            1.705757324530    -0.859981854712    -0.434273486170    12.000000000000
         C           -4.858708675470    -0.809778854712    -0.084045486170    12.000000000000
         C            4.120864324530     0.382336145288     0.221813513830    12.000000000000
         C            2.917314324530    -1.530396854712    -0.608636486170    12.000000000000
         C            4.129596324530    -0.920854854712    -0.281949486170    12.000000000000
         H            0.593979324530     2.161765145288     0.052409513830     1.007825032230
         H           -0.418836675470    -1.067249854712     1.395899513830     1.007825032230
         H           -1.480081675470     2.281901145288    -1.086052486170     1.007825032230
         H           -2.722691675470    -1.936135854712     1.198655513830     1.007825032230
         H           -3.803242675470     1.453730145288    -1.209014486170     1.007825032230
         H            2.909853324530     2.059054145288     0.836456513830     1.007825032230
         H            0.774728324530    -1.334408854712    -0.728785486170     1.007825032230
         H           -5.368446675470    -0.438542854712    -0.977790486170     1.007825032230
         H           -4.891380675470    -1.903021854712    -0.106027486170     1.007825032230
         H           -5.486668475470    -0.449175754712     0.867454713830     1.007825032230
         H            5.055066324530     0.874243145288     0.483159513830     1.007825032230
         H            2.908620324530    -2.539667854712    -1.014502486170     1.007825032230
         H            5.068066324530    -1.450189854712    -0.423590486170     1.007825032230

  Basis Set: AUG-CC-PVTZ
    Blend: AUG-CC-PVTZ
  Basis Set: (AUG-CC-PVTZ AUX)
    Blend: AUG-CC-PVTZ-JKFIT
	 Reference Energy          =    -554.4844999368975778 [Eh]
	 Singles Energy            =      -0.0000000000000000 [Eh]
	 Same-Spin Energy          =      -0.6238977193385294 [Eh]
	 Opposite-Spin Energy      =      -1.9533183259425129 [Eh]
	 Correlation Energy        =      -2.5772160452810424 [Eh]
	 Total Energy              =    -557.0617159821786117 [Eh]

	 ================> DF-SCS-MP2 Energies <==================
	-----------------------------------------------------------
	 SCS Same-Spin Scale       =       0.3333333333333333 [-]
	 SCS Opposite-Spin Scale   =       1.2000000000000000 [-]
	 SCS Same-Spin Energy      =      -0.2079659064461765 [Eh]
	 SCS Opposite-Spin Energy  =      -2.3439819911310154 [Eh]
	 SCS Correlation Energy    =      -2.5519478975771919 [Eh]
	 SCS Total Energy          =    -557.0364478344747567 [Eh]
	-----------------------------------------------------------

  Dipole Moment: [D]
     X:    -0.5575      Y:     0.5783      Z:    -0.3762     Total:     0.8870

*** Psi4 exiting successfully. Buy a developer a beer!
