                               Psi4 1.4a3.dev225

  ==> Input File <==

--------------------------------------------------------------------------
#psi4
#
memory 32 gb

molecule  {
0 1
  N        0.5479400     1.1907050     0.2959170
  C       -0.7486070     0.6692540     0.1554050
  C        1.7310100     0.4560470     0.0875670
  C       -3.4043000    -0.2987570    -0.0204040
  C       -1.1184250    -0.5206800     0.8026630
  C       -1.7211190     1.3742660    -0.5666580
  C       -2.4232850    -0.9959770     0.6985600
  C       -3.0306900     0.9005340    -0.6374610
  C        2.9509580     1.0658110     0.4223950
  C        1.7399610    -0.8480750    -0.4298540
  C       -4.8245050    -0.7978720    -0.0796260
  C        4.1550680     0.3942430     0.2262330
  C        2.9515180    -1.5184900    -0.6042170
  C        4.1638000    -0.9089480    -0.2775300
  H        0.6281830     2.1736720     0.0568290
  H       -0.3846330    -1.0553430     1.4003190
  H       -1.4458780     2.2938080    -1.0816330
  H       -2.6884880    -1.9242290     1.2030750
  H       -3.7690390     1.4656370    -1.2045950
  H        2.9440570     2.0709610     0.8408760
  H        0.8089320    -1.3225020    -0.7243660
  H       -5.3342430    -0.4266360    -0.9733710
  H       -4.8571770    -1.8911150    -0.1016080
  H       -5.3999470    -0.4674270     0.7922980
  H        5.0892700     0.8861500     0.4875790
  H        2.9428240    -2.5277610    -1.0100830
  H        5.0849986    -1.4285412    -0.4165643
units angstrom
no_reorient  #important for SAPT in psi4, default
symmetry c1  #important for SAPT in psi4, default
}

set PROPERTIES_ORIGIN ["COM"]
properties('MP2/aug-cc-pvtz', properties = ['dipole'])
--------------------------------------------------------------------------

    Molecular point group: c1
  Charge       = 0
  Multiplicity = 1
  Basis Set: AUG-CC-PVTZ
    Blend: AUG-CC-PVTZ
  Basis Set: (AUG-CC-PVTZ AUX)
    Blend: AUG-CC-PVTZ-JKFIT

    Orbital Energies [Eh]
    ---------------------

    Doubly Occupied:

       1A    -15.577260     2A    -11.282554     3A    -11.277346
       4A    -11.237685     5A    -11.236983     6A    -11.236197
       7A    -11.234829     8A    -11.234216     9A    -11.232577
      10A    -11.230012    11A    -11.228456    12A    -11.225913
      13A    -11.223147    14A    -11.222067    15A     -1.258155
      16A     -1.151857    17A     -1.128292    18A     -1.040806
      19A     -1.015844    20A     -1.010612    21A     -0.989997
      22A     -0.921512    23A     -0.842797    24A     -0.829919
      25A     -0.817201    26A     -0.785378    27A     -0.713392
      28A     -0.704015    29A     -0.670782    30A     -0.640538
      31A     -0.635255    32A     -0.618992    33A     -0.597929
      34A     -0.587766    35A     -0.585123    36A     -0.582306
      37A     -0.573322    38A     -0.545542    39A     -0.530574
      40A     -0.514784    41A     -0.501552    42A     -0.494761
      43A     -0.489650    44A     -0.485942    45A     -0.441802
      46A     -0.340233    47A     -0.335627    48A     -0.330887
      49A     -0.275711

  @DF-RHF Final Energy:  -554.49098790857965

   => Energetics <=

    Nuclear Repulsion Energy =            787.4446546555233226
    One-Electron Energy =               -2312.5350869764529307
    Two-Electron Energy =                 970.5994444123500671
    Total Energy =                       -554.4909879085796547
  Basis Set: (AUG-CC-PVTZ AUX)
    Blend: AUG-CC-PVTZ-RI
    Molecular point group: c1

    Geometry (in Angstrom), charge = 0, multiplicity = 1:

       Center              X                  Y                   Z               Mass
    ------------   -----------------  -----------------  -----------------  -----------------
         N            0.513542325223     1.178910518412     0.291921160774    14.003074004430
         C           -0.783004674777     0.657459518412     0.151409160774    12.000000000000
         C            1.696612325223     0.444252518412     0.083571160774    12.000000000000
         C           -3.438697674777    -0.310551481588    -0.024399839226    12.000000000000
         C           -1.152822674777    -0.532474481588     0.798667160774    12.000000000000
         C           -1.755516674777     1.362471518412    -0.570653839226    12.000000000000
         C           -2.457682674777    -1.007771481588     0.694564160774    12.000000000000
         C           -3.065087674777     0.888739518412    -0.641456839226    12.000000000000
         C            2.916560325223     1.054016518412     0.418399160774    12.000000000000
         C            1.705563325223    -0.859869481588    -0.433849839226    12.000000000000
         C           -4.858902674777    -0.809666481588    -0.083621839226    12.000000000000
         C            4.120670325223     0.382448518412     0.222237160774    12.000000000000
         C            2.917120325223    -1.530284481588    -0.608212839226    12.000000000000
         C            4.129402325223    -0.920742481588    -0.281525839226    12.000000000000
         H            0.593785325223     2.161877518412     0.052833160774     1.007825032230
         H           -0.419030674777    -1.067137481588     1.396323160774     1.007825032230
         H           -1.480275674777     2.282013518412    -1.085628839226     1.007825032230
         H           -2.722885674777    -1.936023481588     1.199079160774     1.007825032230
         H           -3.803436674777     1.453842518412    -1.208590839226     1.007825032230
         H            2.909659325223     2.059166518412     0.836880160774     1.007825032230
         H            0.774534325223    -1.334296481588    -0.728361839226     1.007825032230
         H           -5.368640674777    -0.438430481588    -0.977366839226     1.007825032230
         H           -4.891574674777    -1.902909481588    -0.105603839226     1.007825032230
         H           -5.434344674777    -0.479221481588     0.788302160774     1.007825032230
         H            5.054872325223     0.874355518412     0.483583160774     1.007825032230
         H            2.908426325223    -2.539555481588    -1.014078839226     1.007825032230
         H            5.050600925223    -1.440335681588    -0.420560139226     1.007825032230

  Basis Set: AUG-CC-PVTZ
    Blend: AUG-CC-PVTZ
  Basis Set: (AUG-CC-PVTZ AUX)
    Blend: AUG-CC-PVTZ-JKFIT
	 Reference Energy          =    -554.4909879085796547 [Eh]
	 Singles Energy            =      -0.0000000000000000 [Eh]
	 Same-Spin Energy          =      -0.6238880522550539 [Eh]
	 Opposite-Spin Energy      =      -1.9525309587737103 [Eh]
	 Correlation Energy        =      -2.5764190110287641 [Eh]
	 Total Energy              =    -557.0674069196084019 [Eh]

	 ================> DF-SCS-MP2 Energies <==================
	-----------------------------------------------------------
	 SCS Same-Spin Scale       =       0.3333333333333333 [-]
	 SCS Opposite-Spin Scale   =       1.2000000000000000 [-]
	 SCS Same-Spin Energy      =      -0.2079626840850180 [Eh]
	 SCS Opposite-Spin Energy  =      -2.3430371505284522 [Eh]
	 SCS Correlation Energy    =      -2.5509998346134704 [Eh]
	 SCS Total Energy          =    -557.0419877431930900 [Eh]
	-----------------------------------------------------------

  Dipole Moment: [D]
     X:    -0.6259      Y:     0.5740      Z:    -0.3420     Total:     0.9156

*** Psi4 exiting successfully. Buy a developer a beer!
