                               Psi4 1.4a3.dev225

  ==> Input File <==

--------------------------------------------------------------------------
#psi4
#
memory 32 gb

molecule  {
0 1
  N        0.5479400     1.1907050     0.2959170
  C       -0.7486070     0.6692540     0.1554050
  C        1.7310100     0.4560470     0.0875670
  C       -3.4043000    -0.2987570    -0.0204040
  C       -1.1184250    -0.5206800     0.8026630
  C       -1.7211190     1.3742660    -0.5666580
  C       -2.4232850    -0.9959770     0.6985600
  C       -3.0306900     0.9005340    -0.6374610
  C        2.9509580     1.0658110     0.4223950
  C        1.7399610    -0.8480750    -0.4298540
  C       -4.8245050    -0.7978720    -0.0796260
  C        4.1550680     0.3942430     0.2262330
  C        2.9515180    -1.5184900    -0.6042170
  C        4.1638000    -0.9089480    -0.2775300
  H        0.6281830     2.1736720     0.0568290
  H       -0.3846330    -1.0553430     1.4003190
  H       -1.4458780     2.2938080    -1.0816330
  H       -2.6884880    -1.9242290     1.2030750
  H       -3.8368333     1.5175241    -1.2566686
  H        2.9440570     2.0709610     0.8408760
  H        0.8089320    -1.3225020    -0.7243660
  H       -5.3342430    -0.4266360    -0.9733710
  H       -4.8571770    -1.8911150    -0.1016080
  H       -5.3999470    -0.4674270     0.7922980
  H        5.0892700     0.8861500     0.4875790
  H        2.9428240    -2.5277610    -1.0100830
  H        5.1022700    -1.4382830    -0.4191710
units angstrom
no_reorient  #important for SAPT in psi4, default
symmetry c1  #important for SAPT in psi4, default
}

set PROPERTIES_ORIGIN ["COM"]
properties('MP2/aug-cc-pvtz', properties = ['dipole'])
--------------------------------------------------------------------------

    Molecular point group: c1
  Charge       = 0
  Multiplicity = 1
  Basis Set: AUG-CC-PVTZ
    Blend: AUG-CC-PVTZ
  Basis Set: (AUG-CC-PVTZ AUX)
    Blend: AUG-CC-PVTZ-JKFIT

    Orbital Energies [Eh]
    ---------------------

    Doubly Occupied:

       1A    -15.577782     2A    -11.282910     3A    -11.278189
       4A    -11.246334     5A    -11.238090     6A    -11.237388
       7A    -11.237069     8A    -11.235238     9A    -11.233847
      10A    -11.230546    11A    -11.228844    12A    -11.226312
      13A    -11.224666    14A    -11.223099    15A     -1.258669
      16A     -1.152104    17A     -1.128380    18A     -1.041032
      19A     -1.015085    20A     -1.010161    21A     -0.989637
      22A     -0.921142    23A     -0.840846    24A     -0.829476
      25A     -0.816605    26A     -0.783061    27A     -0.711419
      28A     -0.702747    29A     -0.668765    30A     -0.639712
      31A     -0.635655    32A     -0.616430    33A     -0.597876
      34A     -0.586893    35A     -0.583436    36A     -0.577661
      37A     -0.572070    38A     -0.545062    39A     -0.529397
      40A     -0.513230    41A     -0.501463    42A     -0.495277
      43A     -0.489659    44A     -0.482892    45A     -0.442124
      46A     -0.340830    47A     -0.336076    48A     -0.331438
      49A     -0.276233

  @DF-RHF Final Energy:  -554.48350022035186

   => Energetics <=

    Nuclear Repulsion Energy =            786.8294748525378282
    One-Electron Energy =               -2311.3002430828878460
    Two-Electron Energy =                 969.9872680099982745
    Total Energy =                       -554.4835002203518570
  Basis Set: (AUG-CC-PVTZ AUX)
    Blend: AUG-CC-PVTZ-RI
    Molecular point group: c1

    Geometry (in Angstrom), charge = 0, multiplicity = 1:

       Center              X                  Y                   Z               Mass
    ------------   -----------------  -----------------  -----------------  -----------------
         N            0.513820407739     1.178678546948     0.292222125988    14.003074004430
         C           -0.782726592261     0.657227546948     0.151710125988    12.000000000000
         C            1.696890407739     0.444020546948     0.083872125988    12.000000000000
         C           -3.438419592261    -0.310783453052    -0.024098874012    12.000000000000
         C           -1.152544592261    -0.532706453052     0.798968125988    12.000000000000
         C           -1.755238592261     1.362239546948    -0.570352874012    12.000000000000
         C           -2.457404592261    -1.008003453052     0.694865125988    12.000000000000
         C           -3.064809592261     0.888507546948    -0.641155874012    12.000000000000
         C            2.916838407739     1.053784546948     0.418700125988    12.000000000000
         C            1.705841407739    -0.860101453052    -0.433548874012    12.000000000000
         C           -4.858624592261    -0.809898453052    -0.083320874012    12.000000000000
         C            4.120948407739     0.382216546948     0.222538125988    12.000000000000
         C            2.917398407739    -1.530516453052    -0.607911874012    12.000000000000
         C            4.129680407739    -0.920974453052    -0.281224874012    12.000000000000
         H            0.594063407739     2.161645546948     0.053134125988     1.007825032230
         H           -0.418752592261    -1.067369453052     1.396624125988     1.007825032230
         H           -1.479997592261     2.281781546948    -1.085327874012     1.007825032230
         H           -2.722607592261    -1.936255453052     1.199380125988     1.007825032230
         H           -3.870952892261     1.505497646948    -1.260363474012     1.007825032230
         H            2.909937407739     2.058934546948     0.837181125988     1.007825032230
         H            0.774812407739    -1.334528453052    -0.728060874012     1.007825032230
         H           -5.368362592261    -0.438662453052    -0.977065874012     1.007825032230
         H           -4.891296592261    -1.903141453052    -0.105302874012     1.007825032230
         H           -5.434066592261    -0.479453453052     0.788603125988     1.007825032230
         H            5.055150407739     0.874123546948     0.483884125988     1.007825032230
         H            2.908704407739    -2.539787453052    -1.013777874012     1.007825032230
         H            5.068150407739    -1.450309453052    -0.422865874012     1.007825032230

  Basis Set: AUG-CC-PVTZ
    Blend: AUG-CC-PVTZ
  Basis Set: (AUG-CC-PVTZ AUX)
    Blend: AUG-CC-PVTZ-JKFIT
	 Reference Energy          =    -554.4835002203518570 [Eh]
	 Singles Energy            =      -0.0000000000000000 [Eh]
	 Same-Spin Energy          =      -0.6241718949697078 [Eh]
	 Opposite-Spin Energy      =      -1.9536354362032309 [Eh]
	 Correlation Energy        =      -2.5778073311729388 [Eh]
	 Total Energy              =    -557.0613075515248056 [Eh]

	 ================> DF-SCS-MP2 Energies <==================
	-----------------------------------------------------------
	 SCS Same-Spin Scale       =       0.3333333333333333 [-]
	 SCS Opposite-Spin Scale   =       1.2000000000000000 [-]
	 SCS Same-Spin Energy      =      -0.2080572983232359 [Eh]
	 SCS Opposite-Spin Energy  =      -2.3443625234438770 [Eh]
	 SCS Correlation Energy    =      -2.5524198217671130 [Eh]
	 SCS Total Energy          =    -557.0359200421189598 [Eh]
	-----------------------------------------------------------

  Dipole Moment: [D]
     X:    -0.5829      Y:     0.5512      Z:    -0.3151     Total:     0.8619

*** Psi4 exiting successfully. Buy a developer a beer!
