                               Psi4 1.4a3.dev225

  ==> Input File <==

--------------------------------------------------------------------------
#psi4
#
memory 32 gb

molecule  {
0 1
  N        0.5479400     1.1907050     0.2959170
  C       -0.7486070     0.6692540     0.1554050
  C        1.7310100     0.4560470     0.0875670
  C       -3.4043000    -0.2987570    -0.0204040
  C       -1.1184250    -0.5206800     0.8026630
  C       -1.7211190     1.3742660    -0.5666580
  C       -2.4232850    -0.9959770     0.6985600
  C       -3.0306900     0.9005340    -0.6374610
  C        2.9509580     1.0658110     0.4223950
  C        1.7399610    -0.8480750    -0.4298540
  C       -4.8245050    -0.7978720    -0.0796260
  C        4.1550680     0.3942430     0.2262330
  C        2.9515180    -1.5184900    -0.6042170
  C        4.1638000    -0.9089480    -0.2775300
  H        0.6281830     2.1736720     0.0568290
  H       -0.3846330    -1.0553430     1.4003190
  H       -1.4458780     2.2938080    -1.0816330
  H       -2.6884880    -1.9242290     1.2030750
  H       -3.7690390     1.4656370    -1.2045950
  H        2.9440570     2.0709610     0.8408760
  H        0.8089320    -1.3225020    -0.7243660
  H       -5.3342430    -0.4266360    -0.9733710
  H       -4.8571770    -1.8911150    -0.1016080
  H       -5.3999470    -0.4674270     0.7922980
  H        5.0892700     0.8861500     0.4875790
  H        2.9428240    -2.5277610    -1.0100830
  H        5.1022700    -1.4382830    -0.4191710
units angstrom
no_reorient  #important for SAPT in psi4, default
symmetry c1  #important for SAPT in psi4, default
}

set PROPERTIES_ORIGIN ["COM"]
properties('MP2/aug-cc-pvtz', properties = ['dipole'])
--------------------------------------------------------------------------

    Molecular point group: c1
  Charge       = 0
  Multiplicity = 1
  Basis Set: AUG-CC-PVTZ
    Blend: AUG-CC-PVTZ
  Basis Set: (AUG-CC-PVTZ AUX)
    Blend: AUG-CC-PVTZ-JKFIT

    Orbital Energies [Eh]
    ---------------------

    Doubly Occupied:

       1A    -15.577311     2A    -11.282628     3A    -11.277385
       4A    -11.237879     5A    -11.237174     6A    -11.236229
       7A    -11.234861     8A    -11.234249     9A    -11.232612
      10A    -11.230049    11A    -11.228595    12A    -11.226052
      13A    -11.224443    14A    -11.223170    15A     -1.258211
      16A     -1.151890    17A     -1.128267    18A     -1.040727
      19A     -1.015896    20A     -1.010720    21A     -0.989507
      22A     -0.921414    23A     -0.842740    24A     -0.829709
      25A     -0.816768    26A     -0.785247    27A     -0.713241
      28A     -0.704020    29A     -0.668597    30A     -0.640351
      31A     -0.635183    32A     -0.619077    33A     -0.597585
      34A     -0.587765    35A     -0.585196    36A     -0.582353
      37A     -0.573339    38A     -0.545568    39A     -0.530620
      40A     -0.513328    41A     -0.501299    42A     -0.494822
      43A     -0.489733    44A     -0.485970    45A     -0.441880
      46A     -0.340296    47A     -0.335725    48A     -0.330953
      49A     -0.275769

  @DF-RHF Final Energy:  -554.49086237355368

   => Energetics <=

    Nuclear Repulsion Energy =            787.3386328356026524
    One-Electron Energy =               -2312.3261816214044302
    Two-Electron Energy =                 970.4966864122479819
    Total Energy =                       -554.4908623735536821
  Basis Set: (AUG-CC-PVTZ AUX)
    Blend: AUG-CC-PVTZ-RI
    Molecular point group: c1

    Geometry (in Angstrom), charge = 0, multiplicity = 1:

       Center              X                  Y                   Z               Mass
    ------------   -----------------  -----------------  -----------------  -----------------
         N            0.513447261908     1.178964138142     0.291935508282    14.003074004430
         C           -0.783099738092     0.657513138142     0.151423508282    12.000000000000
         C            1.696517261908     0.444306138142     0.083585508282    12.000000000000
         C           -3.438792738092    -0.310497861858    -0.024385491718    12.000000000000
         C           -1.152917738092    -0.532420861858     0.798681508282    12.000000000000
         C           -1.755611738092     1.362525138142    -0.570639491718    12.000000000000
         C           -2.457777738092    -1.007717861858     0.694578508282    12.000000000000
         C           -3.065182738092     0.888793138142    -0.641442491718    12.000000000000
         C            2.916465261908     1.054070138142     0.418413508282    12.000000000000
         C            1.705468261908    -0.859815861858    -0.433835491718    12.000000000000
         C           -4.858997738092    -0.809612861858    -0.083607491718    12.000000000000
         C            4.120575261908     0.382502138142     0.222251508282    12.000000000000
         C            2.917025261908    -1.530230861858    -0.608198491718    12.000000000000
         C            4.129307261908    -0.920688861858    -0.281511491718    12.000000000000
         H            0.593690261908     2.161931138142     0.052847508282     1.007825032230
         H           -0.419125738092    -1.067083861858     1.396337508282     1.007825032230
         H           -1.480370738092     2.282067138142    -1.085614491718     1.007825032230
         H           -2.722980738092    -1.935969861858     1.199093508282     1.007825032230
         H           -3.803531738092     1.453896138142    -1.208576491718     1.007825032230
         H            2.909564261908     2.059220138142     0.836894508282     1.007825032230
         H            0.774439261908    -1.334242861858    -0.728347491718     1.007825032230
         H           -5.368735738092    -0.438376861858    -0.977352491718     1.007825032230
         H           -4.891669738092    -1.902855861858    -0.105589491718     1.007825032230
         H           -5.434439738092    -0.479167861858     0.788316508282     1.007825032230
         H            5.054777261908     0.874409138142     0.483597508282     1.007825032230
         H            2.908331261908    -2.539501861858    -1.014064491718     1.007825032230
         H            5.067777261908    -1.450023861858    -0.423152491718     1.007825032230

  Basis Set: AUG-CC-PVTZ
    Blend: AUG-CC-PVTZ
  Basis Set: (AUG-CC-PVTZ AUX)
    Blend: AUG-CC-PVTZ-JKFIT
	 Reference Energy          =    -554.4908623735536821 [Eh]
	 Singles Energy            =      -0.0000000000000000 [Eh]
	 Same-Spin Energy          =      -0.6239191966403848 [Eh]
	 Opposite-Spin Energy      =      -1.9526634184158536 [Eh]
	 Correlation Energy        =      -2.5765826150562381 [Eh]
	 Total Energy              =    -557.0674449886099637 [Eh]

	 ================> DF-SCS-MP2 Energies <==================
	-----------------------------------------------------------
	 SCS Same-Spin Scale       =       0.3333333333333333 [-]
	 SCS Opposite-Spin Scale   =       1.2000000000000000 [-]
	 SCS Same-Spin Energy      =      -0.2079730655467949 [Eh]
	 SCS Opposite-Spin Energy  =      -2.3431961020990242 [Eh]
	 SCS Correlation Energy    =      -2.5511691676458192 [Eh]
	 SCS Total Energy          =    -557.0420315411995489 [Eh]
	-----------------------------------------------------------

  Dipole Moment: [D]
     X:    -0.6340      Y:     0.5779      Z:    -0.3409     Total:     0.9231

*** Psi4 exiting successfully. Buy a developer a beer!
