                               Psi4 1.4a3.dev225

  ==> Input File <==

--------------------------------------------------------------------------
#psi4
#
memory 32 gb

molecule  {
0 1
  N        0.5479400     1.1907050     0.2959170
  C       -0.7486070     0.6692540     0.1554050
  C        1.7310100     0.4560470     0.0875670
  C       -3.4043000    -0.2987570    -0.0204040
  C       -1.1052563    -0.4783081     0.7796150
  C       -1.7211190     1.3742660    -0.5666580
  C       -2.4232850    -0.9959770     0.6985600
  C       -3.0306900     0.9005340    -0.6374610
  C        2.9509580     1.0658110     0.4223950
  C        1.7399610    -0.8480750    -0.4298540
  C       -4.8245050    -0.7978720    -0.0796260
  C        4.1550680     0.3942430     0.2262330
  C        2.9515180    -1.5184900    -0.6042170
  C        4.1638000    -0.9089480    -0.2775300
  H        0.6281830     2.1736720     0.0568290
  H       -0.3846330    -1.0553430     1.4003190
  H       -1.4458780     2.2938080    -1.0816330
  H       -2.6884880    -1.9242290     1.2030750
  H       -3.7690390     1.4656370    -1.2045950
  H        2.9440570     2.0709610     0.8408760
  H        0.8089320    -1.3225020    -0.7243660
  H       -5.3342430    -0.4266360    -0.9733710
  H       -4.8571770    -1.8911150    -0.1016080
  H       -5.3999470    -0.4674270     0.7922980
  H        5.0892700     0.8861500     0.4875790
  H        2.9428240    -2.5277610    -1.0100830
  H        5.1022700    -1.4382830    -0.4191710
units angstrom
no_reorient  #important for SAPT in psi4, default
symmetry c1  #important for SAPT in psi4, default
}

set PROPERTIES_ORIGIN ["COM"]
properties('MP2/aug-cc-pvtz', properties = ['dipole'])
--------------------------------------------------------------------------

    Molecular point group: c1
  Charge       = 0
  Multiplicity = 1
  Basis Set: AUG-CC-PVTZ
    Blend: AUG-CC-PVTZ
  Basis Set: (AUG-CC-PVTZ AUX)
    Blend: AUG-CC-PVTZ-JKFIT

    Orbital Energies [Eh]
    ---------------------

    Doubly Occupied:

       1A    -15.575787     2A    -11.282051     3A    -11.271362
       4A    -11.237459     5A    -11.237310     6A    -11.236601
       7A    -11.236380     8A    -11.235332     9A    -11.234010
      10A    -11.228713    11A    -11.227916    12A    -11.225373
      13A    -11.223794    14A    -11.223604    15A     -1.258835
      16A     -1.153420    17A     -1.127803    18A     -1.044296
      19A     -1.013996    20A     -1.009136    21A     -0.989291
      22A     -0.923929    23A     -0.844736    24A     -0.829053
      25A     -0.817242    26A     -0.782984    27A     -0.713167
      28A     -0.704546    29A     -0.668087    30A     -0.636566
      31A     -0.636238    32A     -0.619311    33A     -0.597216
      34A     -0.591460    35A     -0.583765    36A     -0.578340
      37A     -0.573934    38A     -0.546786    39A     -0.531497
      40A     -0.512118    41A     -0.500929    42A     -0.496711
      43A     -0.489282    44A     -0.484541    45A     -0.441412
      46A     -0.339287    47A     -0.335739    48A     -0.330554
      49A     -0.278006

  @DF-RHF Final Energy:  -554.48798519540048

   => Energetics <=

    Nuclear Repulsion Energy =            788.0387509172842329
    One-Electron Energy =               -2313.7336630719310051
    Two-Electron Energy =                 971.2069269592462888
    Total Energy =                       -554.4879851954004835
  Basis Set: (AUG-CC-PVTZ AUX)
    Blend: AUG-CC-PVTZ-RI
    Molecular point group: c1

    Geometry (in Angstrom), charge = 0, multiplicity = 1:

       Center              X                  Y                   Z               Mass
    ------------   -----------------  -----------------  -----------------  -----------------
         N            0.512584234830     1.176187243153     0.293445987531    14.003074004430
         C           -0.783962765170     0.654736243153     0.152933987531    12.000000000000
         C            1.695654234830     0.441529243153     0.085095987531    12.000000000000
         C           -3.439655765170    -0.313274756847    -0.022875012469    12.000000000000
         C           -1.140612065170    -0.492825856847     0.777143987531    12.000000000000
         C           -1.756474765170     1.359748243153    -0.569129012469    12.000000000000
         C           -2.458640765170    -1.010494756847     0.696088987531    12.000000000000
         C           -3.066045765170     0.886016243153    -0.639932012469    12.000000000000
         C            2.915602234830     1.051293243153     0.419923987531    12.000000000000
         C            1.704605234830    -0.862592756847    -0.432325012469    12.000000000000
         C           -4.859860765170    -0.812389756847    -0.082097012469    12.000000000000
         C            4.119712234830     0.379725243153     0.223761987531    12.000000000000
         C            2.916162234830    -1.533007756847    -0.606688012469    12.000000000000
         C            4.128444234830    -0.923465756847    -0.280001012469    12.000000000000
         H            0.592827234830     2.159154243153     0.054357987531     1.007825032230
         H           -0.419988765170    -1.069860756847     1.397847987531     1.007825032230
         H           -1.481233765170     2.279290243153    -1.084104012469     1.007825032230
         H           -2.723843765170    -1.938746756847     1.200603987531     1.007825032230
         H           -3.804394765170     1.451119243153    -1.207066012469     1.007825032230
         H            2.908701234830     2.056443243153     0.838404987531     1.007825032230
         H            0.773576234830    -1.337019756847    -0.726837012469     1.007825032230
         H           -5.369598765170    -0.441153756847    -0.975842012469     1.007825032230
         H           -4.892532765170    -1.905632756847    -0.104079012469     1.007825032230
         H           -5.435302765170    -0.481944756847     0.789826987531     1.007825032230
         H            5.053914234830     0.871632243153     0.485107987531     1.007825032230
         H            2.907468234830    -2.542278756847    -1.012554012469     1.007825032230
         H            5.066914234830    -1.452800756847    -0.421642012469     1.007825032230

  Basis Set: AUG-CC-PVTZ
    Blend: AUG-CC-PVTZ
  Basis Set: (AUG-CC-PVTZ AUX)
    Blend: AUG-CC-PVTZ-JKFIT
	 Reference Energy          =    -554.4879851954004835 [Eh]
	 Singles Energy            =      -0.0000000000000000 [Eh]
	 Same-Spin Energy          =      -0.6239312945000128 [Eh]
	 Opposite-Spin Energy      =      -1.9526774281690773 [Eh]
	 Correlation Energy        =      -2.5766087226690901 [Eh]
	 Total Energy              =    -557.0645939180695905 [Eh]

	 ================> DF-SCS-MP2 Energies <==================
	-----------------------------------------------------------
	 SCS Same-Spin Scale       =       0.3333333333333333 [-]
	 SCS Opposite-Spin Scale   =       1.2000000000000000 [-]
	 SCS Same-Spin Energy      =      -0.2079770981666709 [Eh]
	 SCS Opposite-Spin Energy  =      -2.3432129138028928 [Eh]
	 SCS Correlation Energy    =      -2.5511900119695636 [Eh]
	 SCS Total Energy          =    -557.0391752073700218 [Eh]
	-----------------------------------------------------------

  Dipole Moment: [D]
     X:    -0.7295      Y:     0.5653      Z:    -0.3460     Total:     0.9856

*** Psi4 exiting successfully. Buy a developer a beer!
