                               Psi4 1.4a3.dev225

  ==> Input File <==

--------------------------------------------------------------------------
#psi4
#
memory 32 gb

molecule  {
0 1
  N        0.5479400     1.1907050     0.2959170
  C       -0.7486070     0.6692540     0.1554050
  C        1.7310100     0.4560470     0.0875670
  C       -3.4043000    -0.2987570    -0.0204040
  C       -1.1184250    -0.5206800     0.8026630
  C       -1.7211190     1.3742660    -0.5666580
  C       -2.4232850    -0.9959770     0.6985600
  C       -3.0306900     0.9005340    -0.6374610
  C        2.9509580     1.0658110     0.4223950
  C        1.7399610    -0.8480750    -0.4298540
  C       -4.8245050    -0.7978720    -0.0796260
  C        4.1550680     0.3942430     0.2262330
  C        2.9515180    -1.5184900    -0.6042170
  C        4.1638000    -0.9089480    -0.2775300
  H        0.6281830     2.1736720     0.0568290
  H       -0.2496172    -1.1537196     1.5102861
  H       -1.4458780     2.2938080    -1.0816330
  H       -2.6884880    -1.9242290     1.2030750
  H       -3.7690390     1.4656370    -1.2045950
  H        2.9440570     2.0709610     0.8408760
  H        0.8089320    -1.3225020    -0.7243660
  H       -5.3342430    -0.4266360    -0.9733710
  H       -4.8571770    -1.8911150    -0.1016080
  H       -5.3999470    -0.4674270     0.7922980
  H        5.0892700     0.8861500     0.4875790
  H        2.9428240    -2.5277610    -1.0100830
  H        5.1022700    -1.4382830    -0.4191710
units angstrom
no_reorient  #important for SAPT in psi4, default
symmetry c1  #important for SAPT in psi4, default
}

set PROPERTIES_ORIGIN ["COM"]
properties('MP2/aug-cc-pvtz', properties = ['dipole'])
--------------------------------------------------------------------------

    Molecular point group: c1
  Charge       = 0
  Multiplicity = 1
  Basis Set: AUG-CC-PVTZ
    Blend: AUG-CC-PVTZ
  Basis Set: (AUG-CC-PVTZ AUX)
    Blend: AUG-CC-PVTZ-JKFIT

    Orbital Energies [Eh]
    ---------------------

    Doubly Occupied:

       1A    -15.577361     2A    -11.282102     3A    -11.279799
       4A    -11.251023     5A    -11.237760     6A    -11.237332
       7A    -11.236529     8A    -11.236334     9A    -11.235750
      10A    -11.234177    11A    -11.228213    12A    -11.225398
      13A    -11.224109    14A    -11.224030    15A     -1.258131
      16A     -1.152253    17A     -1.128375    18A     -1.041030
      19A     -1.013858    20A     -1.008920    21A     -0.989424
      22A     -0.922073    23A     -0.840762    24A     -0.826739
      25A     -0.816693    26A     -0.780665    27A     -0.711927
      28A     -0.704295    29A     -0.666820    30A     -0.636091
      31A     -0.629494    32A     -0.616401    33A     -0.597067
      34A     -0.588652    35A     -0.583278    36A     -0.575092
      37A     -0.568844    38A     -0.542799    39A     -0.530767
      40A     -0.512646    41A     -0.501239    42A     -0.495508
      43A     -0.488885    44A     -0.475488    45A     -0.442006
      46A     -0.341055    47A     -0.335530    48A     -0.331316
      49A     -0.276103

  @DF-RHF Final Energy:  -554.46818745590281

   => Energetics <=

    Nuclear Repulsion Energy =            786.4813014800046176
    One-Electron Energy =               -2310.6186924381477183
    Two-Electron Energy =                 969.6692035022401797
    Total Energy =                       -554.4681874559028074
  Basis Set: (AUG-CC-PVTZ AUX)
    Blend: AUG-CC-PVTZ-RI
    Molecular point group: c1

    Geometry (in Angstrom), charge = 0, multiplicity = 1:

       Center              X                  Y                   Z               Mass
    ------------   -----------------  -----------------  -----------------  -----------------
         N            0.512704122987     1.179505611661     0.291330239625    14.003074004430
         C           -0.783842877013     0.658054611661     0.150818239625    12.000000000000
         C            1.695774122987     0.444847611661     0.082980239625    12.000000000000
         C           -3.439535877013    -0.309956388339    -0.024990760375    12.000000000000
         C           -1.153660877013    -0.531879388339     0.798076239625    12.000000000000
         C           -1.756354877013     1.363066611661    -0.571244760375    12.000000000000
         C           -2.458520877013    -1.007176388339     0.693973239625    12.000000000000
         C           -3.065925877013     0.889334611661    -0.642047760375    12.000000000000
         C            2.915722122987     1.054611611661     0.417808239625    12.000000000000
         C            1.704725122987    -0.859274388339    -0.434440760375    12.000000000000
         C           -4.859740877013    -0.809071388339    -0.084212760375    12.000000000000
         C            4.119832122987     0.383043611661     0.221646239625    12.000000000000
         C            2.916282122987    -1.529689388339    -0.608803760375    12.000000000000
         C            4.128564122987    -0.920147388339    -0.282116760375    12.000000000000
         H            0.592947122987     2.162472611661     0.052242239625     1.007825032230
         H           -0.284853077013    -1.164918988339     1.505699339625     1.007825032230
         H           -1.481113877013     2.282608611661    -1.086219760375     1.007825032230
         H           -2.723723877013    -1.935428388339     1.198488239625     1.007825032230
         H           -3.804274877013     1.454437611661    -1.209181760375     1.007825032230
         H            2.908821122987     2.059761611661     0.836289239625     1.007825032230
         H            0.773696122987    -1.333701388339    -0.728952760375     1.007825032230
         H           -5.369478877013    -0.437835388339    -0.977957760375     1.007825032230
         H           -4.892412877013    -1.902314388339    -0.106194760375     1.007825032230
         H           -5.435182877013    -0.478626388339     0.787711239625     1.007825032230
         H            5.054034122987     0.874950611661     0.482992239625     1.007825032230
         H            2.907588122987    -2.538960388339    -1.014669760375     1.007825032230
         H            5.067034122987    -1.449482388339    -0.423757760375     1.007825032230

  Basis Set: AUG-CC-PVTZ
    Blend: AUG-CC-PVTZ
  Basis Set: (AUG-CC-PVTZ AUX)
    Blend: AUG-CC-PVTZ-JKFIT
	 Reference Energy          =    -554.4681874559028074 [Eh]
	 Singles Energy            =      -0.0000000000000000 [Eh]
	 Same-Spin Energy          =      -0.6246761094414623 [Eh]
	 Opposite-Spin Energy      =      -1.9551747853611254 [Eh]
	 Correlation Energy        =      -2.5798508948025880 [Eh]
	 Total Energy              =    -557.0480383507053830 [Eh]

	 ================> DF-SCS-MP2 Energies <==================
	-----------------------------------------------------------
	 SCS Same-Spin Scale       =       0.3333333333333333 [-]
	 SCS Opposite-Spin Scale   =       1.2000000000000000 [-]
	 SCS Same-Spin Energy      =      -0.2082253698138208 [Eh]
	 SCS Opposite-Spin Energy  =      -2.3462097424333503 [Eh]
	 SCS Correlation Energy    =      -2.5544351122471709 [Eh]
	 SCS Total Energy          =    -557.0226225681499272 [Eh]
	-----------------------------------------------------------

  Dipole Moment: [D]
     X:    -0.7038      Y:     0.6003      Z:    -0.3751     Total:     0.9982

*** Psi4 exiting successfully. Buy a developer a beer!
