                               Psi4 1.4a3.dev225

  ==> Input File <==

--------------------------------------------------------------------------
#psi4
#
memory 32 gb

molecule  {
0 1
  N        0.5479400     1.1907050     0.2959170
  C       -0.7486070     0.6692540     0.1554050
  C        1.7310100     0.4560470     0.0875670
  C       -3.4043000    -0.2987570    -0.0204040
  C       -1.1184250    -0.5206800     0.8026630
  C       -1.7211190     1.3742660    -0.5666580
  C       -2.4232850    -0.9959770     0.6985600
  C       -3.0306900     0.9005340    -0.6374610
  C        2.9509580     1.0658110     0.4223950
  C        1.7399610    -0.8480750    -0.4298540
  C       -4.8245050    -0.7978720    -0.0796260
  C        4.1550680     0.3942430     0.2262330
  C        2.9515180    -1.5184900    -0.6042170
  C        4.1638000    -0.9089480    -0.2775300
  H        0.6281830     2.1736720     0.0568290
  H       -0.3846330    -1.0553430     1.4003190
  H       -1.4458780     2.2938080    -1.0816330
  H       -2.6884880    -1.9242290     1.2030750
  H       -3.7690390     1.4656370    -1.2045950
  H        2.9453246     1.8863277     0.7640064
  H        0.8089320    -1.3225020    -0.7243660
  H       -5.3342430    -0.4266360    -0.9733710
  H       -4.8571770    -1.8911150    -0.1016080
  H       -5.3999470    -0.4674270     0.7922980
  H        5.0892700     0.8861500     0.4875790
  H        2.9428240    -2.5277610    -1.0100830
  H        5.1022700    -1.4382830    -0.4191710
units angstrom
no_reorient  #important for SAPT in psi4, default
symmetry c1  #important for SAPT in psi4, default
}

set PROPERTIES_ORIGIN ["COM"]
properties('MP2/aug-cc-pvtz', properties = ['dipole'])
--------------------------------------------------------------------------

    Molecular point group: c1
  Charge       = 0
  Multiplicity = 1
  Basis Set: AUG-CC-PVTZ
    Blend: AUG-CC-PVTZ
  Basis Set: (AUG-CC-PVTZ AUX)
    Blend: AUG-CC-PVTZ-JKFIT

    Orbital Energies [Eh]
    ---------------------

    Doubly Occupied:

       1A    -15.577606     2A    -11.281042     3A    -11.277494
       4A    -11.236627     5A    -11.236428     6A    -11.236266
       7A    -11.234888     8A    -11.234268     9A    -11.232682
      10A    -11.230082    11A    -11.224742    12A    -11.223193
      13A    -11.223190    14A    -11.204266    15A     -1.258593
      16A     -1.152496    17A     -1.128421    18A     -1.041668
      19A     -1.019928    20A     -1.013734    21A     -0.990700
      22A     -0.921889    23A     -0.850318    24A     -0.831995
      25A     -0.822888    26A     -0.784960    27A     -0.720471
      28A     -0.706888    29A     -0.680480    30A     -0.642692
      31A     -0.636707    32A     -0.619750    33A     -0.602556
      34A     -0.591311    35A     -0.587159    36A     -0.583355
      37A     -0.573345    38A     -0.546186    39A     -0.530446
      40A     -0.513630    41A     -0.504760    42A     -0.494469
      43A     -0.491204    44A     -0.486159    45A     -0.441606
      46A     -0.340067    47A     -0.335222    48A     -0.330467
      49A     -0.275514

  @DF-RHF Final Energy:  -554.45666727334446

   => Energetics <=

    Nuclear Repulsion Energy =            788.5089091081273409
    One-Electron Energy =               -2314.5215399061021344
    Two-Electron Energy =                 971.5559635246304424
    Total Energy =                       -554.4566672733444648
  Basis Set: (AUG-CC-PVTZ AUX)
    Blend: AUG-CC-PVTZ-RI
    Molecular point group: c1

    Geometry (in Angstrom), charge = 0, multiplicity = 1:

       Center              X                  Y                   Z               Mass
    ------------   -----------------  -----------------  -----------------  -----------------
         N            0.513440284925     1.179980376176     0.292358605368    14.003074004430
         C           -0.783106715075     0.658529376176     0.151846605368    12.000000000000
         C            1.696510284925     0.445322376176     0.084008605368    12.000000000000
         C           -3.438799715075    -0.309481623824    -0.023962394632    12.000000000000
         C           -1.152924715075    -0.531404623824     0.799104605368    12.000000000000
         C           -1.755618715075     1.363541376176    -0.570216394632    12.000000000000
         C           -2.457784715075    -1.006701623824     0.695001605368    12.000000000000
         C           -3.065189715075     0.889809376176    -0.641019394632    12.000000000000
         C            2.916458284925     1.055086376176     0.418836605368    12.000000000000
         C            1.705461284925    -0.858799623824    -0.433412394632    12.000000000000
         C           -4.859004715075    -0.808596623824    -0.083184394632    12.000000000000
         C            4.120568284925     0.383518376176     0.222674605368    12.000000000000
         C            2.917018284925    -1.529214623824    -0.607775394632    12.000000000000
         C            4.129300284925    -0.919672623824    -0.281088394632    12.000000000000
         H            0.593683284925     2.162947376176     0.053270605368     1.007825032230
         H           -0.419132715075    -1.066067623824     1.396760605368     1.007825032230
         H           -1.480377715075     2.283083376176    -1.085191394632     1.007825032230
         H           -2.722987715075    -1.934953623824     1.199516605368     1.007825032230
         H           -3.803538715075     1.454912376176    -1.208153394632     1.007825032230
         H            2.910824884925     1.875603076176     0.760448005368     1.007825032230
         H            0.774432284925    -1.333226623824    -0.727924394632     1.007825032230
         H           -5.368742715075    -0.437360623824    -0.976929394632     1.007825032230
         H           -4.891676715075    -1.901839623824    -0.105166394632     1.007825032230
         H           -5.434446715075    -0.478151623824     0.788739605368     1.007825032230
         H            5.054770284925     0.875425376176     0.484020605368     1.007825032230
         H            2.908324284925    -2.538485623824    -1.013641394632     1.007825032230
         H            5.067770284925    -1.449007623824    -0.422729394632     1.007825032230

  Basis Set: AUG-CC-PVTZ
    Blend: AUG-CC-PVTZ
  Basis Set: (AUG-CC-PVTZ AUX)
    Blend: AUG-CC-PVTZ-JKFIT
	 Reference Energy          =    -554.4566672733444648 [Eh]
	 Singles Energy            =      -0.0000000000000000 [Eh]
	 Same-Spin Energy          =      -0.6236626081296269 [Eh]
	 Opposite-Spin Energy      =      -1.9521416531392957 [Eh]
	 Correlation Energy        =      -2.5758042612689227 [Eh]
	 Total Energy              =    -557.0324715346133644 [Eh]

	 ================> DF-SCS-MP2 Energies <==================
	-----------------------------------------------------------
	 SCS Same-Spin Scale       =       0.3333333333333333 [-]
	 SCS Opposite-Spin Scale   =       1.2000000000000000 [-]
	 SCS Same-Spin Energy      =      -0.2078875360432090 [Eh]
	 SCS Opposite-Spin Energy  =      -2.3425699837671545 [Eh]
	 SCS Correlation Energy    =      -2.5504575198103634 [Eh]
	 SCS Total Energy          =    -557.0071247931548442 [Eh]
	-----------------------------------------------------------

  Dipole Moment: [D]
     X:    -0.6469      Y:     0.6186      Z:    -0.3287     Total:     0.9535

*** Psi4 exiting successfully. Buy a developer a beer!
