                               Psi4 1.4a3.dev225

  ==> Input File <==

--------------------------------------------------------------------------
#psi4
#
memory 32 gb

molecule  {
0 1
  N        0.5479400     1.1907050     0.2959170
  C       -0.7486070     0.6692540     0.1554050
  C        1.7310100     0.4560470     0.0875670
  C       -3.4043000    -0.2987570    -0.0204040
  C       -1.1184250    -0.5206800     0.8026630
  C       -1.7211190     1.3742660    -0.5666580
  C       -2.4232850    -0.9959770     0.6985600
  C       -3.0306900     0.9005340    -0.6374610
  C        2.9509580     1.0658110     0.4223950
  C        1.7399610    -0.8480750    -0.4298540
  C       -4.8245050    -0.7978720    -0.0796260
  C        4.1550680     0.3942430     0.2262330
  C        2.9515180    -1.5184900    -0.6042170
  C        4.1638000    -0.9089480    -0.2775300
  H        0.6281830     2.1736720     0.0568290
  H       -0.3846330    -1.0553430     1.4003190
  H       -1.4458780     2.2938080    -1.0816330
  H       -2.6884880    -1.9242290     1.2030750
  H       -3.7690390     1.4656370    -1.2045950
  H        2.9440570     2.0709610     0.8408760
  H        0.8089320    -1.3225020    -0.7243660
  H       -5.3342430    -0.4266360    -0.9733710
  H       -4.8571770    -1.8911150    -0.1016080
  H       -5.3894434    -0.4734586     0.7763828
  H        5.0892700     0.8861500     0.4875790
  H        2.9428240    -2.5277610    -1.0100830
  H        5.1022700    -1.4382830    -0.4191710
units angstrom
no_reorient  #important for SAPT in psi4, default
symmetry c1  #important for SAPT in psi4, default
}

set PROPERTIES_ORIGIN ["COM"]
properties('MP2/aug-cc-pvtz', properties = ['dipole'])
--------------------------------------------------------------------------

    Molecular point group: c1
  Charge       = 0
  Multiplicity = 1
  Basis Set: AUG-CC-PVTZ
    Blend: AUG-CC-PVTZ
  Basis Set: (AUG-CC-PVTZ AUX)
    Blend: AUG-CC-PVTZ-JKFIT

    Orbital Energies [Eh]
    ---------------------

    Doubly Occupied:

       1A    -15.577250     2A    -11.282588     3A    -11.277293
       4A    -11.237846     5A    -11.237140     6A    -11.236107
       7A    -11.234763     8A    -11.234150     9A    -11.232549
      10A    -11.229989    11A    -11.228558    12A    -11.226012
      13A    -11.224408    14A    -11.220747    15A     -1.258152
      16A     -1.151851    17A     -1.128247    18A     -1.041039
      19A     -1.015835    20A     -1.010690    21A     -0.989767
      22A     -0.922523    23A     -0.842685    24A     -0.829812
      25A     -0.816800    26A     -0.785335    27A     -0.713202
      28A     -0.703982    29A     -0.668613    30A     -0.640447
      31A     -0.635136    32A     -0.619059    33A     -0.597597
      34A     -0.588234    35A     -0.585146    36A     -0.582298
      37A     -0.576030    38A     -0.545672    39A     -0.530517
      40A     -0.513297    41A     -0.501466    42A     -0.494818
      43A     -0.489673    44A     -0.485964    45A     -0.442000
      46A     -0.340241    47A     -0.335681    48A     -0.330989
      49A     -0.275757

  @DF-RHF Final Energy:  -554.49088449630119

   => Energetics <=

    Nuclear Repulsion Energy =            787.4283364426836442
    One-Electron Energy =               -2312.5025305785552519
    Two-Electron Energy =                 970.5833096395703024
    Total Energy =                       -554.4908844963011916
  Basis Set: (AUG-CC-PVTZ AUX)
    Blend: AUG-CC-PVTZ-RI
    Molecular point group: c1

    Geometry (in Angstrom), charge = 0, multiplicity = 1:

       Center              X                  Y                   Z               Mass
    ------------   -----------------  -----------------  -----------------  -----------------
         N            0.513389449163     1.178997336602     0.292023106952    14.003074004430
         C           -0.783157550837     0.657546336602     0.151511106952    12.000000000000
         C            1.696459449163     0.444339336602     0.083673106952    12.000000000000
         C           -3.438850550837    -0.310464663398    -0.024297893048    12.000000000000
         C           -1.152975550837    -0.532387663398     0.798769106952    12.000000000000
         C           -1.755669550837     1.362558336602    -0.570551893048    12.000000000000
         C           -2.457835550837    -1.007684663398     0.694666106952    12.000000000000
         C           -3.065240550837     0.888826336602    -0.641354893048    12.000000000000
         C            2.916407449163     1.054103336602     0.418501106952    12.000000000000
         C            1.705410449163    -0.859782663398    -0.433747893048    12.000000000000
         C           -4.859055550837    -0.809579663398    -0.083519893048    12.000000000000
         C            4.120517449163     0.382535336602     0.222339106952    12.000000000000
         C            2.916967449163    -1.530197663398    -0.608110893048    12.000000000000
         C            4.129249449163    -0.920655663398    -0.281423893048    12.000000000000
         H            0.593632449163     2.161964336602     0.052935106952     1.007825032230
         H           -0.419183550837    -1.067050663398     1.396425106952     1.007825032230
         H           -1.480428550837     2.282100336602    -1.085526893048     1.007825032230
         H           -2.723038550837    -1.935936663398     1.199181106952     1.007825032230
         H           -3.803589550837     1.453929336602    -1.208488893048     1.007825032230
         H            2.909506449163     2.059253336602     0.836982106952     1.007825032230
         H            0.774381449163    -1.334209663398    -0.728259893048     1.007825032230
         H           -5.368793550837    -0.438343663398    -0.977264893048     1.007825032230
         H           -4.891727550837    -1.902822663398    -0.105501893048     1.007825032230
         H           -5.423993950837    -0.485166263398     0.772488906952     1.007825032230
         H            5.054719449163     0.874442336602     0.483685106952     1.007825032230
         H            2.908273449163    -2.539468663398    -1.013976893048     1.007825032230
         H            5.067719449163    -1.449990663398    -0.423064893048     1.007825032230

  Basis Set: AUG-CC-PVTZ
    Blend: AUG-CC-PVTZ
  Basis Set: (AUG-CC-PVTZ AUX)
    Blend: AUG-CC-PVTZ-JKFIT
	 Reference Energy          =    -554.4908844963011916 [Eh]
	 Singles Energy            =      -0.0000000000000000 [Eh]
	 Same-Spin Energy          =      -0.6239246733310713 [Eh]
	 Opposite-Spin Energy      =      -1.9525539135319774 [Eh]
	 Correlation Energy        =      -2.5764785868630486 [Eh]
	 Total Energy              =    -557.0673630831641958 [Eh]

	 ================> DF-SCS-MP2 Energies <==================
	-----------------------------------------------------------
	 SCS Same-Spin Scale       =       0.3333333333333333 [-]
	 SCS Opposite-Spin Scale   =       1.2000000000000000 [-]
	 SCS Same-Spin Energy      =      -0.2079748911103571 [Eh]
	 SCS Opposite-Spin Energy  =      -2.3430646962383728 [Eh]
	 SCS Correlation Energy    =      -2.5510395873487299 [Eh]
	 SCS Total Energy          =    -557.0419240836499739 [Eh]
	-----------------------------------------------------------

  Dipole Moment: [D]
     X:    -0.6461      Y:     0.5778      Z:    -0.3353     Total:     0.9294

*** Psi4 exiting successfully. Buy a developer a beer!
