                               Psi4 1.4a3.dev225

  ==> Input File <==

--------------------------------------------------------------------------
#psi4
#
memory 32 gb

molecule  {
0 1
  N        0.5479400     1.1907050     0.2959170
  C       -0.7486070     0.6692540     0.1554050
  C        1.7310100     0.4560470     0.0875670
  C       -3.4009220    -0.3117444     0.0022071
  C       -1.1184250    -0.5206800     0.8026630
  C       -1.7211190     1.3742660    -0.5666580
  C       -2.4232850    -0.9959770     0.6985600
  C       -3.0306900     0.9005340    -0.6374610
  C        2.9509580     1.0658110     0.4223950
  C        1.7399610    -0.8480750    -0.4298540
  C       -4.8245050    -0.7978720    -0.0796260
  C        4.1550680     0.3942430     0.2262330
  C        2.9515180    -1.5184900    -0.6042170
  C        4.1638000    -0.9089480    -0.2775300
  H        0.6281830     2.1736720     0.0568290
  H       -0.3846330    -1.0553430     1.4003190
  H       -1.4458780     2.2938080    -1.0816330
  H       -2.6884880    -1.9242290     1.2030750
  H       -3.7690390     1.4656370    -1.2045950
  H        2.9440570     2.0709610     0.8408760
  H        0.8089320    -1.3225020    -0.7243660
  H       -5.3342430    -0.4266360    -0.9733710
  H       -4.8571770    -1.8911150    -0.1016080
  H       -5.3999470    -0.4674270     0.7922980
  H        5.0892700     0.8861500     0.4875790
  H        2.9428240    -2.5277610    -1.0100830
  H        5.1022700    -1.4382830    -0.4191710
units angstrom
no_reorient  #important for SAPT in psi4, default
symmetry c1  #important for SAPT in psi4, default
}

set PROPERTIES_ORIGIN ["COM"]
properties('MP2/aug-cc-pvtz', properties = ['dipole'])
--------------------------------------------------------------------------

    Molecular point group: c1
  Charge       = 0
  Multiplicity = 1
  Basis Set: AUG-CC-PVTZ
    Blend: AUG-CC-PVTZ
  Basis Set: (AUG-CC-PVTZ AUX)
    Blend: AUG-CC-PVTZ-JKFIT

    Orbital Energies [Eh]
    ---------------------

    Doubly Occupied:

       1A    -15.577241     2A    -11.282556     3A    -11.277241
       4A    -11.237787     5A    -11.237502     6A    -11.237064
       7A    -11.235727     8A    -11.233242     9A    -11.232020
      10A    -11.229455    11A    -11.228504    12A    -11.225893
      13A    -11.224341    14A    -11.223238    15A     -1.258145
      16A     -1.151896    17A     -1.128275    18A     -1.040969
      19A     -1.015753    20A     -1.010419    21A     -0.989553
      22A     -0.921659    23A     -0.842437    24A     -0.830605
      25A     -0.815464    26A     -0.785664    27A     -0.713084
      28A     -0.704264    29A     -0.668223    30A     -0.640605
      31A     -0.634909    32A     -0.618921    33A     -0.597480
      34A     -0.587954    35A     -0.584787    36A     -0.582744
      37A     -0.573538    38A     -0.545142    39A     -0.530954
      40A     -0.514255    41A     -0.501282    42A     -0.493910
      43A     -0.490702    44A     -0.484575    45A     -0.441863
      46A     -0.340363    47A     -0.335736    48A     -0.330941
      49A     -0.275495

  @DF-RHF Final Energy:  -554.49012150418855

   => Energetics <=

    Nuclear Repulsion Energy =            787.3539377129950481
    One-Electron Energy =               -2312.3593626494134696
    Two-Electron Energy =                 970.5153034322298709
    Total Energy =                       -554.4901215041885507
  Basis Set: (AUG-CC-PVTZ AUX)
    Blend: AUG-CC-PVTZ-RI
    Molecular point group: c1

    Geometry (in Angstrom), charge = 0, multiplicity = 1:

       Center              X                  Y                   Z               Mass
    ------------   -----------------  -----------------  -----------------  -----------------
         N            0.513225880490     1.179815283499     0.290453661816    14.003074004430
         C           -0.783321119510     0.658364283499     0.149941661816    12.000000000000
         C            1.696295880490     0.445157283499     0.082103661816    12.000000000000
         C           -3.435636119510    -0.322634116501    -0.003256238184    12.000000000000
         C           -1.153139119510    -0.531569716501     0.797199661816    12.000000000000
         C           -1.755833119510     1.363376283499    -0.572121338184    12.000000000000
         C           -2.457999119510    -1.006866716501     0.693096661816    12.000000000000
         C           -3.065404119510     0.889644283499    -0.642924338184    12.000000000000
         C            2.916243880490     1.054921283499     0.416931661816    12.000000000000
         C            1.705246880490    -0.858964716501    -0.435317338184    12.000000000000
         C           -4.859219119510    -0.808761716501    -0.085089338184    12.000000000000
         C            4.120353880490     0.383353283499     0.220769661816    12.000000000000
         C            2.916803880490    -1.529379716501    -0.609680338184    12.000000000000
         C            4.129085880490    -0.919837716501    -0.282993338184    12.000000000000
         H            0.593468880490     2.162782283499     0.051365661816     1.007825032230
         H           -0.419347119510    -1.066232716501     1.394855661816     1.007825032230
         H           -1.480592119510     2.282918283499    -1.087096338184     1.007825032230
         H           -2.723202119510    -1.935118716501     1.197611661816     1.007825032230
         H           -3.803753119510     1.454747283499    -1.210058338184     1.007825032230
         H            2.909342880490     2.060071283499     0.835412661816     1.007825032230
         H            0.774217880490    -1.333391716501    -0.729829338184     1.007825032230
         H           -5.368957119510    -0.437525716501    -0.978834338184     1.007825032230
         H           -4.891891119510    -1.902004716501    -0.107071338184     1.007825032230
         H           -5.434661119510    -0.478316716501     0.786834661816     1.007825032230
         H            5.054555880490     0.875260283499     0.482115661816     1.007825032230
         H            2.908109880490    -2.538650716501    -1.015546338184     1.007825032230
         H            5.067555880490    -1.449172716501    -0.424634338184     1.007825032230

  Basis Set: AUG-CC-PVTZ
    Blend: AUG-CC-PVTZ
  Basis Set: (AUG-CC-PVTZ AUX)
    Blend: AUG-CC-PVTZ-JKFIT
	 Reference Energy          =    -554.4901215041885507 [Eh]
	 Singles Energy            =      -0.0000000000000000 [Eh]
	 Same-Spin Energy          =      -0.6239475159355546 [Eh]
	 Opposite-Spin Energy      =      -1.9527240849006882 [Eh]
	 Correlation Energy        =      -2.5766716008362427 [Eh]
	 Total Energy              =    -557.0667931050247716 [Eh]

	 ================> DF-SCS-MP2 Energies <==================
	-----------------------------------------------------------
	 SCS Same-Spin Scale       =       0.3333333333333333 [-]
	 SCS Opposite-Spin Scale   =       1.2000000000000000 [-]
	 SCS Same-Spin Energy      =      -0.2079825053118515 [Eh]
	 SCS Opposite-Spin Energy  =      -2.3432689018808257 [Eh]
	 SCS Correlation Energy    =      -2.5512514071926771 [Eh]
	 SCS Total Energy          =    -557.0413729113812451 [Eh]
	-----------------------------------------------------------

  Dipole Moment: [D]
     X:    -0.6475      Y:     0.5874      Z:    -0.3554     Total:     0.9437

*** Psi4 exiting successfully. Buy a developer a beer!
