                               Psi4 1.4a3.dev225

  ==> Input File <==

--------------------------------------------------------------------------
#psi4
#
memory 32 gb

molecule  {
0 1
  N        0.5479400     1.1907050     0.2959170
  C       -0.7486070     0.6692540     0.1554050
  C        1.7310100     0.4560470     0.0875670
  C       -3.4043000    -0.2987570    -0.0204040
  C       -1.1184250    -0.5206800     0.8026630
  C       -1.7211190     1.3742660    -0.5666580
  C       -2.4232850    -0.9959770     0.6985600
  C       -3.0306900     0.9005340    -0.6374610
  C        2.9509580     1.0658110     0.4223950
  C        1.7399610    -0.8480750    -0.4298540
  C       -4.8245050    -0.7978720    -0.0796260
  C        4.1550680     0.3942430     0.2262330
  C        2.9515180    -1.5184900    -0.6042170
  C        4.1638000    -0.9089480    -0.2775300
  H        0.6281830     2.1736720     0.0568290
  H       -0.3846330    -1.0553430     1.4003190
  H       -1.4458780     2.2938080    -1.0816330
  H       -2.6884880    -1.9242290     1.2030750
  H       -3.7690390     1.4656370    -1.2045950
  H        2.9440570     2.0709610     0.8408760
  H        0.8089320    -1.3225020    -0.7243660
  H       -5.3342430    -0.4266360    -0.9733710
  H       -4.8601636    -1.9910502    -0.1036174
  H       -5.3999470    -0.4674270     0.7922980
  H        5.0892700     0.8861500     0.4875790
  H        2.9428240    -2.5277610    -1.0100830
  H        5.1022700    -1.4382830    -0.4191710
units angstrom
no_reorient  #important for SAPT in psi4, default
symmetry c1  #important for SAPT in psi4, default
}

set PROPERTIES_ORIGIN ["COM"]
properties('MP2/aug-cc-pvtz', properties = ['dipole'])
--------------------------------------------------------------------------

    Molecular point group: c1
  Charge       = 0
  Multiplicity = 1
  Basis Set: AUG-CC-PVTZ
    Blend: AUG-CC-PVTZ
  Basis Set: (AUG-CC-PVTZ AUX)
    Blend: AUG-CC-PVTZ-JKFIT

    Orbital Energies [Eh]
    ---------------------

    Doubly Occupied:

       1A    -15.577611     2A    -11.282809     3A    -11.277846
       4A    -11.238021     5A    -11.237312     6A    -11.237128
       7A    -11.235634     8A    -11.234994     9A    -11.234612
      10A    -11.233057    11A    -11.230303    12A    -11.228764
      13A    -11.226225    14A    -11.224593    15A     -1.258504
      16A     -1.152157    17A     -1.128430    18A     -1.039695
      19A     -1.016225    20A     -1.010922    21A     -0.988517
      22A     -0.916957    23A     -0.842895    24A     -0.829491
      25A     -0.816382    26A     -0.785020    27A     -0.713387
      28A     -0.704308    29A     -0.668298    30A     -0.640629
      31A     -0.633980    32A     -0.619158    33A     -0.597591
      34A     -0.588091    35A     -0.585380    36A     -0.582584
      37A     -0.569813    38A     -0.542647    39A     -0.522847
      40A     -0.513701    41A     -0.501794    42A     -0.492503
      43A     -0.490016    44A     -0.485924    45A     -0.441892
      46A     -0.340605    47A     -0.335947    48A     -0.331107
      49A     -0.276027

  @DF-RHF Final Energy:  -554.48432797762962

   => Energetics <=

    Nuclear Repulsion Energy =            786.9342323842184896
    One-Electron Energy =               -2311.5124556049322564
    Two-Electron Energy =                 970.0938952430842619
    Total Energy =                       -554.4843279776296185
  Basis Set: (AUG-CC-PVTZ AUX)
    Blend: AUG-CC-PVTZ-RI
    Molecular point group: c1

    Geometry (in Angstrom), charge = 0, multiplicity = 1:

       Center              X                  Y                   Z               Mass
    ------------   -----------------  -----------------  -----------------  -----------------
         N            0.513463700419     1.179514190333     0.291946568197    14.003074004430
         C           -0.783083299581     0.658063190333     0.151434568197    12.000000000000
         C            1.696533700419     0.444856190333     0.083596568197    12.000000000000
         C           -3.438776299581    -0.309947809667    -0.024374431803    12.000000000000
         C           -1.152901299581    -0.531870809667     0.798692568197    12.000000000000
         C           -1.755595299581     1.363075190333    -0.570628431803    12.000000000000
         C           -2.457761299581    -1.007167809667     0.694589568197    12.000000000000
         C           -3.065166299581     0.889343190333    -0.641431431803    12.000000000000
         C            2.916481700419     1.054620190333     0.418424568197    12.000000000000
         C            1.705484700419    -0.859265809667    -0.433824431803    12.000000000000
         C           -4.858981299581    -0.809062809667    -0.083596431803    12.000000000000
         C            4.120591700419     0.383052190333     0.222262568197    12.000000000000
         C            2.917041700419    -1.529680809667    -0.608187431803    12.000000000000
         C            4.129323700419    -0.920138809667    -0.281500431803    12.000000000000
         H            0.593706700419     2.162481190333     0.052858568197     1.007825032230
         H           -0.419109299581    -1.066533809667     1.396348568197     1.007825032230
         H           -1.480354299581     2.282617190333    -1.085603431803     1.007825032230
         H           -2.722964299581    -1.935419809667     1.199104568197     1.007825032230
         H           -3.803515299581     1.454446190333    -1.208565431803     1.007825032230
         H            2.909580700419     2.059770190333     0.836905568197     1.007825032230
         H            0.774455700419    -1.333692809667    -0.728336431803     1.007825032230
         H           -5.368719299581    -0.437826809667    -0.977341431803     1.007825032230
         H           -4.894639899581    -2.002241009667    -0.107587831803     1.007825032230
         H           -5.434423299581    -0.478617809667     0.788327568197     1.007825032230
         H            5.054793700419     0.874959190333     0.483608568197     1.007825032230
         H            2.908347700419    -2.538951809667    -1.014053431803     1.007825032230
         H            5.067793700419    -1.449473809667    -0.423141431803     1.007825032230

  Basis Set: AUG-CC-PVTZ
    Blend: AUG-CC-PVTZ
  Basis Set: (AUG-CC-PVTZ AUX)
    Blend: AUG-CC-PVTZ-JKFIT
	 Reference Energy          =    -554.4843279776296185 [Eh]
	 Singles Energy            =      -0.0000000000000000 [Eh]
	 Same-Spin Energy          =      -0.6239225917121876 [Eh]
	 Opposite-Spin Energy      =      -1.9533916388083132 [Eh]
	 Correlation Energy        =      -2.5773142305205008 [Eh]
	 Total Energy              =    -557.0616422081501469 [Eh]

	 ================> DF-SCS-MP2 Energies <==================
	-----------------------------------------------------------
	 SCS Same-Spin Scale       =       0.3333333333333333 [-]
	 SCS Opposite-Spin Scale   =       1.2000000000000000 [-]
	 SCS Same-Spin Energy      =      -0.2079741972373959 [Eh]
	 SCS Opposite-Spin Energy  =      -2.3440699665699758 [Eh]
	 SCS Correlation Energy    =      -2.5520441638073716 [Eh]
	 SCS Total Energy          =    -557.0363721414370275 [Eh]
	-----------------------------------------------------------

  Dipole Moment: [D]
     X:    -0.5910      Y:     0.6365      Z:    -0.3392     Total:     0.9324

*** Psi4 exiting successfully. Buy a developer a beer!
