                               Psi4 1.4a3.dev225

  ==> Input File <==

--------------------------------------------------------------------------
#psi4
#
memory 32 gb

molecule  {
0 1
  N        0.5479400     1.1907050     0.2959170
  C       -0.7486070     0.6692540     0.1554050
  C        1.7730190     0.4299604     0.0801688
  C       -3.4043000    -0.2987570    -0.0204040
  C       -1.1184250    -0.5206800     0.8026630
  C       -1.7211190     1.3742660    -0.5666580
  C       -2.4232850    -0.9959770     0.6985600
  C       -3.0306900     0.9005340    -0.6374610
  C        2.9509580     1.0658110     0.4223950
  C        1.7399610    -0.8480750    -0.4298540
  C       -4.8245050    -0.7978720    -0.0796260
  C        4.1550680     0.3942430     0.2262330
  C        2.9515180    -1.5184900    -0.6042170
  C        4.1638000    -0.9089480    -0.2775300
  H        0.6281830     2.1736720     0.0568290
  H       -0.3846330    -1.0553430     1.4003190
  H       -1.4458780     2.2938080    -1.0816330
  H       -2.6884880    -1.9242290     1.2030750
  H       -3.7690390     1.4656370    -1.2045950
  H        2.9440570     2.0709610     0.8408760
  H        0.8089320    -1.3225020    -0.7243660
  H       -5.3342430    -0.4266360    -0.9733710
  H       -4.8571770    -1.8911150    -0.1016080
  H       -5.3999470    -0.4674270     0.7922980
  H        5.0892700     0.8861500     0.4875790
  H        2.9428240    -2.5277610    -1.0100830
  H        5.1022700    -1.4382830    -0.4191710
units angstrom
no_reorient  #important for SAPT in psi4, default
symmetry c1  #important for SAPT in psi4, default
}

set PROPERTIES_ORIGIN ["COM"]
properties('MP2/aug-cc-pvtz', properties = ['dipole'])
--------------------------------------------------------------------------

    Molecular point group: c1
  Charge       = 0
  Multiplicity = 1
  Basis Set: AUG-CC-PVTZ
    Blend: AUG-CC-PVTZ
  Basis Set: (AUG-CC-PVTZ AUX)
    Blend: AUG-CC-PVTZ-JKFIT

    Orbital Energies [Eh]
    ---------------------

    Doubly Occupied:

       1A    -15.572425     2A    -11.280333     3A    -11.274697
       4A    -11.239813     5A    -11.239142     6A    -11.233986
       7A    -11.232932     8A    -11.232247     9A    -11.229829
      10A    -11.229501    11A    -11.227523    12A    -11.227503
      13A    -11.226344    14A    -11.221676    15A     -1.245367
      16A     -1.154201    17A     -1.128658    18A     -1.037886
      19A     -1.018609    20A     -1.011278    21A     -0.992586
      22A     -0.918297    23A     -0.841976    24A     -0.830054
      25A     -0.816483    26A     -0.784554    27A     -0.711643
      28A     -0.699424    29A     -0.664960    30A     -0.638627
      31A     -0.633387    32A     -0.621791    33A     -0.597040
      34A     -0.588620    35A     -0.585279    36A     -0.581480
      37A     -0.571778    38A     -0.543055    39A     -0.529147
      40A     -0.511916    41A     -0.502820    42A     -0.496518
      43A     -0.492500    44A     -0.483484    45A     -0.438554
      46A     -0.341089    47A     -0.335979    48A     -0.332973
      49A     -0.277484

  @DF-RHF Final Energy:  -554.48840306294869

   => Energetics <=

    Nuclear Repulsion Energy =            787.2930798887678066
    One-Electron Energy =               -2312.3080736379574773
    Two-Electron Energy =                 970.5265906862409793
    Total Energy =                       -554.4884030629486915
  Basis Set: (AUG-CC-PVTZ AUX)
    Blend: AUG-CC-PVTZ-RI
    Molecular point group: c1

    Geometry (in Angstrom), charge = 0, multiplicity = 1:

       Center              X                  Y                   Z               Mass
    ------------   -----------------  -----------------  -----------------  -----------------
         N            0.510694150020     1.180673755809     0.292420358489    14.003074004430
         C           -0.785852849980     0.659222755809     0.151908358489    12.000000000000
         C            1.735773150020     0.419929155809     0.076672158489    12.000000000000
         C           -3.441545849980    -0.308788244191    -0.023900641511    12.000000000000
         C           -1.155670849980    -0.530711244191     0.799166358489    12.000000000000
         C           -1.758364849980     1.364234755809    -0.570154641511    12.000000000000
         C           -2.460530849980    -1.006008244191     0.695063358489    12.000000000000
         C           -3.067935849980     0.890502755809    -0.640957641511    12.000000000000
         C            2.913712150020     1.055779755809     0.418898358489    12.000000000000
         C            1.702715150020    -0.858106244191    -0.433350641511    12.000000000000
         C           -4.861750849980    -0.807903244191    -0.083122641511    12.000000000000
         C            4.117822150020     0.384211755809     0.222736358489    12.000000000000
         C            2.914272150020    -1.528521244191    -0.607713641511    12.000000000000
         C            4.126554150020    -0.918979244191    -0.281026641511    12.000000000000
         H            0.590937150020     2.163640755809     0.053332358489     1.007825032230
         H           -0.421878849980    -1.065374244191     1.396822358489     1.007825032230
         H           -1.483123849980     2.283776755809    -1.085129641511     1.007825032230
         H           -2.725733849980    -1.934260244191     1.199578358489     1.007825032230
         H           -3.806284849980     1.455605755809    -1.208091641511     1.007825032230
         H            2.906811150020     2.060929755809     0.837379358489     1.007825032230
         H            0.771686150020    -1.332533244191    -0.727862641511     1.007825032230
         H           -5.371488849980    -0.436667244191    -0.976867641511     1.007825032230
         H           -4.894422849980    -1.901146244191    -0.105104641511     1.007825032230
         H           -5.437192849980    -0.477458244191     0.788801358489     1.007825032230
         H            5.052024150020     0.876118755809     0.484082358489     1.007825032230
         H            2.905578150020    -2.537792244191    -1.013579641511     1.007825032230
         H            5.065024150020    -1.448314244191    -0.422667641511     1.007825032230

  Basis Set: AUG-CC-PVTZ
    Blend: AUG-CC-PVTZ
  Basis Set: (AUG-CC-PVTZ AUX)
    Blend: AUG-CC-PVTZ-JKFIT
	 Reference Energy          =    -554.4884030629486915 [Eh]
	 Singles Energy            =      -0.0000000000000000 [Eh]
	 Same-Spin Energy          =      -0.6236943372566612 [Eh]
	 Opposite-Spin Energy      =      -1.9524536626893800 [Eh]
	 Correlation Energy        =      -2.5761479999460413 [Eh]
	 Total Energy              =    -557.0645510628946795 [Eh]

	 ================> DF-SCS-MP2 Energies <==================
	-----------------------------------------------------------
	 SCS Same-Spin Scale       =       0.3333333333333333 [-]
	 SCS Opposite-Spin Scale   =       1.2000000000000000 [-]
	 SCS Same-Spin Energy      =      -0.2078981124188871 [Eh]
	 SCS Opposite-Spin Energy  =      -2.3429443952272559 [Eh]
	 SCS Correlation Energy    =      -2.5508425076461432 [Eh]
	 SCS Total Energy          =    -557.0392455705948578 [Eh]
	-----------------------------------------------------------

  Dipole Moment: [D]
     X:    -0.2262      Y:     0.4684      Z:    -0.3835     Total:     0.6462

*** Psi4 exiting successfully. Buy a developer a beer!
