                               Psi4 1.4a3.dev225

  ==> Input File <==

--------------------------------------------------------------------------
#psi4
#
memory 32 gb

molecule  {
0 1
  N        0.5479400     1.1907050     0.2959170
  C       -0.7486070     0.6692540     0.1554050
  C        1.7310100     0.4560470     0.0875670
  C       -3.3364367    -0.2313182    -0.0409441
  C       -1.1184250    -0.5206800     0.8026630
  C       -1.7211190     1.3742660    -0.5666580
  C       -2.4232850    -0.9959770     0.6985600
  C       -3.0306900     0.9005340    -0.6374610
  C        2.9509580     1.0658110     0.4223950
  C        1.7399610    -0.8480750    -0.4298540
  C       -4.8245050    -0.7978720    -0.0796260
  C        4.1550680     0.3942430     0.2262330
  C        2.9515180    -1.5184900    -0.6042170
  C        4.1638000    -0.9089480    -0.2775300
  H        0.6281830     2.1736720     0.0568290
  H       -0.3846330    -1.0553430     1.4003190
  H       -1.4458780     2.2938080    -1.0816330
  H       -2.6884880    -1.9242290     1.2030750
  H       -3.7690390     1.4656370    -1.2045950
  H        2.9440570     2.0709610     0.8408760
  H        0.8089320    -1.3225020    -0.7243660
  H       -5.3342430    -0.4266360    -0.9733710
  H       -4.8571770    -1.8911150    -0.1016080
  H       -5.3999470    -0.4674270     0.7922980
  H        5.0892700     0.8861500     0.4875790
  H        2.9428240    -2.5277610    -1.0100830
  H        5.1022700    -1.4382830    -0.4191710
units angstrom
no_reorient  #important for SAPT in psi4, default
symmetry c1  #important for SAPT in psi4, default
}

set PROPERTIES_ORIGIN ["COM"]
properties('MP2/aug-cc-pvtz', properties = ['dipole'])
--------------------------------------------------------------------------

    Molecular point group: c1
  Charge       = 0
  Multiplicity = 1
  Basis Set: AUG-CC-PVTZ
    Blend: AUG-CC-PVTZ
  Basis Set: (AUG-CC-PVTZ AUX)
    Blend: AUG-CC-PVTZ-JKFIT

    Orbital Energies [Eh]
    ---------------------

    Doubly Occupied:

       1A    -15.576932     2A    -11.282630     3A    -11.276769
       4A    -11.237989     5A    -11.237349     6A    -11.235874
       7A    -11.232018     8A    -11.231496     9A    -11.230557
      10A    -11.228624    11A    -11.226277    12A    -11.224521
      13A    -11.224513    14A    -11.224228    15A     -1.258232
      16A     -1.157938    17A     -1.130958    18A     -1.035966
      19A     -1.019580    20A     -1.011805    21A     -0.984878
      22A     -0.918367    23A     -0.847851    24A     -0.828610
      25A     -0.820270    26A     -0.785641    27A     -0.714627
      28A     -0.704765    29A     -0.669161    30A     -0.636460
      31A     -0.634385    32A     -0.621246    33A     -0.598340
      34A     -0.593654    35A     -0.585885    36A     -0.582781
      37A     -0.567144    38A     -0.543830    39A     -0.529908
      40A     -0.510523    41A     -0.502718    42A     -0.498779
      43A     -0.490680    44A     -0.470267    45A     -0.445836
      46A     -0.344324    47A     -0.337104    48A     -0.331859
      49A     -0.278178

  @DF-RHF Final Energy:  -554.48083072070040

   => Energetics <=

    Nuclear Repulsion Energy =            788.4643255981725360
    One-Electron Energy =               -2314.5656573330838910
    Two-Electron Energy =                 971.6205010142109586
    Total Energy =                       -554.4808307207003963
  Basis Set: (AUG-CC-PVTZ AUX)
    Blend: AUG-CC-PVTZ-RI
    Molecular point group: c1

    Geometry (in Angstrom), charge = 0, multiplicity = 1:

       Center              X                  Y                   Z               Mass
    ------------   -----------------  -----------------  -----------------  -----------------
         N            0.508999756421     1.174544452789     0.293281629196    14.003074004430
         C           -0.787547243579     0.653093452789     0.152769629196    12.000000000000
         C            1.692069756421     0.439886452789     0.084931629196    12.000000000000
         C           -3.375376943579    -0.247478747211    -0.043579470804    12.000000000000
         C           -1.157365243579    -0.536840547211     0.800027629196    12.000000000000
         C           -1.760059243579     1.358105452789    -0.569293370804    12.000000000000
         C           -2.462225243579    -1.012137547211     0.695924629196    12.000000000000
         C           -3.069630243579     0.884373452789    -0.640096370804    12.000000000000
         C            2.912017756421     1.049650452789     0.419759629196    12.000000000000
         C            1.701020756421    -0.864235547211    -0.432489370804    12.000000000000
         C           -4.863445243579    -0.814032547211    -0.082261370804    12.000000000000
         C            4.116127756421     0.378082452789     0.223597629196    12.000000000000
         C            2.912577756421    -1.534650547211    -0.606852370804    12.000000000000
         C            4.124859756421    -0.925108547211    -0.280165370804    12.000000000000
         H            0.589242756421     2.157511452789     0.054193629196     1.007825032230
         H           -0.423573243579    -1.071503547211     1.397683629196     1.007825032230
         H           -1.484818243579     2.277647452789    -1.084268370804     1.007825032230
         H           -2.727428243579    -1.940389547211     1.200439629196     1.007825032230
         H           -3.807979243579     1.449476452789    -1.207230370804     1.007825032230
         H            2.905116756421     2.054800452789     0.838240629196     1.007825032230
         H            0.769991756421    -1.338662547211    -0.727001370804     1.007825032230
         H           -5.373183243579    -0.442796547211    -0.976006370804     1.007825032230
         H           -4.896117243579    -1.907275547211    -0.104243370804     1.007825032230
         H           -5.438887243579    -0.483587547211     0.789662629196     1.007825032230
         H            5.050329756421     0.869989452789     0.484943629196     1.007825032230
         H            2.903883756421    -2.543921547211    -1.012718370804     1.007825032230
         H            5.063329756421    -1.454443547211    -0.421806370804     1.007825032230

  Basis Set: AUG-CC-PVTZ
    Blend: AUG-CC-PVTZ
  Basis Set: (AUG-CC-PVTZ AUX)
    Blend: AUG-CC-PVTZ-JKFIT
	 Reference Energy          =    -554.4808307207003963 [Eh]
	 Singles Energy            =      -0.0000000000000000 [Eh]
	 Same-Spin Energy          =      -0.6233540363745295 [Eh]
	 Opposite-Spin Energy      =      -1.9521861248069807 [Eh]
	 Correlation Energy        =      -2.5755401611815101 [Eh]
	 Total Energy              =    -557.0563708818818895 [Eh]

	 ================> DF-SCS-MP2 Energies <==================
	-----------------------------------------------------------
	 SCS Same-Spin Scale       =       0.3333333333333333 [-]
	 SCS Opposite-Spin Scale   =       1.2000000000000000 [-]
	 SCS Same-Spin Energy      =      -0.2077846787915098 [Eh]
	 SCS Opposite-Spin Energy  =      -2.3426233497683766 [Eh]
	 SCS Correlation Energy    =      -2.5504080285598865 [Eh]
	 SCS Total Energy          =    -557.0312387492602966 [Eh]
	-----------------------------------------------------------

  Dipole Moment: [D]
     X:    -0.5266      Y:     0.5855      Z:    -0.3196     Total:     0.8498

*** Psi4 exiting successfully. Buy a developer a beer!
