                               Psi4 1.4a3.dev225

  ==> Input File <==

--------------------------------------------------------------------------
#psi4
#
memory 32 gb

molecule  {
0 1
  N        0.5479400     1.1907050     0.2959170
  C       -0.7486070     0.6692540     0.1554050
  C        1.7310100     0.4560470     0.0875670
  C       -3.4043000    -0.2987570    -0.0204040
  C       -1.1184250    -0.5206800     0.8026630
  C       -1.7211190     1.3742660    -0.5666580
  C       -2.4232850    -0.9959770     0.6985600
  C       -3.0306900     0.9005340    -0.6374610
  C        2.9509580     1.0658110     0.4223950
  C        1.7399610    -0.8480750    -0.4298540
  C       -4.8245050    -0.7978720    -0.0796260
  C        4.1550680     0.3942430     0.2262330
  C        2.9515180    -1.5184900    -0.6042170
  C        4.1811720    -0.9002132    -0.2728486
  H        0.6281830     2.1736720     0.0568290
  H       -0.3846330    -1.0553430     1.4003190
  H       -1.4458780     2.2938080    -1.0816330
  H       -2.6884880    -1.9242290     1.2030750
  H       -3.7690390     1.4656370    -1.2045950
  H        2.9440570     2.0709610     0.8408760
  H        0.8089320    -1.3225020    -0.7243660
  H       -5.3342430    -0.4266360    -0.9733710
  H       -4.8571770    -1.8911150    -0.1016080
  H       -5.3999470    -0.4674270     0.7922980
  H        5.0892700     0.8861500     0.4875790
  H        2.9428240    -2.5277610    -1.0100830
  H        5.1022700    -1.4382830    -0.4191710
units angstrom
no_reorient  #important for SAPT in psi4, default
symmetry c1  #important for SAPT in psi4, default
}

set PROPERTIES_ORIGIN ["COM"]
properties('MP2/aug-cc-pvtz', properties = ['dipole'])
--------------------------------------------------------------------------

    Molecular point group: c1
  Charge       = 0
  Multiplicity = 1
  Basis Set: AUG-CC-PVTZ
    Blend: AUG-CC-PVTZ
  Basis Set: (AUG-CC-PVTZ AUX)
    Blend: AUG-CC-PVTZ-JKFIT

    Orbital Energies [Eh]
    ---------------------

    Doubly Occupied:

       1A    -15.577468     2A    -11.282934     3A    -11.277493
       4A    -11.239551     5A    -11.236739     6A    -11.236327
       7A    -11.234964     8A    -11.234353     9A    -11.232710
      10A    -11.230169    11A    -11.228046    12A    -11.226535
      13A    -11.224611    14A    -11.223240    15A     -1.258336
      16A     -1.151652    17A     -1.127604    18A     -1.040512
      19A     -1.016145    20A     -1.010538    21A     -0.989249
      22A     -0.921358    23A     -0.843192    24A     -0.828636
      25A     -0.817751    26A     -0.785154    27A     -0.713023
      28A     -0.704040    29A     -0.670059    30A     -0.640739
      31A     -0.635148    32A     -0.618548    33A     -0.598101
      34A     -0.587756    35A     -0.584912    36A     -0.581467
      37A     -0.573424    38A     -0.545720    39A     -0.530581
      40A     -0.515132    41A     -0.502424    42A     -0.494636
      43A     -0.487926    44A     -0.486068    45A     -0.441518
      46A     -0.340587    47A     -0.335651    48A     -0.330501
      49A     -0.275669

  @DF-RHF Final Energy:  -554.49028547465946

   => Energetics <=

    Nuclear Repulsion Energy =            787.1133082621661288
    One-Electron Energy =               -2311.8693952599819568
    Two-Electron Energy =                 970.2658015231563695
    Total Energy =                       -554.4902854746594585
  Basis Set: (AUG-CC-PVTZ AUX)
    Blend: AUG-CC-PVTZ-RI
    Molecular point group: c1

    Geometry (in Angstrom), charge = 0, multiplicity = 1:

       Center              X                  Y                   Z               Mass
    ------------   -----------------  -----------------  -----------------  -----------------
         N            0.512308766354     1.178391692196     0.291628706930    14.003074004430
         C           -0.784238233646     0.656940692196     0.151116706930    12.000000000000
         C            1.695378766354     0.443733692196     0.083278706930    12.000000000000
         C           -3.439931233646    -0.311070307804    -0.024692293070    12.000000000000
         C           -1.154056233646    -0.532993307804     0.798374706930    12.000000000000
         C           -1.756750233646     1.361952692196    -0.570946293070    12.000000000000
         C           -2.458916233646    -1.008290307804     0.694271706930    12.000000000000
         C           -3.066321233646     0.888220692196    -0.641749293070    12.000000000000
         C            2.915326766354     1.053497692196     0.418106706930    12.000000000000
         C            1.704329766354    -0.860388307804    -0.434142293070    12.000000000000
         C           -4.860136233646    -0.810185307804    -0.083914293070    12.000000000000
         C            4.119436766354     0.381929692196     0.221944706930    12.000000000000
         C            2.915886766354    -1.530803307804    -0.608505293070    12.000000000000
         C            4.145540766354    -0.912526507804    -0.277136893070    12.000000000000
         H            0.592551766354     2.161358692196     0.052540706930     1.007825032230
         H           -0.420264233646    -1.067656307804     1.396030706930     1.007825032230
         H           -1.481509233646     2.281494692196    -1.085921293070     1.007825032230
         H           -2.724119233646    -1.936542307804     1.198786706930     1.007825032230
         H           -3.804670233646     1.453323692196    -1.208883293070     1.007825032230
         H            2.908425766354     2.058647692196     0.836587706930     1.007825032230
         H            0.773300766354    -1.334815307804    -0.728654293070     1.007825032230
         H           -5.369874233646    -0.438949307804    -0.977659293070     1.007825032230
         H           -4.892808233646    -1.903428307804    -0.105896293070     1.007825032230
         H           -5.435578233646    -0.479740307804     0.788009706930     1.007825032230
         H            5.053638766354     0.873836692196     0.483290706930     1.007825032230
         H            2.907192766354    -2.540074307804    -1.014371293070     1.007825032230
         H            5.066638766354    -1.450596307804    -0.423459293070     1.007825032230

  Basis Set: AUG-CC-PVTZ
    Blend: AUG-CC-PVTZ
  Basis Set: (AUG-CC-PVTZ AUX)
    Blend: AUG-CC-PVTZ-JKFIT
	 Reference Energy          =    -554.4902854746594585 [Eh]
	 Singles Energy            =      -0.0000000000000000 [Eh]
	 Same-Spin Energy          =      -0.6239060221348152 [Eh]
	 Opposite-Spin Energy      =      -1.9527256089079350 [Eh]
	 Correlation Energy        =      -2.5766316310427504 [Eh]
	 Total Energy              =    -557.0669171057022595 [Eh]

	 ================> DF-SCS-MP2 Energies <==================
	-----------------------------------------------------------
	 SCS Same-Spin Scale       =       0.3333333333333333 [-]
	 SCS Opposite-Spin Scale   =       1.2000000000000000 [-]
	 SCS Same-Spin Energy      =      -0.2079686740449384 [Eh]
	 SCS Opposite-Spin Energy  =      -2.3432707306895217 [Eh]
	 SCS Correlation Energy    =      -2.5512394047344600 [Eh]
	 SCS Total Energy          =    -557.0415248793939327 [Eh]
	-----------------------------------------------------------

  Dipole Moment: [D]
     X:    -0.6456      Y:     0.5701      Z:    -0.3448     Total:     0.9278

*** Psi4 exiting successfully. Buy a developer a beer!
