                               Psi4 1.4a3.dev225

  ==> Input File <==

--------------------------------------------------------------------------
#psi4
#
memory 32 gb

molecule  {
0 1
  N        0.5479400     1.1907050     0.2959170
  C       -0.7486070     0.6692540     0.1554050
  C        1.7310100     0.4560470     0.0875670
  C       -3.4043000    -0.2987570    -0.0204040
  C       -1.1184250    -0.5206800     0.8026630
  C       -1.7211190     1.3742660    -0.5666580
  C       -2.4232850    -0.9959770     0.6985600
  C       -3.0306900     0.9005340    -0.6374610
  C        2.9509580     1.0658110     0.4223950
  C        1.7399610    -0.8480750    -0.4298540
  C       -4.8245050    -0.7978720    -0.0796260
  C        4.1550680     0.3942430     0.2262330
  C        2.9515180    -1.5184900    -0.6042170
  C        4.1638000    -0.9089480    -0.2775300
  H        0.6242294     2.1252406     0.0686090
  H       -0.3846330    -1.0553430     1.4003190
  H       -1.4458780     2.2938080    -1.0816330
  H       -2.6884880    -1.9242290     1.2030750
  H       -3.7690390     1.4656370    -1.2045950
  H        2.9440570     2.0709610     0.8408760
  H        0.8089320    -1.3225020    -0.7243660
  H       -5.3342430    -0.4266360    -0.9733710
  H       -4.8571770    -1.8911150    -0.1016080
  H       -5.3999470    -0.4674270     0.7922980
  H        5.0892700     0.8861500     0.4875790
  H        2.9428240    -2.5277610    -1.0100830
  H        5.1022700    -1.4382830    -0.4191710
units angstrom
no_reorient  #important for SAPT in psi4, default
symmetry c1  #important for SAPT in psi4, default
}

set PROPERTIES_ORIGIN ["COM"]
properties('MP2/aug-cc-pvtz', properties = ['dipole'])
--------------------------------------------------------------------------

    Molecular point group: c1
  Charge       = 0
  Multiplicity = 1
  Basis Set: AUG-CC-PVTZ
    Blend: AUG-CC-PVTZ
  Basis Set: (AUG-CC-PVTZ AUX)
    Blend: AUG-CC-PVTZ-JKFIT

    Orbital Energies [Eh]
    ---------------------

    Doubly Occupied:

       1A    -15.572275     2A    -11.282611     3A    -11.277304
       4A    -11.238003     5A    -11.237267     6A    -11.236366
       7A    -11.234962     8A    -11.234324     9A    -11.232799
      10A    -11.230073    11A    -11.228802    12A    -11.226144
      13A    -11.224608    14A    -11.223256    15A     -1.263432
      16A     -1.152029    17A     -1.129495    18A     -1.041115
      19A     -1.016184    20A     -1.010838    21A     -0.991027
      22A     -0.922840    23A     -0.844068    24A     -0.829925
      25A     -0.817119    26A     -0.787551    27A     -0.714232
      28A     -0.710477    29A     -0.669092    30A     -0.640496
      31A     -0.635683    32A     -0.619577    33A     -0.598927
      34A     -0.589282    35A     -0.585304    36A     -0.582464
      37A     -0.573440    38A     -0.545977    39A     -0.530859
      40A     -0.513469    41A     -0.501444    42A     -0.495090
      43A     -0.489918    44A     -0.486246    45A     -0.442296
      46A     -0.340377    47A     -0.335824    48A     -0.331262
      49A     -0.276217

  @DF-RHF Final Energy:  -554.49067189680386

   => Energetics <=

    Nuclear Repulsion Energy =            787.6662330238186769
    One-Electron Energy =               -2312.9290678067495719
    Two-Electron Energy =                 970.7721628861270347
    Total Energy =                       -554.4906718968038604
  Basis Set: (AUG-CC-PVTZ AUX)
    Blend: AUG-CC-PVTZ-RI
    Molecular point group: c1

    Geometry (in Angstrom), charge = 0, multiplicity = 1:

       Center              X                  Y                   Z               Mass
    ------------   -----------------  -----------------  -----------------  -----------------
         N            0.513469022872     1.179230708856     0.291870670119    14.003074004430
         C           -0.783077977128     0.657779708856     0.151358670119    12.000000000000
         C            1.696539022872     0.444572708856     0.083520670119    12.000000000000
         C           -3.438770977128    -0.310231291144    -0.024450329881    12.000000000000
         C           -1.152895977128    -0.532154291144     0.798616670119    12.000000000000
         C           -1.755589977128     1.362791708856    -0.570704329881    12.000000000000
         C           -2.457755977128    -1.007451291144     0.694513670119    12.000000000000
         C           -3.065160977128     0.889059708856    -0.641507329881    12.000000000000
         C            2.916487022872     1.054336708856     0.418348670119    12.000000000000
         C            1.705490022872    -0.859549291144    -0.433900329881    12.000000000000
         C           -4.858975977128    -0.809346291144    -0.083672329881    12.000000000000
         C            4.120597022872     0.382768708856     0.222186670119    12.000000000000
         C            2.917047022872    -1.529964291144    -0.608263329881    12.000000000000
         C            4.129329022872    -0.920422291144    -0.281576329881    12.000000000000
         H            0.589758422872     2.113766308856     0.064562670119     1.007825032230
         H           -0.419103977128    -1.066817291144     1.396272670119     1.007825032230
         H           -1.480348977128     2.282333708856    -1.085679329881     1.007825032230
         H           -2.722958977128    -1.935703291144     1.199028670119     1.007825032230
         H           -3.803509977128     1.454162708856    -1.208641329881     1.007825032230
         H            2.909586022872     2.059486708856     0.836829670119     1.007825032230
         H            0.774461022872    -1.333976291144    -0.728412329881     1.007825032230
         H           -5.368713977128    -0.438110291144    -0.977417329881     1.007825032230
         H           -4.891647977128    -1.902589291144    -0.105654329881     1.007825032230
         H           -5.434417977128    -0.478901291144     0.788251670119     1.007825032230
         H            5.054799022872     0.874675708856     0.483532670119     1.007825032230
         H            2.908353022872    -2.539235291144    -1.014129329881     1.007825032230
         H            5.067799022872    -1.449757291144    -0.423217329881     1.007825032230

  Basis Set: AUG-CC-PVTZ
    Blend: AUG-CC-PVTZ
  Basis Set: (AUG-CC-PVTZ AUX)
    Blend: AUG-CC-PVTZ-JKFIT
	 Reference Energy          =    -554.4906718968038604 [Eh]
	 Singles Energy            =      -0.0000000000000000 [Eh]
	 Same-Spin Energy          =      -0.6234966670326241 [Eh]
	 Opposite-Spin Energy      =      -1.9516966837590783 [Eh]
	 Correlation Energy        =      -2.5751933507917024 [Eh]
	 Total Energy              =    -557.0658652475955250 [Eh]

	 ================> DF-SCS-MP2 Energies <==================
	-----------------------------------------------------------
	 SCS Same-Spin Scale       =       0.3333333333333333 [-]
	 SCS Opposite-Spin Scale   =       1.2000000000000000 [-]
	 SCS Same-Spin Energy      =      -0.2078322223442080 [Eh]
	 SCS Opposite-Spin Energy  =      -2.3420360205108941 [Eh]
	 SCS Correlation Energy    =      -2.5498682428551023 [Eh]
	 SCS Total Energy          =    -557.0405401396590150 [Eh]
	-----------------------------------------------------------

  Dipole Moment: [D]
     X:    -0.6369      Y:     0.5424      Z:    -0.3351     Total:     0.9012

*** Psi4 exiting successfully. Buy a developer a beer!
