                               Psi4 1.4a3.dev225

  ==> Input File <==

--------------------------------------------------------------------------
#psi4
#
memory 32 gb

molecule  {
0 1
  N        0.5479400     1.1907050     0.2959170
  C       -0.7486070     0.6692540     0.1554050
  C        1.6890010     0.4821336     0.0949652
  C       -3.4043000    -0.2987570    -0.0204040
  C       -1.1184250    -0.5206800     0.8026630
  C       -1.7211190     1.3742660    -0.5666580
  C       -2.4232850    -0.9959770     0.6985600
  C       -3.0306900     0.9005340    -0.6374610
  C        2.9509580     1.0658110     0.4223950
  C        1.7399610    -0.8480750    -0.4298540
  C       -4.8245050    -0.7978720    -0.0796260
  C        4.1550680     0.3942430     0.2262330
  C        2.9515180    -1.5184900    -0.6042170
  C        4.1638000    -0.9089480    -0.2775300
  H        0.6281830     2.1736720     0.0568290
  H       -0.3846330    -1.0553430     1.4003190
  H       -1.4458780     2.2938080    -1.0816330
  H       -2.6884880    -1.9242290     1.2030750
  H       -3.7690390     1.4656370    -1.2045950
  H        2.9440570     2.0709610     0.8408760
  H        0.8089320    -1.3225020    -0.7243660
  H       -5.3342430    -0.4266360    -0.9733710
  H       -4.8571770    -1.8911150    -0.1016080
  H       -5.3999470    -0.4674270     0.7922980
  H        5.0892700     0.8861500     0.4875790
  H        2.9428240    -2.5277610    -1.0100830
  H        5.1022700    -1.4382830    -0.4191710
units angstrom
no_reorient  #important for SAPT in psi4, default
symmetry c1  #important for SAPT in psi4, default
}

set PROPERTIES_ORIGIN ["COM"]
properties('MP2/aug-cc-pvtz', properties = ['dipole'])
--------------------------------------------------------------------------

    Molecular point group: c1
  Charge       = 0
  Multiplicity = 1
  Basis Set: AUG-CC-PVTZ
    Blend: AUG-CC-PVTZ
  Basis Set: (AUG-CC-PVTZ AUX)
    Blend: AUG-CC-PVTZ-JKFIT

    Orbital Energies [Eh]
    ---------------------

    Doubly Occupied:

       1A    -15.582397     2A    -11.285405     3A    -11.280238
       4A    -11.238769     5A    -11.237075     6A    -11.236359
       7A    -11.235921     8A    -11.235599     9A    -11.235196
      10A    -11.232854    11A    -11.227528    12A    -11.225565
      13A    -11.224818    14A    -11.220795    15A     -1.273770
      16A     -1.152101    17A     -1.125546    18A     -1.044219
      19A     -1.017259    20A     -1.006562    21A     -0.985841
      22A     -0.924611    23A     -0.845167    24A     -0.830001
      25A     -0.816336    26A     -0.785700    27A     -0.716500
      28A     -0.709464    29A     -0.670620    30A     -0.642734
      31A     -0.637916    32A     -0.617101    33A     -0.597807
      34A     -0.590408    35A     -0.586394    36A     -0.577407
      37A     -0.574932    38A     -0.548602    39A     -0.533120
      40A     -0.513855    41A     -0.502288    42A     -0.494035
      43A     -0.489293    44A     -0.481441    45A     -0.444267
      46A     -0.341502    47A     -0.333871    48A     -0.329799
      49A     -0.272668

  @DF-RHF Final Energy:  -554.48698061178106

   => Energetics <=

    Nuclear Repulsion Energy =            787.4362827354426599
    One-Electron Energy =               -2312.4232093685809559
    Two-Electron Energy =                 970.4999460213573457
    Total Energy =                       -554.4869806117810640
  Basis Set: (AUG-CC-PVTZ AUX)
    Blend: AUG-CC-PVTZ-RI
    Molecular point group: c1

    Geometry (in Angstrom), charge = 0, multiplicity = 1:

       Center              X                  Y                   Z               Mass
    ------------   -----------------  -----------------  -----------------  -----------------
         N            0.516200373795     1.177254520475     0.291450658074    14.003074004430
         C           -0.780346626205     0.655803520475     0.150938658074    12.000000000000
         C            1.657261373795     0.468683120475     0.090498858074    12.000000000000
         C           -3.436039626205    -0.312207479525    -0.024870341926    12.000000000000
         C           -1.150164626205    -0.534130479525     0.798196658074    12.000000000000
         C           -1.752858626205     1.360815520475    -0.571124341926    12.000000000000
         C           -2.455024626205    -1.009427479525     0.694093658074    12.000000000000
         C           -3.062429626205     0.887083520475    -0.641927341926    12.000000000000
         C            2.919218373795     1.052360520475     0.417928658074    12.000000000000
         C            1.708221373795    -0.861525479525    -0.434320341926    12.000000000000
         C           -4.856244626205    -0.811322479525    -0.084092341926    12.000000000000
         C            4.123328373795     0.380792520475     0.221766658074    12.000000000000
         C            2.919778373795    -1.531940479525    -0.608683341926    12.000000000000
         C            4.132060373795    -0.922398479525    -0.281996341926    12.000000000000
         H            0.596443373795     2.160221520475     0.052362658074     1.007825032230
         H           -0.416372626205    -1.068793479525     1.395852658074     1.007825032230
         H           -1.477617626205     2.280357520475    -1.086099341926     1.007825032230
         H           -2.720227626205    -1.937679479525     1.198608658074     1.007825032230
         H           -3.800778626205     1.452186520475    -1.209061341926     1.007825032230
         H            2.912317373795     2.057510520475     0.836409658074     1.007825032230
         H            0.777192373795    -1.335952479525    -0.728832341926     1.007825032230
         H           -5.365982626205    -0.440086479525    -0.977837341926     1.007825032230
         H           -4.888916626205    -1.904565479525    -0.106074341926     1.007825032230
         H           -5.431686626205    -0.480877479525     0.787831658074     1.007825032230
         H            5.057530373795     0.872699520475     0.483112658074     1.007825032230
         H            2.911084373795    -2.541211479525    -1.014549341926     1.007825032230
         H            5.070530373795    -1.451733479525    -0.423637341926     1.007825032230

  Basis Set: AUG-CC-PVTZ
    Blend: AUG-CC-PVTZ
  Basis Set: (AUG-CC-PVTZ AUX)
    Blend: AUG-CC-PVTZ-JKFIT
	 Reference Energy          =    -554.4869806117810640 [Eh]
	 Singles Energy            =      -0.0000000000000000 [Eh]
	 Same-Spin Energy          =      -0.6243548594153144 [Eh]
	 Opposite-Spin Energy      =      -1.9532398956114154 [Eh]
	 Correlation Energy        =      -2.5775947550267300 [Eh]
	 Total Energy              =    -557.0645753668078441 [Eh]

	 ================> DF-SCS-MP2 Energies <==================
	-----------------------------------------------------------
	 SCS Same-Spin Scale       =       0.3333333333333333 [-]
	 SCS Opposite-Spin Scale   =       1.2000000000000000 [-]
	 SCS Same-Spin Energy      =      -0.2081182864717715 [Eh]
	 SCS Opposite-Spin Energy  =      -2.3438878747336984 [Eh]
	 SCS Correlation Energy    =      -2.5520061612054699 [Eh]
	 SCS Total Energy          =    -557.0389867729865045 [Eh]
	-----------------------------------------------------------

  Dipole Moment: [D]
     X:    -1.0714      Y:     0.6940      Z:    -0.2954     Total:     1.3103

*** Psi4 exiting successfully. Buy a developer a beer!
