                               Psi4 1.4a3.dev225

  ==> Input File <==

--------------------------------------------------------------------------
#psi4
#
memory 32 gb

molecule  {
0 1
  N        0.5479400     1.1907050     0.2959170
  C       -0.7486070     0.6692540     0.1554050
  C        1.7310100     0.4560470     0.0875670
  C       -3.4043000    -0.2987570    -0.0204040
  C       -1.1184250    -0.5206800     0.8026630
  C       -1.7211190     1.3742660    -0.5666580
  C       -2.4232850    -0.9959770     0.6985600
  C       -3.0306900     0.9005340    -0.6374610
  C        2.9509580     1.0658110     0.4223950
  C        1.7398334    -0.8294851    -0.4224783
  C       -4.8245050    -0.7978720    -0.0796260
  C        4.1550680     0.3942430     0.2262330
  C        2.9515180    -1.5184900    -0.6042170
  C        4.1638000    -0.9089480    -0.2775300
  H        0.6281830     2.1736720     0.0568290
  H       -0.3846330    -1.0553430     1.4003190
  H       -1.4458780     2.2938080    -1.0816330
  H       -2.6884880    -1.9242290     1.2030750
  H       -3.7690390     1.4656370    -1.2045950
  H        2.9440570     2.0709610     0.8408760
  H        0.8089320    -1.3225020    -0.7243660
  H       -5.3342430    -0.4266360    -0.9733710
  H       -4.8571770    -1.8911150    -0.1016080
  H       -5.3999470    -0.4674270     0.7922980
  H        5.0892700     0.8861500     0.4875790
  H        2.9428240    -2.5277610    -1.0100830
  H        5.1022700    -1.4382830    -0.4191710
units angstrom
no_reorient  #important for SAPT in psi4, default
symmetry c1  #important for SAPT in psi4, default
}

set PROPERTIES_ORIGIN ["COM"]
properties('MP2/aug-cc-pvtz', properties = ['dipole'])
--------------------------------------------------------------------------

    Molecular point group: c1
  Charge       = 0
  Multiplicity = 1
  Basis Set: AUG-CC-PVTZ
    Blend: AUG-CC-PVTZ
  Basis Set: (AUG-CC-PVTZ AUX)
    Blend: AUG-CC-PVTZ-JKFIT

    Orbital Energies [Eh]
    ---------------------

    Doubly Occupied:

       1A    -15.576591     2A    -11.280178     3A    -11.277067
       4A    -11.238325     5A    -11.237873     6A    -11.235938
       7A    -11.234574     8A    -11.233963     9A    -11.232299
      10A    -11.229742    11A    -11.229232    12A    -11.225547
      13A    -11.224957    14A    -11.222974    15A     -1.258318
      16A     -1.152267    17A     -1.128348    18A     -1.040696
      19A     -1.015585    20A     -1.009845    21A     -0.990987
      22A     -0.921317    23A     -0.842991    24A     -0.829439
      25A     -0.817329    26A     -0.784747    27A     -0.713425
      28A     -0.703832    29A     -0.667465    30A     -0.640319
      31A     -0.635220    32A     -0.618719    33A     -0.599488
      34A     -0.587430    35A     -0.584490    36A     -0.581478
      37A     -0.573044    38A     -0.545469    39A     -0.530712
      40A     -0.512015    41A     -0.502069    42A     -0.494923
      43A     -0.489385    44A     -0.485906    45A     -0.441688
      46A     -0.339899    47A     -0.334766    48A     -0.331827
      49A     -0.276544

  @DF-RHF Final Energy:  -554.49048430686139

   => Energetics <=

    Nuclear Repulsion Energy =            787.6108831042428164
    One-Electron Energy =               -2312.8802534077221935
    Two-Electron Energy =                 970.7788859966178734
    Total Energy =                       -554.4904843068613900
  Basis Set: (AUG-CC-PVTZ AUX)
    Blend: AUG-CC-PVTZ-RI
    Molecular point group: c1

    Geometry (in Angstrom), charge = 0, multiplicity = 1:

       Center              X                  Y                   Z               Mass
    ------------   -----------------  -----------------  -----------------  -----------------
         N            0.513455624332     1.177745826002     0.291452132640    14.003074004430
         C           -0.783091375668     0.656294826002     0.150940132640    12.000000000000
         C            1.696525624332     0.443087826002     0.083102132640    12.000000000000
         C           -3.438784375668    -0.311716173998    -0.024868867360    12.000000000000
         C           -1.152909375668    -0.533639173998     0.798198132640    12.000000000000
         C           -1.755603375668     1.361306826002    -0.571122867360    12.000000000000
         C           -2.457769375668    -1.008936173998     0.694095132640    12.000000000000
         C           -3.065174375668     0.887574826002    -0.641925867360    12.000000000000
         C            2.916473624332     1.052851826002     0.417930132640    12.000000000000
         C            1.705349024332    -0.842444273998    -0.426943167360    12.000000000000
         C           -4.858989375668    -0.810831173998    -0.084090867360    12.000000000000
         C            4.120583624332     0.381283826002     0.221768132640    12.000000000000
         C            2.917033624332    -1.531449173998    -0.608681867360    12.000000000000
         C            4.129315624332    -0.921907173998    -0.281994867360    12.000000000000
         H            0.593698624332     2.160712826002     0.052364132640     1.007825032230
         H           -0.419117375668    -1.068302173998     1.395854132640     1.007825032230
         H           -1.480362375668     2.280848826002    -1.086097867360     1.007825032230
         H           -2.722972375668    -1.937188173998     1.198610132640     1.007825032230
         H           -3.803523375668     1.452677826002    -1.209059867360     1.007825032230
         H            2.909572624332     2.058001826002     0.836411132640     1.007825032230
         H            0.774447624332    -1.335461173998    -0.728830867360     1.007825032230
         H           -5.368727375668    -0.439595173998    -0.977835867360     1.007825032230
         H           -4.891661375668    -1.904074173998    -0.106072867360     1.007825032230
         H           -5.434431375668    -0.480386173998     0.787833132640     1.007825032230
         H            5.054785624332     0.873190826002     0.483114132640     1.007825032230
         H            2.908339624332    -2.540720173998    -1.014547867360     1.007825032230
         H            5.067785624332    -1.451242173998    -0.423635867360     1.007825032230

  Basis Set: AUG-CC-PVTZ
    Blend: AUG-CC-PVTZ
  Basis Set: (AUG-CC-PVTZ AUX)
    Blend: AUG-CC-PVTZ-JKFIT
	 Reference Energy          =    -554.4904843068613900 [Eh]
	 Singles Energy            =      -0.0000000000000000 [Eh]
	 Same-Spin Energy          =      -0.6239250456979102 [Eh]
	 Opposite-Spin Energy      =      -1.9526696504224113 [Eh]
	 Correlation Energy        =      -2.5765946961203214 [Eh]
	 Total Energy              =    -557.0670790029816999 [Eh]

	 ================> DF-SCS-MP2 Energies <==================
	-----------------------------------------------------------
	 SCS Same-Spin Scale       =       0.3333333333333333 [-]
	 SCS Opposite-Spin Scale   =       1.2000000000000000 [-]
	 SCS Same-Spin Energy      =      -0.2079750152326367 [Eh]
	 SCS Opposite-Spin Energy  =      -2.3432035805068936 [Eh]
	 SCS Correlation Energy    =      -2.5511785957395303 [Eh]
	 SCS Total Energy          =    -557.0416629026009332 [Eh]
	-----------------------------------------------------------

  Dipole Moment: [D]
     X:    -0.5911      Y:     0.5635      Z:    -0.3454     Total:     0.8867

*** Psi4 exiting successfully. Buy a developer a beer!
