                               Psi4 1.4a3.dev225

  ==> Input File <==

--------------------------------------------------------------------------
#psi4
#
memory 32 gb

molecule  {
0 1
  N        0.5479400     1.1907050     0.2959170
  C       -0.7486070     0.6692540     0.1554050
  C        1.7310100     0.4560470     0.0875670
  C       -3.4043000    -0.2987570    -0.0204040
  C       -1.1184250    -0.5206800     0.8026630
  C       -1.7211190     1.3742660    -0.5666580
  C       -2.4232850    -0.9959770     0.6985600
  C       -3.0776475     0.8835473    -0.6399998
  C        2.9509580     1.0658110     0.4223950
  C        1.7399610    -0.8480750    -0.4298540
  C       -4.8245050    -0.7978720    -0.0796260
  C        4.1550680     0.3942430     0.2262330
  C        2.9515180    -1.5184900    -0.6042170
  C        4.1638000    -0.9089480    -0.2775300
  H        0.6281830     2.1736720     0.0568290
  H       -0.3846330    -1.0553430     1.4003190
  H       -1.4458780     2.2938080    -1.0816330
  H       -2.6884880    -1.9242290     1.2030750
  H       -3.7690390     1.4656370    -1.2045950
  H        2.9440570     2.0709610     0.8408760
  H        0.8089320    -1.3225020    -0.7243660
  H       -5.3342430    -0.4266360    -0.9733710
  H       -4.8571770    -1.8911150    -0.1016080
  H       -5.3999470    -0.4674270     0.7922980
  H        5.0892700     0.8861500     0.4875790
  H        2.9428240    -2.5277610    -1.0100830
  H        5.1022700    -1.4382830    -0.4191710
units angstrom
no_reorient  #important for SAPT in psi4, default
symmetry c1  #important for SAPT in psi4, default
}

set PROPERTIES_ORIGIN ["COM"]
properties('MP2/aug-cc-pvtz', properties = ['dipole'])
--------------------------------------------------------------------------

    Molecular point group: c1
  Charge       = 0
  Multiplicity = 1
  Basis Set: AUG-CC-PVTZ
    Blend: AUG-CC-PVTZ
  Basis Set: (AUG-CC-PVTZ AUX)
    Blend: AUG-CC-PVTZ-JKFIT

    Orbital Energies [Eh]
    ---------------------

    Doubly Occupied:

       1A    -15.577115     2A    -11.282656     3A    -11.277371
       4A    -11.237967     5A    -11.237299     6A    -11.236663
       7A    -11.235897     8A    -11.234920     9A    -11.233396
      10A    -11.231915    11A    -11.228649    12A    -11.226239
      13A    -11.224529    14A    -11.221968    15A     -1.258001
      16A     -1.151070    17A     -1.128561    18A     -1.042162
      19A     -1.013620    20A     -1.009662    21A     -0.987288
      22A     -0.921686    23A     -0.845759    24A     -0.829596
      25A     -0.817369    26A     -0.784537    27A     -0.713714
      28A     -0.704240    29A     -0.667798    30A     -0.641393
      31A     -0.634726    32A     -0.620106    33A     -0.597648
      34A     -0.591334    35A     -0.584495    36A     -0.581426
      37A     -0.573557    38A     -0.545040    39A     -0.529640
      40A     -0.512606    41A     -0.498533    42A     -0.496000
      43A     -0.489474    44A     -0.487753    45A     -0.441720
      46A     -0.338486    47A     -0.334705    48A     -0.330921
      49A     -0.277604

  @DF-RHF Final Energy:  -554.48785998884966

   => Energetics <=

    Nuclear Repulsion Energy =            786.8896864529466484
    One-Electron Energy =               -2311.4174640215669569
    Two-Electron Energy =                 970.0399175797707585
    Total Energy =                       -554.4878599888496638
  Basis Set: (AUG-CC-PVTZ AUX)
    Blend: AUG-CC-PVTZ-RI
    Molecular point group: c1

    Geometry (in Angstrom), charge = 0, multiplicity = 1:

       Center              X                  Y                   Z               Mass
    ------------   -----------------  -----------------  -----------------  -----------------
         N            0.516524679877     1.180077382582     0.292101891687    14.003074004430
         C           -0.780022320123     0.658626382582     0.151589891687    12.000000000000
         C            1.699594679877     0.445419382582     0.083751891687    12.000000000000
         C           -3.435715320123    -0.309384617418    -0.024219108313    12.000000000000
         C           -1.149840320123    -0.531307617418     0.798847891687    12.000000000000
         C           -1.752534320123     1.363638382582    -0.570473108313    12.000000000000
         C           -2.454700320123    -1.006604617418     0.694744891687    12.000000000000
         C           -3.109062820123     0.872919682582    -0.643814908313    12.000000000000
         C            2.919542679877     1.055183382582     0.418579891687    12.000000000000
         C            1.708545679877    -0.858702617418    -0.433669108313    12.000000000000
         C           -4.855920320123    -0.808499617418    -0.083441108313    12.000000000000
         C            4.123652679877     0.383615382582     0.222417891687    12.000000000000
         C            2.920102679877    -1.529117617418    -0.608032108313    12.000000000000
         C            4.132384679877    -0.919575617418    -0.281345108313    12.000000000000
         H            0.596767679877     2.163044382582     0.053013891687     1.007825032230
         H           -0.416048320123    -1.065970617418     1.396503891687     1.007825032230
         H           -1.477293320123     2.283180382582    -1.085448108313     1.007825032230
         H           -2.719903320123    -1.934856617418     1.199259891687     1.007825032230
         H           -3.800454320123     1.455009382582    -1.208410108313     1.007825032230
         H            2.912641679877     2.060333382582     0.837060891687     1.007825032230
         H            0.777516679877    -1.333129617418    -0.728181108313     1.007825032230
         H           -5.365658320123    -0.437263617418    -0.977186108313     1.007825032230
         H           -4.888592320123    -1.901742617418    -0.105423108313     1.007825032230
         H           -5.431362320123    -0.478054617418     0.788482891687     1.007825032230
         H            5.057854679877     0.875522382582     0.483763891687     1.007825032230
         H            2.911408679877    -2.538388617418    -1.013898108313     1.007825032230
         H            5.070854679877    -1.448910617418    -0.422986108313     1.007825032230

  Basis Set: AUG-CC-PVTZ
    Blend: AUG-CC-PVTZ
  Basis Set: (AUG-CC-PVTZ AUX)
    Blend: AUG-CC-PVTZ-JKFIT
	 Reference Energy          =    -554.4878599888496638 [Eh]
	 Singles Energy            =      -0.0000000000000000 [Eh]
	 Same-Spin Energy          =      -0.6237616463629321 [Eh]
	 Opposite-Spin Energy      =      -1.9529074508823365 [Eh]
	 Correlation Energy        =      -2.5766690972452686 [Eh]
	 Total Energy              =    -557.0645290860949217 [Eh]

	 ================> DF-SCS-MP2 Energies <==================
	-----------------------------------------------------------
	 SCS Same-Spin Scale       =       0.3333333333333333 [-]
	 SCS Opposite-Spin Scale   =       1.2000000000000000 [-]
	 SCS Same-Spin Energy      =      -0.2079205487876440 [Eh]
	 SCS Opposite-Spin Energy  =      -2.3434889410588036 [Eh]
	 SCS Correlation Energy    =      -2.5514094898464474 [Eh]
	 SCS Total Energy          =    -557.0392694786961556 [Eh]
	-----------------------------------------------------------

  Dipole Moment: [D]
     X:    -0.6185      Y:     0.5738      Z:    -0.3375     Total:     0.9086

*** Psi4 exiting successfully. Buy a developer a beer!
