                               Psi4 1.4a3.dev225

  ==> Input File <==

--------------------------------------------------------------------------
#psi4
#
memory 32 gb

molecule  {
0 1
  N        0.5479400     1.1907050     0.2959170
  C       -0.7486070     0.6692540     0.1554050
  C        1.7310100     0.4560470     0.0875670
  C       -3.4043000    -0.2987570    -0.0204040
  C       -1.1184250    -0.5206800     0.8026630
  C       -1.7211190     1.3742660    -0.5666580
  C       -2.4232850    -0.9959770     0.6985600
  C       -3.0306900     0.9005340    -0.6374610
  C        2.9509580     1.0658110     0.4223950
  C        1.7399610    -0.8480750    -0.4298540
  C       -4.8245050    -0.7978720    -0.0796260
  C        4.1550680     0.3942430     0.2262330
  C        2.9515180    -1.5184900    -0.6042170
  C        4.1638000    -0.9089480    -0.2775300
  H        0.6281830     2.1736720     0.0568290
  H       -0.3846330    -1.0553430     1.4003190
  H       -1.4458780     2.2938080    -1.0816330
  H       -2.6884880    -1.9242290     1.2030750
  H       -3.7690390     1.4656370    -1.2045950
  H        2.9443739     2.0248027     0.8216586
  H        0.8089320    -1.3225020    -0.7243660
  H       -5.3342430    -0.4266360    -0.9733710
  H       -4.8571770    -1.8911150    -0.1016080
  H       -5.3999470    -0.4674270     0.7922980
  H        5.0892700     0.8861500     0.4875790
  H        2.9428240    -2.5277610    -1.0100830
  H        5.1022700    -1.4382830    -0.4191710
units angstrom
no_reorient  #important for SAPT in psi4, default
symmetry c1  #important for SAPT in psi4, default
}

set PROPERTIES_ORIGIN ["COM"]
properties('MP2/aug-cc-pvtz', properties = ['dipole'])
--------------------------------------------------------------------------

    Molecular point group: c1
  Charge       = 0
  Multiplicity = 1
  Basis Set: AUG-CC-PVTZ
    Blend: AUG-CC-PVTZ
  Basis Set: (AUG-CC-PVTZ AUX)
    Blend: AUG-CC-PVTZ-JKFIT

    Orbital Energies [Eh]
    ---------------------

    Doubly Occupied:

       1A    -15.577369     2A    -11.282109     3A    -11.277404
       4A    -11.237395     5A    -11.236966     6A    -11.236230
       7A    -11.234860     8A    -11.234245     9A    -11.232621
      10A    -11.230047    11A    -11.225665    12A    -11.224071
      13A    -11.223169    14A    -11.222589    15A     -1.258267
      16A     -1.151935    17A     -1.128196    18A     -1.040826
      19A     -1.016208    20A     -1.011524    21A     -0.989738
      22A     -0.921478    23A     -0.843719    24A     -0.829974
      25A     -0.818443    26A     -0.785153    27A     -0.714149
      28A     -0.704768    29A     -0.671388    30A     -0.640831
      31A     -0.635697    32A     -0.619175    33A     -0.598388
      34A     -0.588425    35A     -0.586666    36A     -0.583041
      37A     -0.573338    38A     -0.545753    39A     -0.530551
      40A     -0.513345    41A     -0.502308    42A     -0.494709
      43A     -0.490346    44A     -0.486051    45A     -0.441788
      46A     -0.340202    47A     -0.335534    48A     -0.330795
      49A     -0.275669

  @DF-RHF Final Energy:  -554.49012636282384

   => Energetics <=

    Nuclear Repulsion Energy =            787.6044085290030807
    One-Electron Energy =               -2312.8428361928999948
    Two-Electron Energy =                 970.7483013010729564
    Total Energy =                       -554.4901263628238439
  Basis Set: (AUG-CC-PVTZ AUX)
    Blend: AUG-CC-PVTZ-RI
    Molecular point group: c1

    Geometry (in Angstrom), charge = 0, multiplicity = 1:

       Center              X                  Y                   Z               Mass
    ------------   -----------------  -----------------  -----------------  -----------------
         N            0.513445517662     1.179218197513     0.292041282553    14.003074004430
         C           -0.783101482338     0.657767197513     0.151529282553    12.000000000000
         C            1.696515517662     0.444560197513     0.083691282553    12.000000000000
         C           -3.438794482338    -0.310243802487    -0.024279717447    12.000000000000
         C           -1.152919482338    -0.532166802487     0.798787282553    12.000000000000
         C           -1.755613482338     1.362779197513    -0.570533717447    12.000000000000
         C           -2.457779482338    -1.007463802487     0.694684282553    12.000000000000
         C           -3.065184482338     0.889047197513    -0.641336717447    12.000000000000
         C            2.916463517662     1.054324197513     0.418519282553    12.000000000000
         C            1.705466517662    -0.859561802487    -0.433729717447    12.000000000000
         C           -4.858999482338    -0.809358802487    -0.083501717447    12.000000000000
         C            4.120573517662     0.382756197513     0.222357282553    12.000000000000
         C            2.917023517662    -1.529976802487    -0.608092717447    12.000000000000
         C            4.129305517662    -0.920434802487    -0.281405717447    12.000000000000
         H            0.593688517662     2.162185197513     0.052953282553     1.007825032230
         H           -0.419127482338    -1.066829802487     1.396443282553     1.007825032230
         H           -1.480372482338     2.282321197513    -1.085508717447     1.007825032230
         H           -2.722982482338    -1.935715802487     1.199199282553     1.007825032230
         H           -3.803533482338     1.454150197513    -1.208470717447     1.007825032230
         H            2.909879417662     2.013315897513     0.817782882553     1.007825032230
         H            0.774437517662    -1.333988802487    -0.728241717447     1.007825032230
         H           -5.368737482338    -0.438122802487    -0.977246717447     1.007825032230
         H           -4.891671482338    -1.902601802487    -0.105483717447     1.007825032230
         H           -5.434441482338    -0.478913802487     0.788422282553     1.007825032230
         H            5.054775517662     0.874663197513     0.483703282553     1.007825032230
         H            2.908329517662    -2.539247802487    -1.013958717447     1.007825032230
         H            5.067775517662    -1.449769802487    -0.423046717447     1.007825032230

  Basis Set: AUG-CC-PVTZ
    Blend: AUG-CC-PVTZ
  Basis Set: (AUG-CC-PVTZ AUX)
    Blend: AUG-CC-PVTZ-JKFIT
	 Reference Energy          =    -554.4901263628238439 [Eh]
	 Singles Energy            =      -0.0000000000000000 [Eh]
	 Same-Spin Energy          =      -0.6238180675696733 [Eh]
	 Opposite-Spin Energy      =      -1.9523615489310004 [Eh]
	 Correlation Energy        =      -2.5761796165006738 [Eh]
	 Total Energy              =    -557.0663059793245111 [Eh]

	 ================> DF-SCS-MP2 Energies <==================
	-----------------------------------------------------------
	 SCS Same-Spin Scale       =       0.3333333333333333 [-]
	 SCS Opposite-Spin Scale   =       1.2000000000000000 [-]
	 SCS Same-Spin Energy      =      -0.2079393558565578 [Eh]
	 SCS Opposite-Spin Energy  =      -2.3428338587172006 [Eh]
	 SCS Correlation Energy    =      -2.5507732145737583 [Eh]
	 SCS Total Energy          =    -557.0408995773975676 [Eh]
	-----------------------------------------------------------

  Dipole Moment: [D]
     X:    -0.6365      Y:     0.5932      Z:    -0.3358     Total:     0.9326

*** Psi4 exiting successfully. Buy a developer a beer!
