                               Psi4 1.4a3.dev225

  ==> Input File <==

--------------------------------------------------------------------------
#psi4
#
memory 32 gb

molecule  {
0 1
  N        0.5479400     1.1907050     0.2959170
  C       -0.7486070     0.6692540     0.1554050
  C        1.7310100     0.4560470     0.0875670
  C       -3.4043000    -0.2987570    -0.0204040
  C       -1.1184250    -0.5206800     0.8026630
  C       -1.7211190     1.3742660    -0.5666580
  C       -2.4232850    -0.9959770     0.6985600
  C       -3.0306900     0.9005340    -0.6374610
  C        2.9509580     1.0658110     0.4223950
  C        1.7399610    -0.8480750    -0.4298540
  C       -4.8245050    -0.7978720    -0.0796260
  C        4.1550680     0.3942430     0.2262330
  C        2.9515180    -1.5184900    -0.6042170
  C        4.2506602    -0.8652742    -0.2541228
  H        0.6281830     2.1736720     0.0568290
  H       -0.3846330    -1.0553430     1.4003190
  H       -1.4458780     2.2938080    -1.0816330
  H       -2.6884880    -1.9242290     1.2030750
  H       -3.7690390     1.4656370    -1.2045950
  H        2.9440570     2.0709610     0.8408760
  H        0.8089320    -1.3225020    -0.7243660
  H       -5.3342430    -0.4266360    -0.9733710
  H       -4.8571770    -1.8911150    -0.1016080
  H       -5.3999470    -0.4674270     0.7922980
  H        5.0892700     0.8861500     0.4875790
  H        2.9428240    -2.5277610    -1.0100830
  H        5.1022700    -1.4382830    -0.4191710
units angstrom
no_reorient  #important for SAPT in psi4, default
symmetry c1  #important for SAPT in psi4, default
}

set PROPERTIES_ORIGIN ["COM"]
properties('MP2/aug-cc-pvtz', properties = ['dipole'])
--------------------------------------------------------------------------

    Molecular point group: c1
  Charge       = 0
  Multiplicity = 1
  Basis Set: AUG-CC-PVTZ
    Blend: AUG-CC-PVTZ
  Basis Set: (AUG-CC-PVTZ AUX)
    Blend: AUG-CC-PVTZ-JKFIT

    Orbital Energies [Eh]
    ---------------------

    Doubly Occupied:

       1A    -15.578202     2A    -11.284259     3A    -11.277935
       4A    -11.247637     5A    -11.236731     6A    -11.235376
       7A    -11.234770     8A    -11.233119     9A    -11.232439
      10A    -11.230659    11A    -11.228270    12A    -11.225896
      13A    -11.225086    14A    -11.223522    15A     -1.258900
      16A     -1.151072    17A     -1.125496    18A     -1.040481
      19A     -1.017453    20A     -1.010990    21A     -0.987131
      22A     -0.921281    23A     -0.845165    24A     -0.824799
      25A     -0.820974    26A     -0.784813    27A     -0.712058
      28A     -0.704434    29A     -0.676627    30A     -0.642432
      31A     -0.635018    32A     -0.617531    33A     -0.599964
      34A     -0.588015    35A     -0.584829    36A     -0.576715
      37A     -0.573659    38A     -0.546797    39A     -0.530527
      40A     -0.524755    41A     -0.503030    42A     -0.494009
      43A     -0.486840    44A     -0.476105    45A     -0.440470
      46A     -0.343256    47A     -0.337665    48A     -0.326309
      49A     -0.275182

  @DF-RHF Final Energy:  -554.47925489841873

   => Energetics <=

    Nuclear Repulsion Energy =            786.2550071855334863
    One-Electron Energy =               -2310.1111549281722546
    Two-Electron Energy =                 969.3768928442200377
    Total Energy =                       -554.4792548984187306
  Basis Set: (AUG-CC-PVTZ AUX)
    Blend: AUG-CC-PVTZ-RI
    Molecular point group: c1

    Geometry (in Angstrom), charge = 0, multiplicity = 1:

       Center              X                  Y                   Z               Mass
    ------------   -----------------  -----------------  -----------------  -----------------
         N            0.507754771032     1.176101921522     0.290401488415    14.003074004430
         C           -0.788792228968     0.654650921522     0.149889488415    12.000000000000
         C            1.690824771032     0.441443921522     0.082051488415    12.000000000000
         C           -3.444485228968    -0.313360078478    -0.025919511585    12.000000000000
         C           -1.158610228968    -0.535283078478     0.797147488415    12.000000000000
         C           -1.761304228968     1.359662921522    -0.572173511585    12.000000000000
         C           -2.463470228968    -1.010580078478     0.693044488415    12.000000000000
         C           -3.070875228968     0.885930921522    -0.642976511585    12.000000000000
         C            2.910772771032     1.051207921522     0.416879488415    12.000000000000
         C            1.699775771032    -0.862678078478    -0.435369511585    12.000000000000
         C           -4.864690228968    -0.812475078478    -0.085141511585    12.000000000000
         C            4.114882771032     0.379639921522     0.220717488415    12.000000000000
         C            2.911332771032    -1.533093078478    -0.609732511585    12.000000000000
         C            4.210474971032    -0.879877278478    -0.259638311585    12.000000000000
         H            0.587997771032     2.159068921522     0.051313488415     1.007825032230
         H           -0.424818228968    -1.069946078478     1.394803488415     1.007825032230
         H           -1.486063228968     2.279204921522    -1.087148511585     1.007825032230
         H           -2.728673228968    -1.938832078478     1.197559488415     1.007825032230
         H           -3.809224228968     1.451033921522    -1.210110511585     1.007825032230
         H            2.903871771032     2.056357921522     0.835360488415     1.007825032230
         H            0.768746771032    -1.337105078478    -0.729881511585     1.007825032230
         H           -5.374428228968    -0.441239078478    -0.978886511585     1.007825032230
         H           -4.897362228968    -1.905718078478    -0.107123511585     1.007825032230
         H           -5.440132228968    -0.482030078478     0.786782488415     1.007825032230
         H            5.049084771032     0.871546921522     0.482063488415     1.007825032230
         H            2.902638771032    -2.542364078478    -1.015598511585     1.007825032230
         H            5.062084771032    -1.452886078478    -0.424686511585     1.007825032230

  Basis Set: AUG-CC-PVTZ
    Blend: AUG-CC-PVTZ
  Basis Set: (AUG-CC-PVTZ AUX)
    Blend: AUG-CC-PVTZ-JKFIT
	 Reference Energy          =    -554.4792548984187306 [Eh]
	 Singles Energy            =      -0.0000000000000000 [Eh]
	 Same-Spin Energy          =      -0.6237383405714754 [Eh]
	 Opposite-Spin Energy      =      -1.9533701001775374 [Eh]
	 Correlation Energy        =      -2.5771084407490128 [Eh]
	 Total Energy              =    -557.0563633391677740 [Eh]

	 ================> DF-SCS-MP2 Energies <==================
	-----------------------------------------------------------
	 SCS Same-Spin Scale       =       0.3333333333333333 [-]
	 SCS Opposite-Spin Scale   =       1.2000000000000000 [-]
	 SCS Same-Spin Energy      =      -0.2079127801904918 [Eh]
	 SCS Opposite-Spin Energy  =      -2.3440441202130446 [Eh]
	 SCS Correlation Energy    =      -2.5519569004035363 [Eh]
	 SCS Total Energy          =    -557.0312117988222553 [Eh]
	-----------------------------------------------------------

  Dipole Moment: [D]
     X:    -0.6963      Y:     0.5427      Z:    -0.3589     Total:     0.9530

*** Psi4 exiting successfully. Buy a developer a beer!
