                               Psi4 1.4a3.dev225

  ==> Input File <==

--------------------------------------------------------------------------
#psi4
#
memory 32 gb

molecule  {
0 1
  N        0.5479400     1.1907050     0.2959170
  C       -0.7486070     0.6692540     0.1554050
  C        1.7310100     0.4560470     0.0875670
  C       -3.4043000    -0.2987570    -0.0204040
  C       -1.1184250    -0.5206800     0.8026630
  C       -1.5823372     1.2736576    -0.4636164
  C       -2.4232850    -0.9959770     0.6985600
  C       -3.0306900     0.9005340    -0.6374610
  C        2.9509580     1.0658110     0.4223950
  C        1.7399610    -0.8480750    -0.4298540
  C       -4.8245050    -0.7978720    -0.0796260
  C        4.1550680     0.3942430     0.2262330
  C        2.9515180    -1.5184900    -0.6042170
  C        4.1638000    -0.9089480    -0.2775300
  H        0.6281830     2.1736720     0.0568290
  H       -0.3846330    -1.0553430     1.4003190
  H       -1.4458780     2.2938080    -1.0816330
  H       -2.6884880    -1.9242290     1.2030750
  H       -3.7690390     1.4656370    -1.2045950
  H        2.9440570     2.0709610     0.8408760
  H        0.8089320    -1.3225020    -0.7243660
  H       -5.3342430    -0.4266360    -0.9733710
  H       -4.8571770    -1.8911150    -0.1016080
  H       -5.3999470    -0.4674270     0.7922980
  H        5.0892700     0.8861500     0.4875790
  H        2.9428240    -2.5277610    -1.0100830
  H        5.1022700    -1.4382830    -0.4191710
units angstrom
no_reorient  #important for SAPT in psi4, default
symmetry c1  #important for SAPT in psi4, default
}

set PROPERTIES_ORIGIN ["COM"]
properties('MP2/aug-cc-pvtz', properties = ['dipole'])
--------------------------------------------------------------------------

    Molecular point group: c1
  Charge       = 0
  Multiplicity = 1
  Basis Set: AUG-CC-PVTZ
    Blend: AUG-CC-PVTZ
  Basis Set: (AUG-CC-PVTZ AUX)
    Blend: AUG-CC-PVTZ-JKFIT

    Orbital Energies [Eh]
    ---------------------

    Doubly Occupied:

       1A    -15.570705     2A    -11.280731     3A    -11.249419
       4A    -11.243346     5A    -11.239851     6A    -11.236839
       7A    -11.236757     8A    -11.236436     9A    -11.235336
      10A    -11.226764    11A    -11.225771    12A    -11.225149
      13A    -11.224980    14A    -11.223051    15A     -1.263222
      16A     -1.161540    17A     -1.127270    18A     -1.060470
      19A     -1.012468    20A     -1.005607    21A     -0.985190
      22A     -0.930268    23A     -0.853216    24A     -0.829155
      25A     -0.813930    26A     -0.777869    27A     -0.716208
      28A     -0.701185    29A     -0.668503    30A     -0.644447
      31A     -0.629081    32A     -0.622435    33A     -0.600581
      34A     -0.591355    35A     -0.583077    36A     -0.576413
      37A     -0.565102    38A     -0.549158    39A     -0.537839
      40A     -0.513489    41A     -0.505579    42A     -0.498864
      43A     -0.490446    44A     -0.460303    45A     -0.439783
      46A     -0.351688    47A     -0.336572    48A     -0.323519
      49A     -0.284426

  @DF-RHF Final Energy:  -554.43081718810072

   => Energetics <=

    Nuclear Repulsion Energy =            790.7257562634068790
    One-Electron Energy =               -2318.9823609245354419
    Two-Electron Energy =                 973.8257874730279582
    Total Energy =                       -554.4308171881007183
  Basis Set: (AUG-CC-PVTZ AUX)
    Blend: AUG-CC-PVTZ-RI
    Molecular point group: c1

    Geometry (in Angstrom), charge = 0, multiplicity = 1:

       Center              X                  Y                   Z               Mass
    ------------   -----------------  -----------------  -----------------  -----------------
         N            0.504352024616     1.185557634346     0.285182549299    14.003074004430
         C           -0.792194975384     0.664106634346     0.144670549299    12.000000000000
         C            1.687422024616     0.450899634346     0.076832549299    12.000000000000
         C           -3.447887975384    -0.303904365654    -0.031138450701    12.000000000000
         C           -1.162012975384    -0.525827365654     0.791928549299    12.000000000000
         C           -1.625925175384     1.268510234346    -0.474350850701    12.000000000000
         C           -2.466872975384    -1.001124365654     0.687825549299    12.000000000000
         C           -3.074277975384     0.895386634346    -0.648195450701    12.000000000000
         C            2.907370024616     1.060663634346     0.411660549299    12.000000000000
         C            1.696373024616    -0.853222365654    -0.440588450701    12.000000000000
         C           -4.868092975384    -0.803019365654    -0.090360450701    12.000000000000
         C            4.111480024616     0.389095634346     0.215498549299    12.000000000000
         C            2.907930024616    -1.523637365654    -0.614951450701    12.000000000000
         C            4.120212024616    -0.914095365654    -0.288264450701    12.000000000000
         H            0.584595024616     2.168524634346     0.046094549299     1.007825032230
         H           -0.428220975384    -1.060490365654     1.389584549299     1.007825032230
         H           -1.489465975384     2.288660634346    -1.092367450701     1.007825032230
         H           -2.732075975384    -1.929376365654     1.192340549299     1.007825032230
         H           -3.812626975384     1.460489634346    -1.215329450701     1.007825032230
         H            2.900469024616     2.065813634346     0.830141549299     1.007825032230
         H            0.765344024616    -1.327649365654    -0.735100450701     1.007825032230
         H           -5.377830975384    -0.431783365654    -0.984105450701     1.007825032230
         H           -4.900764975384    -1.896262365654    -0.112342450701     1.007825032230
         H           -5.443534975384    -0.472574365654     0.781563549299     1.007825032230
         H            5.045682024616     0.881002634346     0.476844549299     1.007825032230
         H            2.899236024616    -2.532908365654    -1.020817450701     1.007825032230
         H            5.058682024616    -1.443430365654    -0.429905450701     1.007825032230

  Basis Set: AUG-CC-PVTZ
    Blend: AUG-CC-PVTZ
  Basis Set: (AUG-CC-PVTZ AUX)
    Blend: AUG-CC-PVTZ-JKFIT
	 Reference Energy          =    -554.4308171881007183 [Eh]
	 Singles Energy            =      -0.0000000000000000 [Eh]
	 Same-Spin Energy          =      -0.6228632588261585 [Eh]
	 Opposite-Spin Energy      =      -1.9537057035258791 [Eh]
	 Correlation Energy        =      -2.5765689623520376 [Eh]
	 Total Energy              =    -557.0073861504527031 [Eh]

	 ================> DF-SCS-MP2 Energies <==================
	-----------------------------------------------------------
	 SCS Same-Spin Scale       =       0.3333333333333333 [-]
	 SCS Opposite-Spin Scale   =       1.2000000000000000 [-]
	 SCS Same-Spin Energy      =      -0.2076210862753861 [Eh]
	 SCS Opposite-Spin Energy  =      -2.3444468442310549 [Eh]
	 SCS Correlation Energy    =      -2.5520679305064409 [Eh]
	 SCS Total Energy          =    -556.9828851186072143 [Eh]
	-----------------------------------------------------------

  Dipole Moment: [D]
     X:    -1.0276      Y:     0.4622      Z:    -0.3337     Total:     1.1751

*** Psi4 exiting successfully. Buy a developer a beer!
