                               Psi4 1.4a3.dev225

  ==> Input File <==

--------------------------------------------------------------------------
#psi4
#
memory 32 gb

molecule  {
0 1
  N        0.5479400     1.1907050     0.2959170
  C       -0.7486070     0.6692540     0.1554050
  C        1.7310100     0.4560470     0.0875670
  C       -3.4043000    -0.2987570    -0.0204040
  C       -1.1184250    -0.5206800     0.8026630
  C       -1.7211190     1.3742660    -0.5666580
  C       -2.4232850    -0.9959770     0.6985600
  C       -3.0306900     0.9005340    -0.6374610
  C        2.9509580     1.0658110     0.4223950
  C        1.7405990    -0.9410243    -0.4667324
  C       -4.8245050    -0.7978720    -0.0796260
  C        4.1550680     0.3942430     0.2262330
  C        2.9515180    -1.5184900    -0.6042170
  C        4.1638000    -0.9089480    -0.2775300
  H        0.6281830     2.1736720     0.0568290
  H       -0.3846330    -1.0553430     1.4003190
  H       -1.4458780     2.2938080    -1.0816330
  H       -2.6884880    -1.9242290     1.2030750
  H       -3.7690390     1.4656370    -1.2045950
  H        2.9440570     2.0709610     0.8408760
  H        0.8089320    -1.3225020    -0.7243660
  H       -5.3342430    -0.4266360    -0.9733710
  H       -4.8571770    -1.8911150    -0.1016080
  H       -5.3999470    -0.4674270     0.7922980
  H        5.0892700     0.8861500     0.4875790
  H        2.9428240    -2.5277610    -1.0100830
  H        5.1022700    -1.4382830    -0.4191710
units angstrom
no_reorient  #important for SAPT in psi4, default
symmetry c1  #important for SAPT in psi4, default
}

set PROPERTIES_ORIGIN ["COM"]
properties('MP2/aug-cc-pvtz', properties = ['dipole'])
--------------------------------------------------------------------------

    Molecular point group: c1
  Charge       = 0
  Multiplicity = 1
  Basis Set: AUG-CC-PVTZ
    Blend: AUG-CC-PVTZ
  Basis Set: (AUG-CC-PVTZ AUX)
    Blend: AUG-CC-PVTZ-JKFIT

    Orbital Energies [Eh]
    ---------------------

    Doubly Occupied:

       1A    -15.580503     2A    -11.292538     3A    -11.278815
       4A    -11.238191     5A    -11.237572     6A    -11.236185
       7A    -11.235571     8A    -11.234042     9A    -11.231889
      10A    -11.231468    11A    -11.228161    12A    -11.225433
      13A    -11.224079    14A    -11.222119    15A     -1.257929
      16A     -1.150703    17A     -1.127929    18A     -1.041610
      19A     -1.018790    20A     -1.014595    21A     -0.982604
      22A     -0.921843    23A     -0.842625    24A     -0.832471
      25A     -0.812065    26A     -0.787004    27A     -0.712588
      28A     -0.704234    29A     -0.676088    30A     -0.641619
      31A     -0.634985    32A     -0.622300    33A     -0.592591
      34A     -0.588162    35A     -0.585439    36A     -0.584352
      37A     -0.574554    38A     -0.546258    39A     -0.530885
      40A     -0.519842    41A     -0.500779    42A     -0.494496
      43A     -0.488771    44A     -0.479090    45A     -0.442283
      46A     -0.345470    47A     -0.339652    48A     -0.326388
      49A     -0.271849

  @DF-RHF Final Energy:  -554.47929809687548

   => Energetics <=

    Nuclear Repulsion Energy =            786.0452161630087176
    One-Electron Energy =               -2309.6702055384885170
    Two-Electron Energy =                 969.1456912786043176
    Total Energy =                       -554.4792980968754819
  Basis Set: (AUG-CC-PVTZ AUX)
    Blend: AUG-CC-PVTZ-RI
    Molecular point group: c1

    Geometry (in Angstrom), charge = 0, multiplicity = 1:

       Center              X                  Y                   Z               Mass
    ------------   -----------------  -----------------  -----------------  -----------------
         N            0.513405449787     1.185055685734     0.294352379939    14.003074004430
         C           -0.783141550213     0.663604685734     0.153840379939    12.000000000000
         C            1.696475449787     0.450397685734     0.086002379939    12.000000000000
         C           -3.438834550213    -0.304406314266    -0.021968620061    12.000000000000
         C           -1.152959550213    -0.526329314266     0.801098379939    12.000000000000
         C           -1.755653550213     1.368616685734    -0.568222620061    12.000000000000
         C           -2.457819550213    -1.001626314266     0.696995379939    12.000000000000
         C           -3.065224550213     0.894884685734    -0.639025620061    12.000000000000
         C            2.916423449787     1.060161685734     0.420830379939    12.000000000000
         C            1.706064449787    -0.946673614266    -0.468297020061    12.000000000000
         C           -4.859039550213    -0.803521314266    -0.081190620061    12.000000000000
         C            4.120533449787     0.388593685734     0.224668379939    12.000000000000
         C            2.916983449787    -1.524139314266    -0.605781620061    12.000000000000
         C            4.129265449787    -0.914597314266    -0.279094620061    12.000000000000
         H            0.593648449787     2.168022685734     0.055264379939     1.007825032230
         H           -0.419167550213    -1.060992314266     1.398754379939     1.007825032230
         H           -1.480412550213     2.288158685734    -1.083197620061     1.007825032230
         H           -2.723022550213    -1.929878314266     1.201510379939     1.007825032230
         H           -3.803573550213     1.459987685734    -1.206159620061     1.007825032230
         H            2.909522449787     2.065311685734     0.839311379939     1.007825032230
         H            0.774397449787    -1.328151314266    -0.725930620061     1.007825032230
         H           -5.368777550213    -0.432285314266    -0.974935620061     1.007825032230
         H           -4.891711550213    -1.896764314266    -0.103172620061     1.007825032230
         H           -5.434481550213    -0.473076314266     0.790733379939     1.007825032230
         H            5.054735449787     0.880500685734     0.486014379939     1.007825032230
         H            2.908289449787    -2.533410314266    -1.011647620061     1.007825032230
         H            5.067735449787    -1.443932314266    -0.420735620061     1.007825032230

  Basis Set: AUG-CC-PVTZ
    Blend: AUG-CC-PVTZ
  Basis Set: (AUG-CC-PVTZ AUX)
    Blend: AUG-CC-PVTZ-JKFIT
	 Reference Energy          =    -554.4792980968754819 [Eh]
	 Singles Energy            =      -0.0000000000000000 [Eh]
	 Same-Spin Energy          =      -0.6237199779783351 [Eh]
	 Opposite-Spin Energy      =      -1.9532173828456052 [Eh]
	 Correlation Energy        =      -2.5769373608239405 [Eh]
	 Total Energy              =    -557.0562354576994721 [Eh]

	 ================> DF-SCS-MP2 Energies <==================
	-----------------------------------------------------------
	 SCS Same-Spin Scale       =       0.3333333333333333 [-]
	 SCS Opposite-Spin Scale   =       1.2000000000000000 [-]
	 SCS Same-Spin Energy      =      -0.2079066593261117 [Eh]
	 SCS Opposite-Spin Energy  =      -2.3438608594147263 [Eh]
	 SCS Correlation Energy    =      -2.5517675187408382 [Eh]
	 SCS Total Energy          =    -557.0310656156162850 [Eh]
	-----------------------------------------------------------

  Dipole Moment: [D]
     X:    -0.8185      Y:     0.6354      Z:    -0.3240     Total:     1.0856

*** Psi4 exiting successfully. Buy a developer a beer!
