                               Psi4 1.4a3.dev225

  ==> Input File <==

--------------------------------------------------------------------------
#psi4
#
memory 32 gb

molecule  {
0 1
  N        0.5479400     1.1907050     0.2959170
  C       -0.7486070     0.6692540     0.1554050
  C        1.7310100     0.4560470     0.0875670
  C       -3.4043000    -0.2987570    -0.0204040
  C       -1.1184250    -0.5206800     0.8026630
  C       -1.7211190     1.3742660    -0.5666580
  C       -2.4232850    -0.9959770     0.6985600
  C       -3.0306900     0.9005340    -0.6374610
  C        2.9509580     1.0658110     0.4223950
  C        1.7399610    -0.8480750    -0.4298540
  C       -4.8245050    -0.7978720    -0.0796260
  C        4.1550680     0.3942430     0.2262330
  C        2.9515180    -1.5184900    -0.6042170
  C        4.1638000    -0.9089480    -0.2775300
  H        0.6281830     2.1736720     0.0568290
  H       -0.3171251    -1.1045313     1.4553026
  H       -1.4458780     2.2938080    -1.0816330
  H       -2.6884880    -1.9242290     1.2030750
  H       -3.7690390     1.4656370    -1.2045950
  H        2.9440570     2.0709610     0.8408760
  H        0.8089320    -1.3225020    -0.7243660
  H       -5.3342430    -0.4266360    -0.9733710
  H       -4.8571770    -1.8911150    -0.1016080
  H       -5.3999470    -0.4674270     0.7922980
  H        5.0892700     0.8861500     0.4875790
  H        2.9428240    -2.5277610    -1.0100830
  H        5.1022700    -1.4382830    -0.4191710
units angstrom
no_reorient  #important for SAPT in psi4, default
symmetry c1  #important for SAPT in psi4, default
}

set PROPERTIES_ORIGIN ["COM"]
properties('MP2/aug-cc-pvtz', properties = ['dipole'])
--------------------------------------------------------------------------

    Molecular point group: c1
  Charge       = 0
  Multiplicity = 1
  Basis Set: AUG-CC-PVTZ
    Blend: AUG-CC-PVTZ
  Basis Set: (AUG-CC-PVTZ AUX)
    Blend: AUG-CC-PVTZ-JKFIT

    Orbital Energies [Eh]
    ---------------------

    Doubly Occupied:

       1A    -15.577305     2A    -11.282376     3A    -11.278468
       4A    -11.241136     5A    -11.237623     6A    -11.236897
       7A    -11.236872     8A    -11.235392     9A    -11.234932
      10A    -11.233330    11A    -11.228413    12A    -11.225733
      13A    -11.224247    14A    -11.223594    15A     -1.258126
      16A     -1.151970    17A     -1.128292    18A     -1.040747
      19A     -1.014541    20A     -1.009681    21A     -0.989451
      22A     -0.921665    23A     -0.841387    24A     -0.827943
      25A     -0.816681    26A     -0.782569    27A     -0.712439
      28A     -0.704120    29A     -0.667458    30A     -0.635882
      31A     -0.633054    32A     -0.617798    33A     -0.597261
      34A     -0.588125    35A     -0.583678    36A     -0.577448
      37A     -0.573102    38A     -0.544418    39A     -0.530712
      40A     -0.513022    41A     -0.501184    42A     -0.495114
      43A     -0.489121    44A     -0.482020    45A     -0.441950
      46A     -0.340570    47A     -0.335656    48A     -0.331114
      49A     -0.275905

  @DF-RHF Final Energy:  -554.48326280426488

   => Energetics <=

    Nuclear Repulsion Energy =            786.8882434211973305
    One-Electron Energy =               -2311.4419686857995657
    Two-Electron Energy =                 970.0704624603373531
    Total Energy =                       -554.4832628042648821
  Basis Set: (AUG-CC-PVTZ AUX)
    Blend: AUG-CC-PVTZ-RI
    Molecular point group: c1

    Geometry (in Angstrom), charge = 0, multiplicity = 1:

       Center              X                  Y                   Z               Mass
    ------------   -----------------  -----------------  -----------------  -----------------
         N            0.513075692447     1.179234874901     0.291632873678    14.003074004430
         C           -0.783471307553     0.657783874901     0.151120873678    12.000000000000
         C            1.696145692447     0.444576874901     0.083282873678    12.000000000000
         C           -3.439164307553    -0.310227125099    -0.024688126322    12.000000000000
         C           -1.153289307553    -0.532150125099     0.798378873678    12.000000000000
         C           -1.755983307553     1.362795874901    -0.570942126322    12.000000000000
         C           -2.458149307553    -1.007447125099     0.694275873678    12.000000000000
         C           -3.065554307553     0.889063874901    -0.641745126322    12.000000000000
         C            2.916093692447     1.054340874901     0.418110873678    12.000000000000
         C            1.705096692447    -0.859545125099    -0.434138126322    12.000000000000
         C           -4.859369307553    -0.809342125099    -0.083910126322    12.000000000000
         C            4.120203692447     0.382772874901     0.221948873678    12.000000000000
         C            2.916653692447    -1.529960125099    -0.608501126322    12.000000000000
         C            4.128935692447    -0.920418125099    -0.281814126322    12.000000000000
         H            0.593318692447     2.162201874901     0.052544873678     1.007825032230
         H           -0.351989407553    -1.116001425099     1.451018473678     1.007825032230
         H           -1.480742307553     2.282337874901    -1.085917126322     1.007825032230
         H           -2.723352307553    -1.935699125099     1.198790873678     1.007825032230
         H           -3.803903307553     1.454166874901    -1.208879126322     1.007825032230
         H            2.909192692447     2.059490874901     0.836591873678     1.007825032230
         H            0.774067692447    -1.333972125099    -0.728650126322     1.007825032230
         H           -5.369107307553    -0.438106125099    -0.977655126322     1.007825032230
         H           -4.892041307553    -1.902585125099    -0.105892126322     1.007825032230
         H           -5.434811307553    -0.478897125099     0.788013873678     1.007825032230
         H            5.054405692447     0.874679874901     0.483294873678     1.007825032230
         H            2.907959692447    -2.539231125099    -1.014367126322     1.007825032230
         H            5.067405692447    -1.449753125099    -0.423455126322     1.007825032230

  Basis Set: AUG-CC-PVTZ
    Blend: AUG-CC-PVTZ
  Basis Set: (AUG-CC-PVTZ AUX)
    Blend: AUG-CC-PVTZ-JKFIT
	 Reference Energy          =    -554.4832628042648821 [Eh]
	 Singles Energy            =      -0.0000000000000000 [Eh]
	 Same-Spin Energy          =      -0.6242701464815209 [Eh]
	 Opposite-Spin Energy      =      -1.9537461285337430 [Eh]
	 Correlation Energy        =      -2.5780162750152638 [Eh]
	 Total Energy              =    -557.0612790792800979 [Eh]

	 ================> DF-SCS-MP2 Energies <==================
	-----------------------------------------------------------
	 SCS Same-Spin Scale       =       0.3333333333333333 [-]
	 SCS Opposite-Spin Scale   =       1.2000000000000000 [-]
	 SCS Same-Spin Energy      =      -0.2080900488271736 [Eh]
	 SCS Opposite-Spin Energy  =      -2.3444953542404914 [Eh]
	 SCS Correlation Energy    =      -2.5525854030676651 [Eh]
	 SCS Total Energy          =    -557.0358482073324922 [Eh]
	-----------------------------------------------------------

  Dipole Moment: [D]
     X:    -0.6649      Y:     0.5863      Z:    -0.3544     Total:     0.9547

*** Psi4 exiting successfully. Buy a developer a beer!
