                               Psi4 1.4a3.dev225

  ==> Input File <==

--------------------------------------------------------------------------
#psi4
#
memory 32 gb

molecule  {
0 1
  N        0.5479400     1.1907050     0.2959170
  C       -0.7486070     0.6692540     0.1554050
  C        1.7310100     0.4560470     0.0875670
  C       -3.4043000    -0.2987570    -0.0204040
  C       -1.1184250    -0.5206800     0.8026630
  C       -1.7211190     1.3742660    -0.5666580
  C       -2.4232850    -0.9959770     0.6985600
  C       -3.0306900     0.9005340    -0.6374610
  C        2.9509580     1.0658110     0.4223950
  C        1.7399610    -0.8480750    -0.4298540
  C       -4.8245050    -0.7978720    -0.0796260
  C        4.1723608     0.3845983     0.2234158
  C        2.9515180    -1.5184900    -0.6042170
  C        4.1638000    -0.9089480    -0.2775300
  H        0.6281830     2.1736720     0.0568290
  H       -0.3846330    -1.0553430     1.4003190
  H       -1.4458780     2.2938080    -1.0816330
  H       -2.6884880    -1.9242290     1.2030750
  H       -3.7690390     1.4656370    -1.2045950
  H        2.9440570     2.0709610     0.8408760
  H        0.8089320    -1.3225020    -0.7243660
  H       -5.3342430    -0.4266360    -0.9733710
  H       -4.8571770    -1.8911150    -0.1016080
  H       -5.3999470    -0.4674270     0.7922980
  H        5.0892700     0.8861500     0.4875790
  H        2.9428240    -2.5277610    -1.0100830
  H        5.1022700    -1.4382830    -0.4191710
units angstrom
no_reorient  #important for SAPT in psi4, default
symmetry c1  #important for SAPT in psi4, default
}

set PROPERTIES_ORIGIN ["COM"]
properties('MP2/aug-cc-pvtz', properties = ['dipole'])
--------------------------------------------------------------------------

    Molecular point group: c1
  Charge       = 0
  Multiplicity = 1
  Basis Set: AUG-CC-PVTZ
    Blend: AUG-CC-PVTZ
  Basis Set: (AUG-CC-PVTZ AUX)
    Blend: AUG-CC-PVTZ-JKFIT

    Orbital Energies [Eh]
    ---------------------

    Doubly Occupied:

       1A    -15.577016     2A    -11.282407     3A    -11.277342
       4A    -11.238129     5A    -11.237497     6A    -11.236178
       7A    -11.234834     8A    -11.234223     9A    -11.232535
      10A    -11.230126    11A    -11.230003    12A    -11.226807
      13A    -11.223931    14A    -11.223139    15A     -1.257983
      16A     -1.151479    17A     -1.127876    18A     -1.040935
      19A     -1.015584    20A     -1.009349    21A     -0.990129
      22A     -0.921165    23A     -0.843253    24A     -0.829988
      25A     -0.816429    26A     -0.785286    27A     -0.713507
      28A     -0.703846    29A     -0.668484    30A     -0.640228
      31A     -0.635811    32A     -0.618492    33A     -0.599838
      34A     -0.587629    35A     -0.584740    36A     -0.581884
      37A     -0.573286    38A     -0.545216    39A     -0.530380
      40A     -0.511473    41A     -0.501562    42A     -0.494493
      43A     -0.491554    44A     -0.485954    45A     -0.442037
      46A     -0.339868    47A     -0.333988    48A     -0.331684
      49A     -0.276162

  @DF-RHF Final Energy:  -554.49022718562139

   => Energetics <=

    Nuclear Repulsion Energy =            787.0901861966872275
    One-Electron Energy =               -2311.8293475903537910
    Two-Electron Energy =                 970.2489342080451706
    Total Energy =                       -554.4902271856213929
  Basis Set: (AUG-CC-PVTZ AUX)
    Blend: AUG-CC-PVTZ-RI
    Molecular point group: c1

    Geometry (in Angstrom), charge = 0, multiplicity = 1:

       Center              X                  Y                   Z               Mass
    ------------   -----------------  -----------------  -----------------  -----------------
         N            0.512313956824     1.179596215511     0.292120136976    14.003074004430
         C           -0.784233043176     0.658145215511     0.151608136976    12.000000000000
         C            1.695383956824     0.444938215511     0.083770136976    12.000000000000
         C           -3.439926043176    -0.309865784489    -0.024200863024    12.000000000000
         C           -1.154051043176    -0.531788784489     0.798866136976    12.000000000000
         C           -1.756745043176     1.363157215511    -0.570454863024    12.000000000000
         C           -2.458911043176    -1.007085784489     0.694763136976    12.000000000000
         C           -3.066316043176     0.889425215511    -0.641257863024    12.000000000000
         C            2.915331956824     1.054702215511     0.418598136976    12.000000000000
         C            1.704334956824    -0.859183784489    -0.433650863024    12.000000000000
         C           -4.860131043176    -0.808980784489    -0.083422863024    12.000000000000
         C            4.136734756824     0.373489515511     0.219618936976    12.000000000000
         C            2.915891956824    -1.529598784489    -0.608013863024    12.000000000000
         C            4.128173956824    -0.920056784489    -0.281326863024    12.000000000000
         H            0.592556956824     2.162563215511     0.053032136976     1.007825032230
         H           -0.420259043176    -1.066451784489     1.396522136976     1.007825032230
         H           -1.481504043176     2.282699215511    -1.085429863024     1.007825032230
         H           -2.724114043176    -1.935337784489     1.199278136976     1.007825032230
         H           -3.804665043176     1.454528215511    -1.208391863024     1.007825032230
         H            2.908430956824     2.059852215511     0.837079136976     1.007825032230
         H            0.773305956824    -1.333610784489    -0.728162863024     1.007825032230
         H           -5.369869043176    -0.437744784489    -0.977167863024     1.007825032230
         H           -4.892803043176    -1.902223784489    -0.105404863024     1.007825032230
         H           -5.435573043176    -0.478535784489     0.788501136976     1.007825032230
         H            5.053643956824     0.875041215511     0.483782136976     1.007825032230
         H            2.907197956824    -2.538869784489    -1.013879863024     1.007825032230
         H            5.066643956824    -1.449391784489    -0.422967863024     1.007825032230

  Basis Set: AUG-CC-PVTZ
    Blend: AUG-CC-PVTZ
  Basis Set: (AUG-CC-PVTZ AUX)
    Blend: AUG-CC-PVTZ-JKFIT
	 Reference Energy          =    -554.4902271856213929 [Eh]
	 Singles Energy            =      -0.0000000000000000 [Eh]
	 Same-Spin Energy          =      -0.6239313138252950 [Eh]
	 Opposite-Spin Energy      =      -1.9527639653428353 [Eh]
	 Correlation Energy        =      -2.5766952791681303 [Eh]
	 Total Energy              =    -557.0669224647895135 [Eh]

	 ================> DF-SCS-MP2 Energies <==================
	-----------------------------------------------------------
	 SCS Same-Spin Scale       =       0.3333333333333333 [-]
	 SCS Opposite-Spin Scale   =       1.2000000000000000 [-]
	 SCS Same-Spin Energy      =      -0.2079771046084317 [Eh]
	 SCS Opposite-Spin Energy  =      -2.3433167584114023 [Eh]
	 SCS Correlation Energy    =      -2.5512938630198341 [Eh]
	 SCS Total Energy          =    -557.0415210486412434 [Eh]
	-----------------------------------------------------------

  Dipole Moment: [D]
     X:    -0.6242      Y:     0.5716      Z:    -0.3435     Total:     0.9134

*** Psi4 exiting successfully. Buy a developer a beer!
