                               Psi4 1.4a3.dev225

  ==> Input File <==

--------------------------------------------------------------------------
#psi4
#
memory 32 gb

molecule  {
0 1
  N        0.5479400     1.1907050     0.2959170
  C       -0.7486070     0.6692540     0.1554050
  C        1.7310100     0.4560470     0.0875670
  C       -3.4043000    -0.2987570    -0.0204040
  C       -1.1184250    -0.5206800     0.8026630
  C       -1.7211190     1.3742660    -0.5666580
  C       -2.4232850    -0.9959770     0.6985600
  C       -3.0306900     0.9005340    -0.6374610
  C        2.9509580     1.0658110     0.4223950
  C        1.7399610    -0.8480750    -0.4298540
  C       -4.8245050    -0.7978720    -0.0796260
  C        4.1550680     0.3942430     0.2262330
  C        2.9515180    -1.5184900    -0.6042170
  C        4.1638000    -0.9089480    -0.2775300
  H        0.6281830     2.1736720     0.0568290
  H       -0.3846330    -1.0553430     1.4003190
  H       -1.4458780     2.2938080    -1.0816330
  H       -2.6884880    -1.9242290     1.2030750
  H       -3.7690390     1.4656370    -1.2045950
  H        2.9440570     2.0709610     0.8408760
  H        0.8089320    -1.3225020    -0.7243660
  H       -5.3342430    -0.4266360    -0.9733710
  H       -4.8571770    -1.8911150    -0.1016080
  H       -5.3999470    -0.4674270     0.7922980
  H        5.0892700     0.8861500     0.4875790
  H        2.9428240    -2.5277610    -1.0100830
  H        5.0590914    -1.4139285    -0.4126542
units angstrom
no_reorient  #important for SAPT in psi4, default
symmetry c1  #important for SAPT in psi4, default
}

set PROPERTIES_ORIGIN ["COM"]
properties('MP2/aug-cc-pvtz', properties = ['dipole'])
--------------------------------------------------------------------------

    Molecular point group: c1
  Charge       = 0
  Multiplicity = 1
  Basis Set: AUG-CC-PVTZ
    Blend: AUG-CC-PVTZ
  Basis Set: (AUG-CC-PVTZ AUX)
    Blend: AUG-CC-PVTZ-JKFIT

    Orbital Energies [Eh]
    ---------------------

    Doubly Occupied:

       1A    -15.577193     2A    -11.282457     3A    -11.277295
       4A    -11.237419     5A    -11.236722     6A    -11.236154
       7A    -11.234786     8A    -11.234173     9A    -11.232530
      10A    -11.229962    11A    -11.228260    12A    -11.225717
      13A    -11.223116    14A    -11.218452    15A     -1.258079
      16A     -1.151823    17A     -1.128364    18A     -1.040956
      19A     -1.015777    20A     -1.010459    21A     -0.990823
      22A     -0.921685    23A     -0.842930    24A     -0.830326
      25A     -0.817883    26A     -0.785597    27A     -0.713690
      28A     -0.704027    29A     -0.674236    30A     -0.640800
      31A     -0.635337    32A     -0.618874    33A     -0.598422
      34A     -0.587765    35A     -0.585021    36A     -0.582237
      37A     -0.573299    38A     -0.545513    39A     -0.530514
      40A     -0.516947    41A     -0.501811    42A     -0.494674
      43A     -0.489524    44A     -0.485900    45A     -0.441697
      46A     -0.340147    47A     -0.335489    48A     -0.330802
      49A     -0.275636

  @DF-RHF Final Energy:  -554.49006928738800

   => Energetics <=

    Nuclear Repulsion Energy =            787.6085582616855163
    One-Electron Energy =               -2312.8546617636320661
    Two-Electron Energy =                 970.7560342145584400
    Total Energy =                       -554.4900692873879962
  Basis Set: (AUG-CC-PVTZ AUX)
    Blend: AUG-CC-PVTZ-RI
    Molecular point group: c1

    Geometry (in Angstrom), charge = 0, multiplicity = 1:

       Center              X                  Y                   Z               Mass
    ------------   -----------------  -----------------  -----------------  -----------------
         N            0.513684920746     1.178830088817     0.291899639238    14.003074004430
         C           -0.782862079254     0.657379088817     0.151387639238    12.000000000000
         C            1.696754920746     0.444172088817     0.083549639238    12.000000000000
         C           -3.438555079254    -0.310631911183    -0.024421360762    12.000000000000
         C           -1.152680079254    -0.532554911183     0.798645639238    12.000000000000
         C           -1.755374079254     1.362391088817    -0.570675360762    12.000000000000
         C           -2.457540079254    -1.007851911183     0.694542639238    12.000000000000
         C           -3.064945079254     0.888659088817    -0.641478360762    12.000000000000
         C            2.916702920746     1.053936088817     0.418377639238    12.000000000000
         C            1.705705920746    -0.859949911183    -0.433871360762    12.000000000000
         C           -4.858760079254    -0.809746911183    -0.083643360762    12.000000000000
         C            4.120812920746     0.382368088817     0.222215639238    12.000000000000
         C            2.917262920746    -1.530364911183    -0.608234360762    12.000000000000
         C            4.129544920746    -0.920822911183    -0.281547360762    12.000000000000
         H            0.593927920746     2.161797088817     0.052811639238     1.007825032230
         H           -0.418888079254    -1.067217911183     1.396301639238     1.007825032230
         H           -1.480133079254     2.281933088817    -1.085650360762     1.007825032230
         H           -2.722743079254    -1.936103911183     1.199057639238     1.007825032230
         H           -3.803294079254     1.453762088817    -1.208612360762     1.007825032230
         H            2.909801920746     2.059086088817     0.836858639238     1.007825032230
         H            0.774676920746    -1.334376911183    -0.728383360762     1.007825032230
         H           -5.368498079254    -0.438510911183    -0.977388360762     1.007825032230
         H           -4.891432079254    -1.902989911183    -0.105625360762     1.007825032230
         H           -5.434202079254    -0.479301911183     0.788280639238     1.007825032230
         H            5.055014920746     0.874275088817     0.483561639238     1.007825032230
         H            2.908568920746    -2.539635911183    -1.014100360762     1.007825032230
         H            5.024836320746    -1.425803411183    -0.416671560762     1.007825032230

  Basis Set: AUG-CC-PVTZ
    Blend: AUG-CC-PVTZ
  Basis Set: (AUG-CC-PVTZ AUX)
    Blend: AUG-CC-PVTZ-JKFIT
	 Reference Energy          =    -554.4900692873879962 [Eh]
	 Singles Energy            =      -0.0000000000000000 [Eh]
	 Same-Spin Energy          =      -0.6238470929772206 [Eh]
	 Opposite-Spin Energy      =      -1.9523669658197298 [Eh]
	 Correlation Energy        =      -2.5762140587969506 [Eh]
	 Total Energy              =    -557.0662833461849459 [Eh]

	 ================> DF-SCS-MP2 Energies <==================
	-----------------------------------------------------------
	 SCS Same-Spin Scale       =       0.3333333333333333 [-]
	 SCS Opposite-Spin Scale   =       1.2000000000000000 [-]
	 SCS Same-Spin Energy      =      -0.2079490309924069 [Eh]
	 SCS Opposite-Spin Energy  =      -2.3428403589836755 [Eh]
	 SCS Correlation Energy    =      -2.5507893899760825 [Eh]
	 SCS Total Energy          =    -557.0408586773640991 [Eh]
	-----------------------------------------------------------

  Dipole Moment: [D]
     X:    -0.6152      Y:     0.5689      Z:    -0.3434     Total:     0.9055

*** Psi4 exiting successfully. Buy a developer a beer!
