                               Psi4 1.4a3.dev225

  ==> Input File <==

--------------------------------------------------------------------------
#psi4
#
memory 32 gb

molecule  {
0 1
  N        0.5479400     1.1907050     0.2959170
  C       -0.7486070     0.6692540     0.1554050
  C        1.7310100     0.4560470     0.0875670
  C       -3.4043000    -0.2987570    -0.0204040
  C       -1.1184250    -0.5206800     0.8026630
  C       -1.7211190     1.3742660    -0.5666580
  C       -2.4232850    -0.9959770     0.6985600
  C       -3.0306900     0.9005340    -0.6374610
  C        2.9509580     1.0658110     0.4223950
  C        1.7412369    -1.0339736    -0.5036108
  C       -4.8245050    -0.7978720    -0.0796260
  C        4.1550680     0.3942430     0.2262330
  C        2.9515180    -1.5184900    -0.6042170
  C        4.1638000    -0.9089480    -0.2775300
  H        0.6281830     2.1736720     0.0568290
  H       -0.3846330    -1.0553430     1.4003190
  H       -1.4458780     2.2938080    -1.0816330
  H       -2.6884880    -1.9242290     1.2030750
  H       -3.7690390     1.4656370    -1.2045950
  H        2.9440570     2.0709610     0.8408760
  H        0.8089320    -1.3225020    -0.7243660
  H       -5.3342430    -0.4266360    -0.9733710
  H       -4.8571770    -1.8911150    -0.1016080
  H       -5.3999470    -0.4674270     0.7922980
  H        5.0892700     0.8861500     0.4875790
  H        2.9428240    -2.5277610    -1.0100830
  H        5.1022700    -1.4382830    -0.4191710
units angstrom
no_reorient  #important for SAPT in psi4, default
symmetry c1  #important for SAPT in psi4, default
}

set PROPERTIES_ORIGIN ["COM"]
properties('MP2/aug-cc-pvtz', properties = ['dipole'])
--------------------------------------------------------------------------

    Molecular point group: c1
  Charge       = 0
  Multiplicity = 1
  Basis Set: AUG-CC-PVTZ
    Blend: AUG-CC-PVTZ
  Basis Set: (AUG-CC-PVTZ AUX)
    Blend: AUG-CC-PVTZ-JKFIT

    Orbital Energies [Eh]
    ---------------------

    Doubly Occupied:

       1A    -15.582828     2A    -11.298374     3A    -11.279891
       4A    -11.239040     5A    -11.238656     6A    -11.237261
       7A    -11.236648     8A    -11.235163     9A    -11.232610
      10A    -11.231222    11A    -11.227378    12A    -11.224819
      13A    -11.222240    14A    -11.220190    15A     -1.257640
      16A     -1.150203    17A     -1.127918    18A     -1.043334
      19A     -1.023843    20A     -1.016366    21A     -0.977390
      22A     -0.922167    23A     -0.843407    24A     -0.835571
      25A     -0.808232    26A     -0.787582    27A     -0.712377
      28A     -0.703160    29A     -0.686879    30A     -0.643881
      31A     -0.635244    32A     -0.626438    33A     -0.595401
      34A     -0.588283    35A     -0.585809    36A     -0.575816
      37A     -0.574698    38A     -0.546971    39A     -0.532323
      40A     -0.523334    41A     -0.501712    42A     -0.494226
      43A     -0.489395    44A     -0.464403    45A     -0.439387
      46A     -0.353715    47A     -0.341174    48A     -0.323448
      49A     -0.268223

  @DF-RHF Final Energy:  -554.45003264307218

   => Energetics <=

    Nuclear Repulsion Energy =            784.8309514177118444
    One-Electron Energy =               -2307.1494250326850306
    Two-Electron Energy =                 967.8684409719011228
    Total Energy =                       -554.4500326430721771
  Basis Set: (AUG-CC-PVTZ AUX)
    Blend: AUG-CC-PVTZ-RI
    Molecular point group: c1

    Geometry (in Angstrom), charge = 0, multiplicity = 1:

       Center              X                  Y                   Z               Mass
    ------------   -----------------  -----------------  -----------------  -----------------
         N            0.513363644220     1.191147233326     0.296769251596    14.003074004430
         C           -0.783183355780     0.669696233326     0.156257251596    12.000000000000
         C            1.696433644220     0.456489233326     0.088419251596    12.000000000000
         C           -3.438876355780    -0.298314766674    -0.019551748404    12.000000000000
         C           -1.153001355780    -0.520237766674     0.803515251596    12.000000000000
         C           -1.755695355780     1.374708233326    -0.565805748404    12.000000000000
         C           -2.457861355780    -0.995534766674     0.699412251596    12.000000000000
         C           -3.065266355780     0.900976233326    -0.636608748404    12.000000000000
         C            2.916381644220     1.066253233326     0.423247251596    12.000000000000
         C            1.706660544220    -1.033531366674    -0.502758548404    12.000000000000
         C           -4.859081355780    -0.797429766674    -0.078773748404    12.000000000000
         C            4.120491644220     0.394685233326     0.227085251596    12.000000000000
         C            2.916941644220    -1.518047766674    -0.603364748404    12.000000000000
         C            4.129223644220    -0.908505766674    -0.276677748404    12.000000000000
         H            0.593606644220     2.174114233326     0.057681251596     1.007825032230
         H           -0.419209355780    -1.054900766674     1.401171251596     1.007825032230
         H           -1.480454355780     2.294250233326    -1.080780748404     1.007825032230
         H           -2.723064355780    -1.923786766674     1.203927251596     1.007825032230
         H           -3.803615355780     1.466079233326    -1.203742748404     1.007825032230
         H            2.909480644220     2.071403233326     0.841728251596     1.007825032230
         H            0.774355644220    -1.322059766674    -0.723513748404     1.007825032230
         H           -5.368819355780    -0.426193766674    -0.972518748404     1.007825032230
         H           -4.891753355780    -1.890672766674    -0.100755748404     1.007825032230
         H           -5.434523355780    -0.466984766674     0.793150251596     1.007825032230
         H            5.054693644220     0.886592233326     0.488431251596     1.007825032230
         H            2.908247644220    -2.527318766674    -1.009230748404     1.007825032230
         H            5.067693644220    -1.437840766674    -0.418318748404     1.007825032230

  Basis Set: AUG-CC-PVTZ
    Blend: AUG-CC-PVTZ
  Basis Set: (AUG-CC-PVTZ AUX)
    Blend: AUG-CC-PVTZ-JKFIT
	 Reference Energy          =    -554.4500326430721771 [Eh]
	 Singles Energy            =      -0.0000000000000000 [Eh]
	 Same-Spin Energy          =      -0.6234548533578413 [Eh]
	 Opposite-Spin Energy      =      -1.9546152157258891 [Eh]
	 Correlation Energy        =      -2.5780700690837306 [Eh]
	 Total Energy              =    -557.0281027121559418 [Eh]

	 ================> DF-SCS-MP2 Energies <==================
	-----------------------------------------------------------
	 SCS Same-Spin Scale       =       0.3333333333333333 [-]
	 SCS Opposite-Spin Scale   =       1.2000000000000000 [-]
	 SCS Same-Spin Energy      =      -0.2078182844526138 [Eh]
	 SCS Opposite-Spin Energy  =      -2.3455382588710667 [Eh]
	 SCS Correlation Energy    =      -2.5533565433236807 [Eh]
	 SCS Total Energy          =    -557.0033891863959070 [Eh]
	-----------------------------------------------------------

  Dipole Moment: [D]
     X:    -0.9585      Y:     0.6670      Z:    -0.3177     Total:     1.2102

*** Psi4 exiting successfully. Buy a developer a beer!
