                               Psi4 1.4a3.dev225

  ==> Input File <==

--------------------------------------------------------------------------
#psi4
#
memory 32 gb

molecule  {
0 1
  N        0.5479400     1.1907050     0.2959170
  C       -0.7486070     0.6692540     0.1554050
  C        1.7310100     0.4560470     0.0875670
  C       -3.4043000    -0.2987570    -0.0204040
  C       -1.1184250    -0.5206800     0.8026630
  C       -1.7211190     1.3742660    -0.5666580
  C       -2.4232850    -0.9959770     0.6985600
  C       -3.0306900     0.9005340    -0.6374610
  C        2.9509580     1.0658110     0.4223950
  C        1.7399610    -0.8480750    -0.4298540
  C       -4.8245050    -0.7978720    -0.0796260
  C        4.1550680     0.3942430     0.2262330
  C        2.9515180    -1.5184900    -0.6042170
  C        4.2072301    -0.8871111    -0.2658264
  H        0.6281830     2.1736720     0.0568290
  H       -0.3846330    -1.0553430     1.4003190
  H       -1.4458780     2.2938080    -1.0816330
  H       -2.6884880    -1.9242290     1.2030750
  H       -3.7690390     1.4656370    -1.2045950
  H        2.9440570     2.0709610     0.8408760
  H        0.8089320    -1.3225020    -0.7243660
  H       -5.3342430    -0.4266360    -0.9733710
  H       -4.8571770    -1.8911150    -0.1016080
  H       -5.3999470    -0.4674270     0.7922980
  H        5.0892700     0.8861500     0.4875790
  H        2.9428240    -2.5277610    -1.0100830
  H        5.1022700    -1.4382830    -0.4191710
units angstrom
no_reorient  #important for SAPT in psi4, default
symmetry c1  #important for SAPT in psi4, default
}

set PROPERTIES_ORIGIN ["COM"]
properties('MP2/aug-cc-pvtz', properties = ['dipole'])
--------------------------------------------------------------------------

    Molecular point group: c1
  Charge       = 0
  Multiplicity = 1
  Basis Set: AUG-CC-PVTZ
    Blend: AUG-CC-PVTZ
  Basis Set: (AUG-CC-PVTZ AUX)
    Blend: AUG-CC-PVTZ-JKFIT

    Orbital Energies [Eh]
    ---------------------

    Doubly Occupied:

       1A    -15.577724     2A    -11.283413     3A    -11.277658
       4A    -11.242856     5A    -11.236477     6A    -11.235119
       7A    -11.235064     8A    -11.234510     9A    -11.232860
      10A    -11.230352    11A    -11.227237    12A    -11.227220
      13A    -11.224811    14A    -11.223345    15A     -1.258537
      16A     -1.151375    17A     -1.126716    18A     -1.040358
      19A     -1.016578    20A     -1.010523    21A     -0.988617
      22A     -0.921303    23A     -0.843910    24A     -0.827088
      25A     -0.819095    26A     -0.785014    27A     -0.712680
      28A     -0.704122    29A     -0.672390    30A     -0.641352
      31A     -0.635095    32A     -0.617945    33A     -0.598872
      34A     -0.587826    35A     -0.584771    36A     -0.579757
      37A     -0.573541    38A     -0.546028    39A     -0.530540
      40A     -0.518719    41A     -0.503040    42A     -0.494370
      43A     -0.486605    44A     -0.483985    45A     -0.441058
      46A     -0.341285    47A     -0.336331    48A     -0.329053
      49A     -0.275499

  @DF-RHF Final Energy:  -554.48769740382852

   => Energetics <=

    Nuclear Repulsion Energy =            786.7839802362489081
    One-Electron Energy =               -2311.1981074313707722
    Two-Electron Energy =                 969.9264297912933444
    Total Energy =                       -554.4876974038285198
  Basis Set: (AUG-CC-PVTZ AUX)
    Blend: AUG-CC-PVTZ-RI
    Molecular point group: c1

    Geometry (in Angstrom), charge = 0, multiplicity = 1:

       Center              X                  Y                   Z               Mass
    ------------   -----------------  -----------------  -----------------  -----------------
         N            0.510601016470     1.177533029832     0.291168498349    14.003074004430
         C           -0.785945983530     0.656082029832     0.150656498349    12.000000000000
         C            1.693671016470     0.442875029832     0.082818498349    12.000000000000
         C           -3.441638983530    -0.311928970168    -0.025152501651    12.000000000000
         C           -1.155763983530    -0.533851970168     0.797914498349    12.000000000000
         C           -1.758457983530     1.361094029832    -0.571406501651    12.000000000000
         C           -2.460623983530    -1.009148970168     0.693811498349    12.000000000000
         C           -3.068028983530     0.887362029832    -0.642209501651    12.000000000000
         C            2.913619016470     1.052639029832     0.417646498349    12.000000000000
         C            1.702622016470    -0.861246970168    -0.434602501651    12.000000000000
         C           -4.861843983530    -0.811043970168    -0.084374501651    12.000000000000
         C            4.117729016470     0.381071029832     0.221484498349    12.000000000000
         C            2.914179016470    -1.531661970168    -0.608965501651    12.000000000000
         C            4.169891116470    -0.900283070168    -0.270574901651    12.000000000000
         H            0.590844016470     2.160500029832     0.052080498349     1.007825032230
         H           -0.421971983530    -1.068514970168     1.395570498349     1.007825032230
         H           -1.483216983530     2.280636029832    -1.086381501651     1.007825032230
         H           -2.725826983530    -1.937400970168     1.198326498349     1.007825032230
         H           -3.806377983530     1.452465029832    -1.209343501651     1.007825032230
         H            2.906718016470     2.057789029832     0.836127498349     1.007825032230
         H            0.771593016470    -1.335673970168    -0.729114501651     1.007825032230
         H           -5.371581983530    -0.439807970168    -0.978119501651     1.007825032230
         H           -4.894515983530    -1.904286970168    -0.106356501651     1.007825032230
         H           -5.437285983530    -0.480598970168     0.787549498349     1.007825032230
         H            5.051931016470     0.872978029832     0.482830498349     1.007825032230
         H            2.905485016470    -2.540932970168    -1.014831501651     1.007825032230
         H            5.064931016470    -1.451454970168    -0.423919501651     1.007825032230

  Basis Set: AUG-CC-PVTZ
    Blend: AUG-CC-PVTZ
  Basis Set: (AUG-CC-PVTZ AUX)
    Blend: AUG-CC-PVTZ-JKFIT
	 Reference Energy          =    -554.4876974038285198 [Eh]
	 Singles Energy            =      -0.0000000000000000 [Eh]
	 Same-Spin Energy          =      -0.6238616935422758 [Eh]
	 Opposite-Spin Energy      =      -1.9528947537476713 [Eh]
	 Correlation Energy        =      -2.5767564472899469 [Eh]
	 Total Energy              =    -557.0644538511185146 [Eh]

	 ================> DF-SCS-MP2 Energies <==================
	-----------------------------------------------------------
	 SCS Same-Spin Scale       =       0.3333333333333333 [-]
	 SCS Opposite-Spin Scale   =       1.2000000000000000 [-]
	 SCS Same-Spin Energy      =      -0.2079538978474253 [Eh]
	 SCS Opposite-Spin Energy  =      -2.3434737044972054 [Eh]
	 SCS Correlation Energy    =      -2.5514276023446305 [Eh]
	 SCS Total Energy          =    -557.0391250061730943 [Eh]
	-----------------------------------------------------------

  Dipole Moment: [D]
     X:    -0.6640      Y:     0.5592      Z:    -0.3504     Total:     0.9361

*** Psi4 exiting successfully. Buy a developer a beer!
