                               Psi4 1.4a3.dev225

  ==> Input File <==

--------------------------------------------------------------------------
#psi4
#
memory 32 gb

molecule  {
0 1
  N        0.5479400     1.1907050     0.2959170
  C       -0.7486070     0.6692540     0.1554050
  C        1.7310100     0.4560470     0.0875670
  C       -3.3709456    -0.2645921    -0.0311186
  C       -1.1184250    -0.5206800     0.8026630
  C       -1.7211190     1.3742660    -0.5666580
  C       -2.4232850    -0.9959770     0.6985600
  C       -3.0306900     0.9005340    -0.6374610
  C        2.9509580     1.0658110     0.4223950
  C        1.7399610    -0.8480750    -0.4298540
  C       -4.8245050    -0.7978720    -0.0796260
  C        4.1550680     0.3942430     0.2262330
  C        2.9515180    -1.5184900    -0.6042170
  C        4.1638000    -0.9089480    -0.2775300
  H        0.6281830     2.1736720     0.0568290
  H       -0.3846330    -1.0553430     1.4003190
  H       -1.4458780     2.2938080    -1.0816330
  H       -2.6884880    -1.9242290     1.2030750
  H       -3.7690390     1.4656370    -1.2045950
  H        2.9440570     2.0709610     0.8408760
  H        0.8089320    -1.3225020    -0.7243660
  H       -5.3342430    -0.4266360    -0.9733710
  H       -4.8571770    -1.8911150    -0.1016080
  H       -5.3999470    -0.4674270     0.7922980
  H        5.0892700     0.8861500     0.4875790
  H        2.9428240    -2.5277610    -1.0100830
  H        5.1022700    -1.4382830    -0.4191710
units angstrom
no_reorient  #important for SAPT in psi4, default
symmetry c1  #important for SAPT in psi4, default
}

set PROPERTIES_ORIGIN ["COM"]
properties('MP2/aug-cc-pvtz', properties = ['dipole'])
--------------------------------------------------------------------------

    Molecular point group: c1
  Charge       = 0
  Multiplicity = 1
  Basis Set: AUG-CC-PVTZ
    Blend: AUG-CC-PVTZ
  Basis Set: (AUG-CC-PVTZ AUX)
    Blend: AUG-CC-PVTZ-JKFIT

    Orbital Energies [Eh]
    ---------------------

    Doubly Occupied:

       1A    -15.577108     2A    -11.282624     3A    -11.277075
       4A    -11.237930     5A    -11.237258     6A    -11.235256
       7A    -11.233087     8A    -11.232432     9A    -11.230736
      10A    -11.229578    11A    -11.228605    12A    -11.226160
      13A    -11.224478    14A    -11.223852    15A     -1.258199
      16A     -1.154499    17A     -1.129616    18A     -1.037605
      19A     -1.017640    20A     -1.011374    21A     -0.987276
      22A     -0.920033    23A     -0.845122    24A     -0.829168
      25A     -0.818728    26A     -0.785501    27A     -0.713874
      28A     -0.704406    29A     -0.668822    30A     -0.637601
      31A     -0.635282    32A     -0.620136    33A     -0.597725
      34A     -0.589757    35A     -0.586167    36A     -0.582776
      37A     -0.570071    38A     -0.544745    39A     -0.530217
      40A     -0.510906    41A     -0.498412    42A     -0.497814
      43A     -0.489820    44A     -0.483241    45A     -0.443872
      46A     -0.341640    47A     -0.336451    48A     -0.331838
      49A     -0.277072

  @DF-RHF Final Energy:  -554.48899354167497

   => Energetics <=

    Nuclear Repulsion Energy =            787.8786045476358595
    One-Electron Energy =               -2313.4080260291948434
    Two-Electron Energy =                 971.0404279398840117
    Total Energy =                       -554.4889935416749722
  Basis Set: (AUG-CC-PVTZ AUX)
    Blend: AUG-CC-PVTZ-RI
    Molecular point group: c1

    Geometry (in Angstrom), charge = 0, multiplicity = 1:

       Center              X                  Y                   Z               Mass
    ------------   -----------------  -----------------  -----------------  -----------------
         N            0.511261339959     1.176725099071     0.292637702874    14.003074004430
         C           -0.785285660041     0.655274099071     0.152125702874    12.000000000000
         C            1.694331339959     0.442067099071     0.084287702874    12.000000000000
         C           -3.407624260041    -0.278572000929    -0.034397897126    12.000000000000
         C           -1.155103660041    -0.534659900929     0.799383702874    12.000000000000
         C           -1.757797660041     1.360286099071    -0.569937297126    12.000000000000
         C           -2.459963660041    -1.009956900929     0.695280702874    12.000000000000
         C           -3.067368660041     0.886554099071    -0.640740297126    12.000000000000
         C            2.914279339959     1.051831099071     0.419115702874    12.000000000000
         C            1.703282339959    -0.862054900929    -0.433133297126    12.000000000000
         C           -4.861183660041    -0.811851900929    -0.082905297126    12.000000000000
         C            4.118389339959     0.380263099071     0.222953702874    12.000000000000
         C            2.914839339959    -1.532469900929    -0.607496297126    12.000000000000
         C            4.127121339959    -0.922927900929    -0.280809297126    12.000000000000
         H            0.591504339959     2.159692099071     0.053549702874     1.007825032230
         H           -0.421311660041    -1.069322900929     1.397039702874     1.007825032230
         H           -1.482556660041     2.279828099071    -1.084912297126     1.007825032230
         H           -2.725166660041    -1.938208900929     1.199795702874     1.007825032230
         H           -3.805717660041     1.451657099071    -1.207874297126     1.007825032230
         H            2.907378339959     2.056981099071     0.837596702874     1.007825032230
         H            0.772253339959    -1.336481900929    -0.727645297126     1.007825032230
         H           -5.370921660041    -0.440615900929    -0.976650297126     1.007825032230
         H           -4.893855660041    -1.905094900929    -0.104887297126     1.007825032230
         H           -5.436625660041    -0.481406900929     0.789018702874     1.007825032230
         H            5.052591339959     0.872170099071     0.484299702874     1.007825032230
         H            2.906145339959    -2.541740900929    -1.013362297126     1.007825032230
         H            5.065591339959    -1.452262900929    -0.422450297126     1.007825032230

  Basis Set: AUG-CC-PVTZ
    Blend: AUG-CC-PVTZ
  Basis Set: (AUG-CC-PVTZ AUX)
    Blend: AUG-CC-PVTZ-JKFIT
	 Reference Energy          =    -554.4889935416749722 [Eh]
	 Singles Energy            =      -0.0000000000000000 [Eh]
	 Same-Spin Energy          =      -0.6235652388420967 [Eh]
	 Opposite-Spin Energy      =      -1.9522375892118784 [Eh]
	 Correlation Energy        =      -2.5758028280539751 [Eh]
	 Total Energy              =    -557.0647963697289242 [Eh]

	 ================> DF-SCS-MP2 Energies <==================
	-----------------------------------------------------------
	 SCS Same-Spin Scale       =       0.3333333333333333 [-]
	 SCS Opposite-Spin Scale   =       1.2000000000000000 [-]
	 SCS Same-Spin Energy      =      -0.2078550796140322 [Eh]
	 SCS Opposite-Spin Energy  =      -2.3426851070542538 [Eh]
	 SCS Correlation Energy    =      -2.5505401866682860 [Eh]
	 SCS Total Energy          =    -557.0395337283432582 [Eh]
	-----------------------------------------------------------

  Dipole Moment: [D]
     X:    -0.5812      Y:     0.5809      Z:    -0.3302     Total:     0.8856

*** Psi4 exiting successfully. Buy a developer a beer!
