                               Psi4 1.4a3.dev225

  ==> Input File <==

--------------------------------------------------------------------------
#psi4
#
memory 32 gb

molecule  {
0 1
  N        0.5479400     1.1907050     0.2959170
  C       -0.7486070     0.6692540     0.1554050
  C        1.7310100     0.4560470     0.0875670
  C       -3.4043000    -0.2987570    -0.0204040
  C       -1.1184250    -0.5206800     0.8026630
  C       -1.7211190     1.3742660    -0.5666580
  C       -2.4232850    -0.9959770     0.6985600
  C       -3.0306900     0.9005340    -0.6374610
  C        2.9509580     1.0658110     0.4223950
  C        1.7399610    -0.8480750    -0.4298540
  C       -4.8245050    -0.7978720    -0.0796260
  C        4.1550680     0.3942430     0.2262330
  C        2.9515180    -1.5184900    -0.6042170
  C        4.1638000    -0.9089480    -0.2775300
  H        0.6281830     2.1736720     0.0568290
  H       -0.3711314    -1.0651807     1.4113157
  H       -1.4458780     2.2938080    -1.0816330
  H       -2.6884880    -1.9242290     1.2030750
  H       -3.7690390     1.4656370    -1.2045950
  H        2.9440570     2.0709610     0.8408760
  H        0.8089320    -1.3225020    -0.7243660
  H       -5.3342430    -0.4266360    -0.9733710
  H       -4.8571770    -1.8911150    -0.1016080
  H       -5.3999470    -0.4674270     0.7922980
  H        5.0892700     0.8861500     0.4875790
  H        2.9428240    -2.5277610    -1.0100830
  H        5.1022700    -1.4382830    -0.4191710
units angstrom
no_reorient  #important for SAPT in psi4, default
symmetry c1  #important for SAPT in psi4, default
}

set PROPERTIES_ORIGIN ["COM"]
properties('MP2/aug-cc-pvtz', properties = ['dipole'])
--------------------------------------------------------------------------

    Molecular point group: c1
  Charge       = 0
  Multiplicity = 1
  Basis Set: AUG-CC-PVTZ
    Blend: AUG-CC-PVTZ
  Basis Set: (AUG-CC-PVTZ AUX)
    Blend: AUG-CC-PVTZ-JKFIT

    Orbital Energies [Eh]
    ---------------------

    Doubly Occupied:

       1A    -15.577305     2A    -11.282580     3A    -11.277580
       4A    -11.237830     5A    -11.237117     6A    -11.236355
       7A    -11.234977     8A    -11.234446     9A    -11.232746
      10A    -11.232233    11A    -11.228561    12A    -11.225990
      13A    -11.224406    14A    -11.223248    15A     -1.258187
      16A     -1.151888    17A     -1.128266    18A     -1.040704
      19A     -1.015542    20A     -1.010507    21A     -0.989493
      22A     -0.921450    23A     -0.842381    24A     -0.829311
      25A     -0.816743    26A     -0.784649    27A     -0.713052
      28A     -0.704035    29A     -0.668305    30A     -0.638783
      31A     -0.635164    32A     -0.618850    33A     -0.597507
      34A     -0.587811    35A     -0.584621    36A     -0.581716
      37A     -0.573361    38A     -0.545371    39A     -0.530639
      40A     -0.513273    41A     -0.501263    42A     -0.494871
      43A     -0.489554    44A     -0.485387    45A     -0.441893
      46A     -0.340336    47A     -0.335713    48A     -0.330982
      49A     -0.275791

  @DF-RHF Final Energy:  -554.49017537723387

   => Energetics <=

    Nuclear Repulsion Energy =            787.2445592581917708
    One-Electron Energy =               -2312.1439237868880809
    Two-Electron Energy =                 970.4091891514625559
    Total Energy =                       -554.4901753772338679
  Basis Set: (AUG-CC-PVTZ AUX)
    Blend: AUG-CC-PVTZ-RI
    Molecular point group: c1

    Geometry (in Angstrom), charge = 0, multiplicity = 1:

       Center              X                  Y                   Z               Mass
    ------------   -----------------  -----------------  -----------------  -----------------
         N            0.513372947906     1.179018285714     0.291874981471    14.003074004430
         C           -0.783174052094     0.657567285714     0.151362981471    12.000000000000
         C            1.696442947906     0.444360285714     0.083524981471    12.000000000000
         C           -3.438867052094    -0.310443714286    -0.024446018529    12.000000000000
         C           -1.152992052094    -0.532366714286     0.798620981471    12.000000000000
         C           -1.755686052094     1.362579285714    -0.570700018529    12.000000000000
         C           -2.457852052094    -1.007663714286     0.694517981471    12.000000000000
         C           -3.065257052094     0.888847285714    -0.641503018529    12.000000000000
         C            2.916390947906     1.054124285714     0.418352981471    12.000000000000
         C            1.705393947906    -0.859761714286    -0.433896018529    12.000000000000
         C           -4.859072052094    -0.809558714286    -0.083668018529    12.000000000000
         C            4.120500947906     0.382556285714     0.222190981471    12.000000000000
         C            2.916950947906    -1.530176714286    -0.608259018529    12.000000000000
         C            4.129232947906    -0.920634714286    -0.281572018529    12.000000000000
         H            0.593615947906     2.161985285714     0.052786981471     1.007825032230
         H           -0.405698452094    -1.076867414286     1.407273681471     1.007825032230
         H           -1.480445052094     2.282121285714    -1.085675018529     1.007825032230
         H           -2.723055052094    -1.935915714286     1.199032981471     1.007825032230
         H           -3.803606052094     1.453950285714    -1.208637018529     1.007825032230
         H            2.909489947906     2.059274285714     0.836833981471     1.007825032230
         H            0.774364947906    -1.334188714286    -0.728408018529     1.007825032230
         H           -5.368810052094    -0.438322714286    -0.977413018529     1.007825032230
         H           -4.891744052094    -1.902801714286    -0.105650018529     1.007825032230
         H           -5.434514052094    -0.479113714286     0.788255981471     1.007825032230
         H            5.054702947906     0.874463285714     0.483536981471     1.007825032230
         H            2.908256947906    -2.539447714286    -1.014125018529     1.007825032230
         H            5.067702947906    -1.449969714286    -0.423213018529     1.007825032230

  Basis Set: AUG-CC-PVTZ
    Blend: AUG-CC-PVTZ
  Basis Set: (AUG-CC-PVTZ AUX)
    Blend: AUG-CC-PVTZ-JKFIT
	 Reference Energy          =    -554.4901753772338679 [Eh]
	 Singles Energy            =      -0.0000000000000000 [Eh]
	 Same-Spin Energy          =      -0.6239837846130808 [Eh]
	 Opposite-Spin Energy      =      -1.9528455974947578 [Eh]
	 Correlation Energy        =      -2.5768293821078387 [Eh]
	 Total Energy              =    -557.0670047593416712 [Eh]

	 ================> DF-SCS-MP2 Energies <==================
	-----------------------------------------------------------
	 SCS Same-Spin Scale       =       0.3333333333333333 [-]
	 SCS Opposite-Spin Scale   =       1.2000000000000000 [-]
	 SCS Same-Spin Energy      =      -0.2079945948710269 [Eh]
	 SCS Opposite-Spin Energy  =      -2.3434147169937094 [Eh]
	 SCS Correlation Energy    =      -2.5514093118647363 [Eh]
	 SCS Total Energy          =    -557.0415846890986131 [Eh]
	-----------------------------------------------------------

  Dipole Moment: [D]
     X:    -0.6395      Y:     0.5791      Z:    -0.3430     Total:     0.9284

*** Psi4 exiting successfully. Buy a developer a beer!
