                               Psi4 1.4a3.dev225

  ==> Input File <==

--------------------------------------------------------------------------
#psi4
#
memory 32 gb

molecule  {
0 1
  N        0.5479400     1.1907050     0.2959170
  C       -0.7486070     0.6692540     0.1554050
  C        1.7310100     0.4560470     0.0875670
  C       -3.3979777    -0.3248798     0.0247933
  C       -1.1184250    -0.5206800     0.8026630
  C       -1.7211190     1.3742660    -0.5666580
  C       -2.4232850    -0.9959770     0.6985600
  C       -3.0306900     0.9005340    -0.6374610
  C        2.9509580     1.0658110     0.4223950
  C        1.7399610    -0.8480750    -0.4298540
  C       -4.8245050    -0.7978720    -0.0796260
  C        4.1550680     0.3942430     0.2262330
  C        2.9515180    -1.5184900    -0.6042170
  C        4.1638000    -0.9089480    -0.2775300
  H        0.6281830     2.1736720     0.0568290
  H       -0.3846330    -1.0553430     1.4003190
  H       -1.4458780     2.2938080    -1.0816330
  H       -2.6884880    -1.9242290     1.2030750
  H       -3.7690390     1.4656370    -1.2045950
  H        2.9440570     2.0709610     0.8408760
  H        0.8089320    -1.3225020    -0.7243660
  H       -5.3342430    -0.4266360    -0.9733710
  H       -4.8571770    -1.8911150    -0.1016080
  H       -5.3999470    -0.4674270     0.7922980
  H        5.0892700     0.8861500     0.4875790
  H        2.9428240    -2.5277610    -1.0100830
  H        5.1022700    -1.4382830    -0.4191710
units angstrom
no_reorient  #important for SAPT in psi4, default
symmetry c1  #important for SAPT in psi4, default
}

set PROPERTIES_ORIGIN ["COM"]
properties('MP2/aug-cc-pvtz', properties = ['dipole'])
--------------------------------------------------------------------------

    Molecular point group: c1
  Charge       = 0
  Multiplicity = 1
  Basis Set: AUG-CC-PVTZ
    Blend: AUG-CC-PVTZ
  Basis Set: (AUG-CC-PVTZ AUX)
    Blend: AUG-CC-PVTZ-JKFIT

    Orbital Energies [Eh]
    ---------------------

    Doubly Occupied:

       1A    -15.577201     2A    -11.282495     3A    -11.277145
       4A    -11.239644     5A    -11.237702     6A    -11.236960
       7A    -11.235763     8A    -11.233780     9A    -11.229793
      10A    -11.228551    11A    -11.228423    12A    -11.225742
      13A    -11.224249    14A    -11.223367    15A     -1.258096
      16A     -1.151956    17A     -1.128354    18A     -1.041486
      19A     -1.015491    20A     -1.010059    21A     -0.989601
      22A     -0.922049    23A     -0.842450    24A     -0.831289
      25A     -0.814093    26A     -0.785897    27A     -0.712928
      28A     -0.704498    29A     -0.667850    30A     -0.640854
      31A     -0.634562    32A     -0.618763    33A     -0.597373
      34A     -0.588551    35A     -0.584197    36A     -0.583029
      37A     -0.573761    38A     -0.544778    39A     -0.531499
      40A     -0.515445    41A     -0.501958    42A     -0.493829
      43A     -0.491071    44A     -0.481134    45A     -0.441889
      46A     -0.341123    47A     -0.336093    48A     -0.330161
      49A     -0.275211

  @DF-RHF Final Energy:  -554.48795099242852

   => Energetics <=

    Nuclear Repulsion Energy =            787.3653335842436718
    One-Electron Energy =               -2312.3821795458711676
    Two-Electron Energy =                 970.5288949691989728
    Total Energy =                       -554.4879509924285230
  Basis Set: (AUG-CC-PVTZ AUX)
    Blend: AUG-CC-PVTZ-RI
    Molecular point group: c1

    Geometry (in Angstrom), charge = 0, multiplicity = 1:

       Center              X                  Y                   Z               Mass
    ------------   -----------------  -----------------  -----------------  -----------------
         N            0.513032922140     1.180676128220     0.288973447202    14.003074004430
         C           -0.783514077860     0.659225128220     0.148461447202    12.000000000000
         C            1.696102922140     0.446018128220     0.080623447202    12.000000000000
         C           -3.432884777860    -0.334908671780     0.017849747202    12.000000000000
         C           -1.153332077860    -0.530708871780     0.795719447202    12.000000000000
         C           -1.756026077860     1.364237128220    -0.573601552798    12.000000000000
         C           -2.458192077860    -1.006005871780     0.691616447202    12.000000000000
         C           -3.065597077860     0.890505128220    -0.644404552798    12.000000000000
         C            2.916050922140     1.055782128220     0.415451447202    12.000000000000
         C            1.705053922140    -0.858103871780    -0.436797552798    12.000000000000
         C           -4.859412077860    -0.807900871780    -0.086569552798    12.000000000000
         C            4.120160922140     0.384214128220     0.219289447202    12.000000000000
         C            2.916610922140    -1.528518871780    -0.611160552798    12.000000000000
         C            4.128892922140    -0.918976871780    -0.284473552798    12.000000000000
         H            0.593275922140     2.163643128220     0.049885447202     1.007825032230
         H           -0.419540077860    -1.065371871780     1.393375447202     1.007825032230
         H           -1.480785077860     2.283779128220    -1.088576552798     1.007825032230
         H           -2.723395077860    -1.934257871780     1.196131447202     1.007825032230
         H           -3.803946077860     1.455608128220    -1.211538552798     1.007825032230
         H            2.909149922140     2.060932128220     0.833932447202     1.007825032230
         H            0.774024922140    -1.332530871780    -0.731309552798     1.007825032230
         H           -5.369150077860    -0.436664871780    -0.980314552798     1.007825032230
         H           -4.892084077860    -1.901143871780    -0.108551552798     1.007825032230
         H           -5.434854077860    -0.477455871780     0.785354447202     1.007825032230
         H            5.054362922140     0.876121128220     0.480635447202     1.007825032230
         H            2.907916922140    -2.537789871780    -1.017026552798     1.007825032230
         H            5.067362922140    -1.448311871780    -0.426114552798     1.007825032230

  Basis Set: AUG-CC-PVTZ
    Blend: AUG-CC-PVTZ
  Basis Set: (AUG-CC-PVTZ AUX)
    Blend: AUG-CC-PVTZ-JKFIT
	 Reference Energy          =    -554.4879509924285230 [Eh]
	 Singles Energy            =      -0.0000000000000000 [Eh]
	 Same-Spin Energy          =      -0.6239362369869830 [Eh]
	 Opposite-Spin Energy      =      -1.9528460283183513 [Eh]
	 Correlation Energy        =      -2.5767822653053343 [Eh]
	 Total Energy              =    -557.0647332577339057 [Eh]

	 ================> DF-SCS-MP2 Energies <==================
	-----------------------------------------------------------
	 SCS Same-Spin Scale       =       0.3333333333333333 [-]
	 SCS Opposite-Spin Scale   =       1.2000000000000000 [-]
	 SCS Same-Spin Energy      =      -0.2079787456623277 [Eh]
	 SCS Opposite-Spin Energy  =      -2.3434152339820216 [Eh]
	 SCS Correlation Energy    =      -2.5513939796443492 [Eh]
	 SCS Total Energy          =    -557.0393449720728540 [Eh]
	-----------------------------------------------------------

  Dipole Moment: [D]
     X:    -0.6605      Y:     0.5968      Z:    -0.3698     Total:     0.9640

*** Psi4 exiting successfully. Buy a developer a beer!
