                               Psi4 1.4a3.dev225

  ==> Input File <==

--------------------------------------------------------------------------
#psi4
#
memory 32 gb

molecule  {
0 1
  N        0.5479400     1.1907050     0.2959170
  C       -0.7486070     0.6692540     0.1554050
  C        1.7310100     0.4560470     0.0875670
  C       -3.4043000    -0.2987570    -0.0204040
  C       -1.1184250    -0.5206800     0.8026630
  C       -1.7211190     1.3742660    -0.5666580
  C       -2.4232850    -0.9959770     0.6985600
  C       -3.0306900     0.9005340    -0.6374610
  C        2.9509580     1.0658110     0.4223950
  C        1.7399610    -0.8480750    -0.4298540
  C       -4.8245050    -0.7978720    -0.0796260
  C        4.1550680     0.3942430     0.2262330
  C        2.9515180    -1.5184900    -0.6042170
  C        4.1638000    -0.9089480    -0.2775300
  H        0.6281830     2.1736720     0.0568290
  H       -0.3508790    -1.0799371     1.4278108
  H       -1.4458780     2.2938080    -1.0816330
  H       -2.6884880    -1.9242290     1.2030750
  H       -3.7690390     1.4656370    -1.2045950
  H        2.9440570     2.0709610     0.8408760
  H        0.8089320    -1.3225020    -0.7243660
  H       -5.3342430    -0.4266360    -0.9733710
  H       -4.8571770    -1.8911150    -0.1016080
  H       -5.3999470    -0.4674270     0.7922980
  H        5.0892700     0.8861500     0.4875790
  H        2.9428240    -2.5277610    -1.0100830
  H        5.1022700    -1.4382830    -0.4191710
units angstrom
no_reorient  #important for SAPT in psi4, default
symmetry c1  #important for SAPT in psi4, default
}

set PROPERTIES_ORIGIN ["COM"]
properties('MP2/aug-cc-pvtz', properties = ['dipole'])
--------------------------------------------------------------------------

    Molecular point group: c1
  Charge       = 0
  Multiplicity = 1
  Basis Set: AUG-CC-PVTZ
    Blend: AUG-CC-PVTZ
  Basis Set: (AUG-CC-PVTZ AUX)
    Blend: AUG-CC-PVTZ-JKFIT

    Orbital Energies [Eh]
    ---------------------

    Doubly Occupied:

       1A    -15.577301     2A    -11.282505     3A    -11.277894
       4A    -11.237755     5A    -11.237028     6A    -11.236593
       7A    -11.235961     8A    -11.235002     9A    -11.234367
      10A    -11.232954    11A    -11.228507    12A    -11.225895
      13A    -11.224348    14A    -11.223371    15A     -1.258158
      16A     -1.151903    17A     -1.128271    18A     -1.040697
      19A     -1.015098    20A     -1.010186    21A     -0.989476
      22A     -0.921518    23A     -0.841936    24A     -0.828754
      25A     -0.816712    26A     -0.783810    27A     -0.712797
      28A     -0.704061    29A     -0.667936    30A     -0.636860
      31A     -0.634947    32A     -0.618479    33A     -0.597403
      34A     -0.587912    35A     -0.584089    36A     -0.580301
      37A     -0.573361    38A     -0.545046    39A     -0.530667
      40A     -0.513184    41A     -0.501221    42A     -0.494954
      43A     -0.489347    44A     -0.484317    45A     -0.441914
      46A     -0.340409    47A     -0.335695    48A     -0.331028
      49A     -0.275829

  @DF-RHF Final Energy:  -554.48829095212000

   => Energetics <=

    Nuclear Repulsion Energy =            787.1073475766113461
    One-Electron Energy =               -2311.8757645775631318
    Two-Electron Energy =                 970.2801260488317894
    Total Energy =                       -554.4882909521199963
  Basis Set: (AUG-CC-PVTZ AUX)
    Blend: AUG-CC-PVTZ-RI
    Molecular point group: c1

    Geometry (in Angstrom), charge = 0, multiplicity = 1:

       Center              X                  Y                   Z               Mass
    ------------   -----------------  -----------------  -----------------  -----------------
         N            0.513261476902     1.179099506246     0.291784190980    14.003074004430
         C           -0.783285523098     0.657648506246     0.151272190980    12.000000000000
         C            1.696331476902     0.444441506246     0.083434190980    12.000000000000
         C           -3.438978523098    -0.310362493754    -0.024536809020    12.000000000000
         C           -1.153103523098    -0.532285493754     0.798530190980    12.000000000000
         C           -1.755797523098     1.362660506246    -0.570790809020    12.000000000000
         C           -2.457963523098    -1.007582493754     0.694427190980    12.000000000000
         C           -3.065368523098     0.888928506246    -0.641593809020    12.000000000000
         C            2.916279476902     1.054205506246     0.418262190980    12.000000000000
         C            1.705282476902    -0.859680493754    -0.433986809020    12.000000000000
         C           -4.859183523098    -0.809477493754    -0.083758809020    12.000000000000
         C            4.120389476902     0.382637506246     0.222100190980    12.000000000000
         C            2.916839476902    -1.530095493754    -0.608349809020    12.000000000000
         C            4.129121476902    -0.920553493754    -0.281662809020    12.000000000000
         H            0.593504476902     2.162066506246     0.052696190980     1.007825032230
         H           -0.385557523098    -1.091542593754     1.423677990980     1.007825032230
         H           -1.480556523098     2.282202506246    -1.085765809020     1.007825032230
         H           -2.723166523098    -1.935834493754     1.198942190980     1.007825032230
         H           -3.803717523098     1.454031506246    -1.208727809020     1.007825032230
         H            2.909378476902     2.059355506246     0.836743190980     1.007825032230
         H            0.774253476902    -1.334107493754    -0.728498809020     1.007825032230
         H           -5.368921523098    -0.438241493754    -0.977503809020     1.007825032230
         H           -4.891855523098    -1.902720493754    -0.105740809020     1.007825032230
         H           -5.434625523098    -0.479032493754     0.788165190980     1.007825032230
         H            5.054591476902     0.874544506246     0.483446190980     1.007825032230
         H            2.908145476902    -2.539366493754    -1.014215809020     1.007825032230
         H            5.067591476902    -1.449888493754    -0.423303809020     1.007825032230

  Basis Set: AUG-CC-PVTZ
    Blend: AUG-CC-PVTZ
  Basis Set: (AUG-CC-PVTZ AUX)
    Blend: AUG-CC-PVTZ-JKFIT
	 Reference Energy          =    -554.4882909521199963 [Eh]
	 Singles Energy            =      -0.0000000000000000 [Eh]
	 Same-Spin Energy          =      -0.6240863218257369 [Eh]
	 Opposite-Spin Energy      =      -1.9531530500592185 [Eh]
	 Correlation Energy        =      -2.5772393718849553 [Eh]
	 Total Energy              =    -557.0655303240049534 [Eh]

	 ================> DF-SCS-MP2 Energies <==================
	-----------------------------------------------------------
	 SCS Same-Spin Scale       =       0.3333333333333333 [-]
	 SCS Opposite-Spin Scale   =       1.2000000000000000 [-]
	 SCS Same-Spin Energy      =      -0.2080287739419123 [Eh]
	 SCS Opposite-Spin Energy  =      -2.3437836600710620 [Eh]
	 SCS Correlation Energy    =      -2.5518124340129744 [Eh]
	 SCS Total Energy          =    -557.0401033861329552 [Eh]
	-----------------------------------------------------------

  Dipole Moment: [D]
     X:    -0.6484      Y:     0.5814      Z:    -0.3467     Total:     0.9373

*** Psi4 exiting successfully. Buy a developer a beer!
