                               Psi4 1.4a3.dev225

  ==> Input File <==

--------------------------------------------------------------------------
#psi4
#
memory 32 gb

molecule  {
0 1
  N        0.5479400     1.1907050     0.2959170
  C       -0.7486070     0.6692540     0.1554050
  C        1.7310100     0.4560470     0.0875670
  C       -3.4043000    -0.2987570    -0.0204040
  C       -1.1184250    -0.5206800     0.8026630
  C       -1.7211190     1.3742660    -0.5666580
  C       -2.4232850    -0.9959770     0.6985600
  C       -3.0306900     0.9005340    -0.6374610
  C        2.9509580     1.0658110     0.4223950
  C        1.8182322    -0.7358510    -0.3786767
  C       -4.8245050    -0.7978720    -0.0796260
  C        4.1550680     0.3942430     0.2262330
  C        2.9515180    -1.5184900    -0.6042170
  C        4.1638000    -0.9089480    -0.2775300
  H        0.6281830     2.1736720     0.0568290
  H       -0.3846330    -1.0553430     1.4003190
  H       -1.4458780     2.2938080    -1.0816330
  H       -2.6884880    -1.9242290     1.2030750
  H       -3.7690390     1.4656370    -1.2045950
  H        2.9440570     2.0709610     0.8408760
  H        0.8089320    -1.3225020    -0.7243660
  H       -5.3342430    -0.4266360    -0.9733710
  H       -4.8571770    -1.8911150    -0.1016080
  H       -5.3999470    -0.4674270     0.7922980
  H        5.0892700     0.8861500     0.4875790
  H        2.9428240    -2.5277610    -1.0100830
  H        5.1022700    -1.4382830    -0.4191710
units angstrom
no_reorient  #important for SAPT in psi4, default
symmetry c1  #important for SAPT in psi4, default
}

set PROPERTIES_ORIGIN ["COM"]
properties('MP2/aug-cc-pvtz', properties = ['dipole'])
--------------------------------------------------------------------------

    Molecular point group: c1
  Charge       = 0
  Multiplicity = 1
  Basis Set: AUG-CC-PVTZ
    Blend: AUG-CC-PVTZ
  Basis Set: (AUG-CC-PVTZ AUX)
    Blend: AUG-CC-PVTZ-JKFIT

    Orbital Energies [Eh]
    ---------------------

    Doubly Occupied:

       1A    -15.575822     2A    -11.275807     3A    -11.266381
       4A    -11.238198     5A    -11.236037     6A    -11.234724
       7A    -11.233307     8A    -11.232653     9A    -11.231862
      10A    -11.231050    11A    -11.228587    12A    -11.227265
      13A    -11.223072    14A    -11.222113    15A     -1.260067
      16A     -1.159289    17A     -1.132207    18A     -1.042391
      19A     -1.015321    20A     -1.009442    21A     -0.999041
      22A     -0.921212    23A     -0.846035    24A     -0.829269
      25A     -0.818813    26A     -0.782075    27A     -0.716505
      28A     -0.703722    29A     -0.662854    30A     -0.642898
      31A     -0.633314    32A     -0.619050    33A     -0.607018
      34A     -0.586796    35A     -0.582485    36A     -0.574694
      37A     -0.569983    38A     -0.546524    39A     -0.532949
      40A     -0.516104    41A     -0.503770    42A     -0.496600
      43A     -0.485306    44A     -0.464393    45A     -0.441762
      46A     -0.343028    47A     -0.336293    48A     -0.331591
      49A     -0.280046

  @DF-RHF Final Energy:  -554.46378823207692

   => Energetics <=

    Nuclear Repulsion Energy =            789.3842836162230014
    One-Electron Energy =               -2316.3966906796663352
    Two-Electron Energy =                 972.5486188313664115
    Total Energy =                       -554.4637882320769222
  Basis Set: (AUG-CC-PVTZ AUX)
    Blend: AUG-CC-PVTZ-RI
    Molecular point group: c1

    Geometry (in Angstrom), charge = 0, multiplicity = 1:

       Center              X                  Y                   Z               Mass
    ------------   -----------------  -----------------  -----------------  -----------------
         N            0.508317661794     1.171609399193     0.288581540489    14.003074004430
         C           -0.788229338206     0.650158399193     0.148069540489    12.000000000000
         C            1.691387661794     0.436951399193     0.080231540489    12.000000000000
         C           -3.443922338206    -0.317852600807    -0.027739459511    12.000000000000
         C           -1.158047338206    -0.539775600807     0.795327540489    12.000000000000
         C           -1.760741338206     1.355170399193    -0.573993459511    12.000000000000
         C           -2.462907338206    -1.015072600807     0.691224540489    12.000000000000
         C           -3.070312338206     0.881438399193    -0.644796459511    12.000000000000
         C            2.911335661794     1.046715399193     0.415059540489    12.000000000000
         C            1.778609861794    -0.754946600807    -0.386012159511    12.000000000000
         C           -4.864127338206    -0.816967600807    -0.086961459511    12.000000000000
         C            4.115445661794     0.375147399193     0.218897540489    12.000000000000
         C            2.911895661794    -1.537585600807    -0.611552459511    12.000000000000
         C            4.124177661794    -0.928043600807    -0.284865459511    12.000000000000
         H            0.588560661794     2.154576399193     0.049493540489     1.007825032230
         H           -0.424255338206    -1.074438600807     1.392983540489     1.007825032230
         H           -1.485500338206     2.274712399193    -1.088968459511     1.007825032230
         H           -2.728110338206    -1.943324600807     1.195739540489     1.007825032230
         H           -3.808661338206     1.446541399193    -1.211930459511     1.007825032230
         H            2.904434661794     2.051865399193     0.833540540489     1.007825032230
         H            0.769309661794    -1.341597600807    -0.731701459511     1.007825032230
         H           -5.373865338206    -0.445731600807    -0.980706459511     1.007825032230
         H           -4.896799338206    -1.910210600807    -0.108943459511     1.007825032230
         H           -5.439569338206    -0.486522600807     0.784962540489     1.007825032230
         H            5.049647661794     0.867054399193     0.480243540489     1.007825032230
         H            2.903201661794    -2.546856600807    -1.017418459511     1.007825032230
         H            5.062647661794    -1.457378600807    -0.426506459511     1.007825032230

  Basis Set: AUG-CC-PVTZ
    Blend: AUG-CC-PVTZ
  Basis Set: (AUG-CC-PVTZ AUX)
    Blend: AUG-CC-PVTZ-JKFIT
	 Reference Energy          =    -554.4637882320769222 [Eh]
	 Singles Energy            =      -0.0000000000000000 [Eh]
	 Same-Spin Energy          =      -0.6244009488871826 [Eh]
	 Opposite-Spin Energy      =      -1.9536821250023546 [Eh]
	 Correlation Energy        =      -2.5780830738895371 [Eh]
	 Total Energy              =    -557.0418713059664242 [Eh]

	 ================> DF-SCS-MP2 Energies <==================
	-----------------------------------------------------------
	 SCS Same-Spin Scale       =       0.3333333333333333 [-]
	 SCS Opposite-Spin Scale   =       1.2000000000000000 [-]
	 SCS Same-Spin Energy      =      -0.2081336496290608 [Eh]
	 SCS Opposite-Spin Energy  =      -2.3444185500028256 [Eh]
	 SCS Correlation Energy    =      -2.5525521996318865 [Eh]
	 SCS Total Energy          =    -557.0163404317088407 [Eh]
	-----------------------------------------------------------

  Dipole Moment: [D]
     X:    -0.4018      Y:     0.4954      Z:    -0.3609     Total:     0.7329

*** Psi4 exiting successfully. Buy a developer a beer!
