                               Psi4 1.4a3.dev225

  ==> Input File <==

--------------------------------------------------------------------------
#psi4
#
memory 32 gb

molecule  {
0 1
  N        0.5479400     1.1907050     0.2959170
  C       -0.7486070     0.6692540     0.1554050
  C        1.7310100     0.4560470     0.0875670
  C       -3.3877697    -0.2815657    -0.0258716
  C       -1.1184250    -0.5206800     0.8026630
  C       -1.7211190     1.3742660    -0.5666580
  C       -2.4232850    -0.9959770     0.6985600
  C       -3.0306900     0.9005340    -0.6374610
  C        2.9509580     1.0658110     0.4223950
  C        1.7399610    -0.8480750    -0.4298540
  C       -4.8245050    -0.7978720    -0.0796260
  C        4.1550680     0.3942430     0.2262330
  C        2.9515180    -1.5184900    -0.6042170
  C        4.1638000    -0.9089480    -0.2775300
  H        0.6281830     2.1736720     0.0568290
  H       -0.3846330    -1.0553430     1.4003190
  H       -1.4458780     2.2938080    -1.0816330
  H       -2.6884880    -1.9242290     1.2030750
  H       -3.7690390     1.4656370    -1.2045950
  H        2.9440570     2.0709610     0.8408760
  H        0.8089320    -1.3225020    -0.7243660
  H       -5.3342430    -0.4266360    -0.9733710
  H       -4.8571770    -1.8911150    -0.1016080
  H       -5.3999470    -0.4674270     0.7922980
  H        5.0892700     0.8861500     0.4875790
  H        2.9428240    -2.5277610    -1.0100830
  H        5.1022700    -1.4382830    -0.4191710
units angstrom
no_reorient  #important for SAPT in psi4, default
symmetry c1  #important for SAPT in psi4, default
}

set PROPERTIES_ORIGIN ["COM"]
properties('MP2/aug-cc-pvtz', properties = ['dipole'])
--------------------------------------------------------------------------

    Molecular point group: c1
  Charge       = 0
  Multiplicity = 1
  Basis Set: AUG-CC-PVTZ
    Blend: AUG-CC-PVTZ
  Basis Set: (AUG-CC-PVTZ AUX)
    Blend: AUG-CC-PVTZ-JKFIT

    Orbital Energies [Eh]
    ---------------------

    Doubly Occupied:

       1A    -15.577207     2A    -11.282626     3A    -11.277231
       4A    -11.237904     5A    -11.237215     6A    -11.235275
       7A    -11.234161     8A    -11.232955     9A    -11.231755
      10A    -11.230386    11A    -11.228600    12A    -11.226106
      13A    -11.224460    14A    -11.223541    15A     -1.258201
      16A     -1.153100    17A     -1.128934    18A     -1.039000
      19A     -1.016712    20A     -1.011079    21A     -0.988423
      22A     -0.920757    23A     -0.843878    24A     -0.829443
      25A     -0.817801    26A     -0.785393    27A     -0.713544
      28A     -0.704217    29A     -0.668695    30A     -0.638909
      31A     -0.635227    32A     -0.619600    33A     -0.597626
      34A     -0.588277    35A     -0.585986    36A     -0.582665
      37A     -0.571669    38A     -0.545172    39A     -0.530389
      40A     -0.511714    41A     -0.499064    42A     -0.496160
      43A     -0.488783    44A     -0.487282    45A     -0.442871
      46A     -0.340806    47A     -0.336047    48A     -0.331548
      49A     -0.276446

  @DF-RHF Final Energy:  -554.49069874308213

   => Energetics <=

    Nuclear Repulsion Energy =            787.6029061784299756
    One-Electron Energy =               -2312.8575301425844373
    Two-Electron Energy =                 970.7639252210723271
    Total Energy =                       -554.4906987430821346
  Basis Set: (AUG-CC-PVTZ AUX)
    Blend: AUG-CC-PVTZ-RI
    Molecular point group: c1

    Geometry (in Angstrom), charge = 0, multiplicity = 1:

       Center              X                  Y                   Z               Mass
    ------------   -----------------  -----------------  -----------------  -----------------
         N            0.512363928207     1.177837484986     0.292293834225    14.003074004430
         C           -0.784183071793     0.656386484986     0.151781834225    12.000000000000
         C            1.695433928207     0.443179484986     0.083943834225    12.000000000000
         C           -3.423345771793    -0.294433215014    -0.029494765775    12.000000000000
         C           -1.154001071793    -0.533547515014     0.799039834225    12.000000000000
         C           -1.756695071793     1.361398484986    -0.570281165775    12.000000000000
         C           -2.458861071793    -1.008844515014     0.694936834225    12.000000000000
         C           -3.066266071793     0.887666484986    -0.641084165775    12.000000000000
         C            2.915381928207     1.052943484986     0.418771834225    12.000000000000
         C            1.704384928207    -0.860942515014    -0.433477165775    12.000000000000
         C           -4.860081071793    -0.810739515014    -0.083249165775    12.000000000000
         C            4.119491928207     0.381375484986     0.222609834225    12.000000000000
         C            2.915941928207    -1.531357515014    -0.607840165775    12.000000000000
         C            4.128223928207    -0.921815515014    -0.281153165775    12.000000000000
         H            0.592606928207     2.160804484986     0.053205834225     1.007825032230
         H           -0.420209071793    -1.068210515014     1.396695834225     1.007825032230
         H           -1.481454071793     2.280940484986    -1.085256165775     1.007825032230
         H           -2.724064071793    -1.937096515014     1.199451834225     1.007825032230
         H           -3.804615071793     1.452769484986    -1.208218165775     1.007825032230
         H            2.908480928207     2.058093484986     0.837252834225     1.007825032230
         H            0.773355928207    -1.335369515014    -0.727989165775     1.007825032230
         H           -5.369819071793    -0.439503515014    -0.976994165775     1.007825032230
         H           -4.892753071793    -1.903982515014    -0.105231165775     1.007825032230
         H           -5.435523071793    -0.480294515014     0.788674834225     1.007825032230
         H            5.053693928207     0.873282484986     0.483955834225     1.007825032230
         H            2.907247928207    -2.540628515014    -1.013706165775     1.007825032230
         H            5.066693928207    -1.451150515014    -0.422794165775     1.007825032230

  Basis Set: AUG-CC-PVTZ
    Blend: AUG-CC-PVTZ
  Basis Set: (AUG-CC-PVTZ AUX)
    Blend: AUG-CC-PVTZ-JKFIT
	 Reference Energy          =    -554.4906987430821346 [Eh]
	 Singles Energy            =      -0.0000000000000000 [Eh]
	 Same-Spin Energy          =      -0.6237250801730280 [Eh]
	 Opposite-Spin Energy      =      -1.9524036543470944 [Eh]
	 Correlation Energy        =      -2.5761287345201223 [Eh]
	 Total Energy              =    -557.0668274776022599 [Eh]

	 ================> DF-SCS-MP2 Energies <==================
	-----------------------------------------------------------
	 SCS Same-Spin Scale       =       0.3333333333333333 [-]
	 SCS Opposite-Spin Scale   =       1.2000000000000000 [-]
	 SCS Same-Spin Energy      =      -0.2079083600576760 [Eh]
	 SCS Opposite-Spin Energy  =      -2.3428843852165131 [Eh]
	 SCS Correlation Energy    =      -2.5507927452741890 [Eh]
	 SCS Total Energy          =    -557.0414914883563142 [Eh]
	-----------------------------------------------------------

  Dipole Moment: [D]
     X:    -0.6076      Y:     0.5793      Z:    -0.3356     Total:     0.9041

*** Psi4 exiting successfully. Buy a developer a beer!
