                               Psi4 1.4a3.dev225

  ==> Input File <==

--------------------------------------------------------------------------
#psi4
#
memory 32 gb

molecule  {
0 1
  N        0.5479400     1.1907050     0.2959170
  C       -0.7486070     0.6692540     0.1554050
  C        1.7310100     0.4560470     0.0875670
  C       -3.4221258    -0.2483668    -0.1109598
  C       -1.1184250    -0.5206800     0.8026630
  C       -1.7211190     1.3742660    -0.5666580
  C       -2.4232850    -0.9959770     0.6985600
  C       -3.0306900     0.9005340    -0.6374610
  C        2.9509580     1.0658110     0.4223950
  C        1.7399610    -0.8480750    -0.4298540
  C       -4.8245050    -0.7978720    -0.0796260
  C        4.1550680     0.3942430     0.2262330
  C        2.9515180    -1.5184900    -0.6042170
  C        4.1638000    -0.9089480    -0.2775300
  H        0.6281830     2.1736720     0.0568290
  H       -0.3846330    -1.0553430     1.4003190
  H       -1.4458780     2.2938080    -1.0816330
  H       -2.6884880    -1.9242290     1.2030750
  H       -3.7690390     1.4656370    -1.2045950
  H        2.9440570     2.0709610     0.8408760
  H        0.8089320    -1.3225020    -0.7243660
  H       -5.3342430    -0.4266360    -0.9733710
  H       -4.8571770    -1.8911150    -0.1016080
  H       -5.3999470    -0.4674270     0.7922980
  H        5.0892700     0.8861500     0.4875790
  H        2.9428240    -2.5277610    -1.0100830
  H        5.1022700    -1.4382830    -0.4191710
units angstrom
no_reorient  #important for SAPT in psi4, default
symmetry c1  #important for SAPT in psi4, default
}

set PROPERTIES_ORIGIN ["COM"]
properties('MP2/aug-cc-pvtz', properties = ['dipole'])
--------------------------------------------------------------------------

    Molecular point group: c1
  Charge       = 0
  Multiplicity = 1
  Basis Set: AUG-CC-PVTZ
    Blend: AUG-CC-PVTZ
  Basis Set: (AUG-CC-PVTZ AUX)
    Blend: AUG-CC-PVTZ-JKFIT

    Orbital Energies [Eh]
    ---------------------

    Doubly Occupied:

       1A    -15.577873     2A    -11.283000     3A    -11.278410
       4A    -11.243220     5A    -11.238286     6A    -11.237640
       7A    -11.234843     8A    -11.231695     9A    -11.230379
      10A    -11.229046    11A    -11.226749    12A    -11.224922
      13A    -11.224624    14A    -11.223523    15A     -1.258643
      16A     -1.152402    17A     -1.128941    18A     -1.042571
      19A     -1.015116    20A     -1.011385    21A     -0.989340
      22A     -0.921897    23A     -0.846100    24A     -0.825194
      25A     -0.820972    26A     -0.781890    27A     -0.713837
      28A     -0.702983    29A     -0.670071    30A     -0.639621
      31A     -0.635234    32A     -0.619662    33A     -0.598005
      34A     -0.590483    35A     -0.585233    36A     -0.579981
      37A     -0.572878    38A     -0.547905    39A     -0.530991
      40A     -0.513208    41A     -0.508550    42A     -0.496216
      43A     -0.490549    44A     -0.470204    45A     -0.442320
      46A     -0.345664    47A     -0.337367    48A     -0.326304
      49A     -0.276713

  @DF-RHF Final Energy:  -554.47959522270821

   => Energetics <=

    Nuclear Repulsion Energy =            787.2378411961334450
    One-Electron Energy =               -2312.0895986999348679
    Two-Electron Energy =                 970.3721622810930967
    Total Energy =                       -554.4795952227082125
  Basis Set: (AUG-CC-PVTZ AUX)
    Blend: AUG-CC-PVTZ-RI
    Molecular point group: c1

    Geometry (in Angstrom), charge = 0, multiplicity = 1:

       Center              X                  Y                   Z               Mass
    ------------   -----------------  -----------------  -----------------  -----------------
         N            0.514615497807     1.175661753923     0.297870194884    14.003074004430
         C           -0.781931502193     0.654210753923     0.157358194884    12.000000000000
         C            1.697685497807     0.441003753923     0.089520194884    12.000000000000
         C           -3.455450302193    -0.263410046077    -0.109006605116    12.000000000000
         C           -1.151749502193    -0.535723246077     0.804616194884    12.000000000000
         C           -1.754443502193     1.359222753923    -0.564704805116    12.000000000000
         C           -2.456609502193    -1.011020246077     0.700513194884    12.000000000000
         C           -3.064014502193     0.885490753923    -0.635507805116    12.000000000000
         C            2.917633497807     1.050767753923     0.424348194884    12.000000000000
         C            1.706636497807    -0.863118246077    -0.427900805116    12.000000000000
         C           -4.857829502193    -0.812915246077    -0.077672805116    12.000000000000
         C            4.121743497807     0.379199753923     0.228186194884    12.000000000000
         C            2.918193497807    -1.533533246077    -0.602263805116    12.000000000000
         C            4.130475497807    -0.923991246077    -0.275576805116    12.000000000000
         H            0.594858497807     2.158628753923     0.058782194884     1.007825032230
         H           -0.417957502193    -1.070386246077     1.402272194884     1.007825032230
         H           -1.479202502193     2.278764753923    -1.079679805116     1.007825032230
         H           -2.721812502193    -1.939272246077     1.205028194884     1.007825032230
         H           -3.802363502193     1.450593753923    -1.202641805116     1.007825032230
         H            2.910732497807     2.055917753923     0.842829194884     1.007825032230
         H            0.775607497807    -1.337545246077    -0.722412805116     1.007825032230
         H           -5.367567502193    -0.441679246077    -0.971417805116     1.007825032230
         H           -4.890501502193    -1.906158246077    -0.099654805116     1.007825032230
         H           -5.433271502193    -0.482470246077     0.794251194884     1.007825032230
         H            5.055945497807     0.871106753923     0.489532194884     1.007825032230
         H            2.909499497807    -2.542804246077    -1.008129805116     1.007825032230
         H            5.068945497807    -1.453326246077    -0.417217805116     1.007825032230

  Basis Set: AUG-CC-PVTZ
    Blend: AUG-CC-PVTZ
  Basis Set: (AUG-CC-PVTZ AUX)
    Blend: AUG-CC-PVTZ-JKFIT
	 Reference Energy          =    -554.4795952227082125 [Eh]
	 Singles Energy            =      -0.0000000000000000 [Eh]
	 Same-Spin Energy          =      -0.6234548836370213 [Eh]
	 Opposite-Spin Energy      =      -1.9530378034432205 [Eh]
	 Correlation Energy        =      -2.5764926870802416 [Eh]
	 Total Energy              =    -557.0560879097884026 [Eh]

	 ================> DF-SCS-MP2 Energies <==================
	-----------------------------------------------------------
	 SCS Same-Spin Scale       =       0.3333333333333333 [-]
	 SCS Opposite-Spin Scale   =       1.2000000000000000 [-]
	 SCS Same-Spin Energy      =      -0.2078182945456737 [Eh]
	 SCS Opposite-Spin Energy  =      -2.3436453641318646 [Eh]
	 SCS Correlation Energy    =      -2.5514636586775383 [Eh]
	 SCS Total Energy          =    -557.0310588813857748 [Eh]
	-----------------------------------------------------------

  Dipole Moment: [D]
     X:    -0.5766      Y:     0.5404      Z:    -0.2847     Total:     0.8400

*** Psi4 exiting successfully. Buy a developer a beer!
