                               Psi4 1.4a3.dev225

  ==> Input File <==

--------------------------------------------------------------------------
#psi4
#
memory 32 gb

molecule  {
0 1
  N        0.5479400     1.1907050     0.2959170
  C       -0.7486070     0.6692540     0.1554050
  C        1.7310100     0.4560470     0.0875670
  C       -3.4043000    -0.2987570    -0.0204040
  C       -1.1184250    -0.5206800     0.8026630
  C       -1.7211190     1.3742660    -0.5666580
  C       -2.4232850    -0.9959770     0.6985600
  C       -2.9837325     0.9175207    -0.6349222
  C        2.9509580     1.0658110     0.4223950
  C        1.7399610    -0.8480750    -0.4298540
  C       -4.8245050    -0.7978720    -0.0796260
  C        4.1550680     0.3942430     0.2262330
  C        2.9515180    -1.5184900    -0.6042170
  C        4.1638000    -0.9089480    -0.2775300
  H        0.6281830     2.1736720     0.0568290
  H       -0.3846330    -1.0553430     1.4003190
  H       -1.4458780     2.2938080    -1.0816330
  H       -2.6884880    -1.9242290     1.2030750
  H       -3.7690390     1.4656370    -1.2045950
  H        2.9440570     2.0709610     0.8408760
  H        0.8089320    -1.3225020    -0.7243660
  H       -5.3342430    -0.4266360    -0.9733710
  H       -4.8571770    -1.8911150    -0.1016080
  H       -5.3999470    -0.4674270     0.7922980
  H        5.0892700     0.8861500     0.4875790
  H        2.9428240    -2.5277610    -1.0100830
  H        5.1022700    -1.4382830    -0.4191710
units angstrom
no_reorient  #important for SAPT in psi4, default
symmetry c1  #important for SAPT in psi4, default
}

set PROPERTIES_ORIGIN ["COM"]
properties('MP2/aug-cc-pvtz', properties = ['dipole'])
--------------------------------------------------------------------------

    Molecular point group: c1
  Charge       = 0
  Multiplicity = 1
  Basis Set: AUG-CC-PVTZ
    Blend: AUG-CC-PVTZ
  Basis Set: (AUG-CC-PVTZ AUX)
    Blend: AUG-CC-PVTZ-JKFIT

    Orbital Energies [Eh]
    ---------------------

    Doubly Occupied:

       1A    -15.577555     2A    -11.282613     3A    -11.277403
       4A    -11.237802     5A    -11.237785     6A    -11.237060
       7A    -11.234641     8A    -11.233324     9A    -11.228556
      10A    -11.228223    11A    -11.228194    12A    -11.225880
      13A    -11.224370    14A    -11.224359    15A     -1.258475
      16A     -1.153258    17A     -1.128255    18A     -1.040279
      19A     -1.019620    20A     -1.011054    21A     -0.990929
      22A     -0.920960    23A     -0.839882    24A     -0.830041
      25A     -0.815485    26A     -0.786256    27A     -0.712771
      28A     -0.704059    29A     -0.669603    30A     -0.639896
      31A     -0.636848    32A     -0.617528    33A     -0.597743
      34A     -0.587021    35A     -0.583097    36A     -0.582367
      37A     -0.572952    38A     -0.546230    39A     -0.531962
      40A     -0.514512    41A     -0.503909    42A     -0.496115
      43A     -0.489944    44A     -0.478526    45A     -0.442057
      46A     -0.345305    47A     -0.336553    48A     -0.329108
      49A     -0.273749

  @DF-RHF Final Energy:  -554.48752264095219

   => Energetics <=

    Nuclear Repulsion Energy =            787.8277618699191862
    One-Electron Energy =               -2313.3023362250200989
    Two-Electron Energy =                 970.9870517141487198
    Total Energy =                       -554.4875226409521929
  Basis Set: (AUG-CC-PVTZ AUX)
    Blend: AUG-CC-PVTZ-RI
    Molecular point group: c1

    Geometry (in Angstrom), charge = 0, multiplicity = 1:

       Center              X                  Y                   Z               Mass
    ------------   -----------------  -----------------  -----------------  -----------------
         N            0.510369843938     1.177850893701     0.291769124877    14.003074004430
         C           -0.786177156062     0.656399893701     0.151257124877    12.000000000000
         C            1.693439843938     0.443192893701     0.083419124877    12.000000000000
         C           -3.441870156062    -0.311611106299    -0.024551875123    12.000000000000
         C           -1.155995156062    -0.533534106299     0.798515124877    12.000000000000
         C           -1.758689156062     1.361411893701    -0.570805875123    12.000000000000
         C           -2.460855156062    -1.008831106299     0.694412124877    12.000000000000
         C           -3.021302656062     0.904666593701    -0.639070075123    12.000000000000
         C            2.913387843938     1.052956893701     0.418247124877    12.000000000000
         C            1.702390843938    -0.860929106299    -0.434001875123    12.000000000000
         C           -4.862075156062    -0.810726106299    -0.083773875123    12.000000000000
         C            4.117497843938     0.381388893701     0.222085124877    12.000000000000
         C            2.913947843938    -1.531344106299    -0.608364875123    12.000000000000
         C            4.126229843938    -0.921802106299    -0.281677875123    12.000000000000
         H            0.590612843938     2.160817893701     0.052681124877     1.007825032230
         H           -0.422203156062    -1.068197106299     1.396171124877     1.007825032230
         H           -1.483448156062     2.280953893701    -1.085780875123     1.007825032230
         H           -2.726058156062    -1.937083106299     1.198927124877     1.007825032230
         H           -3.806609156062     1.452782893701    -1.208742875123     1.007825032230
         H            2.906486843938     2.058106893701     0.836728124877     1.007825032230
         H            0.771361843938    -1.335356106299    -0.728513875123     1.007825032230
         H           -5.371813156062    -0.439490106299    -0.977518875123     1.007825032230
         H           -4.894747156062    -1.903969106299    -0.105755875123     1.007825032230
         H           -5.437517156062    -0.480281106299     0.788150124877     1.007825032230
         H            5.051699843938     0.873295893701     0.483431124877     1.007825032230
         H            2.905253843938    -2.540615106299    -1.014230875123     1.007825032230
         H            5.064699843938    -1.451137106299    -0.423318875123     1.007825032230

  Basis Set: AUG-CC-PVTZ
    Blend: AUG-CC-PVTZ
  Basis Set: (AUG-CC-PVTZ AUX)
    Blend: AUG-CC-PVTZ-JKFIT
	 Reference Energy          =    -554.4875226409521929 [Eh]
	 Singles Energy            =      -0.0000000000000000 [Eh]
	 Same-Spin Energy          =      -0.6240092820015206 [Eh]
	 Opposite-Spin Energy      =      -1.9527126994776047 [Eh]
	 Correlation Energy        =      -2.5767219814791256 [Eh]
	 Total Energy              =    -557.0642446224313744 [Eh]

	 ================> DF-SCS-MP2 Energies <==================
	-----------------------------------------------------------
	 SCS Same-Spin Scale       =       0.3333333333333333 [-]
	 SCS Opposite-Spin Scale   =       1.2000000000000000 [-]
	 SCS Same-Spin Energy      =      -0.2080030940005069 [Eh]
	 SCS Opposite-Spin Energy  =      -2.3432552393731254 [Eh]
	 SCS Correlation Energy    =      -2.5512583333736321 [Eh]
	 SCS Total Energy          =    -557.0387809743258458 [Eh]
	-----------------------------------------------------------

  Dipole Moment: [D]
     X:    -0.6474      Y:     0.5810      Z:    -0.3434     Total:     0.9352

*** Psi4 exiting successfully. Buy a developer a beer!
