                               Psi4 1.4a3.dev225

  ==> Input File <==

--------------------------------------------------------------------------
#psi4
#
memory 32 gb

molecule  {
0 1
  N        0.5479400     1.1907050     0.2959170
  C       -0.7564285     0.6912737     0.1479984
  C        1.7310100     0.4560470     0.0875670
  C       -3.4043000    -0.2987570    -0.0204040
  C       -1.1184250    -0.5206800     0.8026630
  C       -1.7211190     1.3742660    -0.5666580
  C       -2.4232850    -0.9959770     0.6985600
  C       -3.0306900     0.9005340    -0.6374610
  C        2.9509580     1.0658110     0.4223950
  C        1.7399610    -0.8480750    -0.4298540
  C       -4.8245050    -0.7978720    -0.0796260
  C        4.1550680     0.3942430     0.2262330
  C        2.9515180    -1.5184900    -0.6042170
  C        4.1638000    -0.9089480    -0.2775300
  H        0.6281830     2.1736720     0.0568290
  H       -0.3846330    -1.0553430     1.4003190
  H       -1.4458780     2.2938080    -1.0816330
  H       -2.6884880    -1.9242290     1.2030750
  H       -3.7690390     1.4656370    -1.2045950
  H        2.9440570     2.0709610     0.8408760
  H        0.8089320    -1.3225020    -0.7243660
  H       -5.3342430    -0.4266360    -0.9733710
  H       -4.8571770    -1.8911150    -0.1016080
  H       -5.3999470    -0.4674270     0.7922980
  H        5.0892700     0.8861500     0.4875790
  H        2.9428240    -2.5277610    -1.0100830
  H        5.1022700    -1.4382830    -0.4191710
units angstrom
no_reorient  #important for SAPT in psi4, default
symmetry c1  #important for SAPT in psi4, default
}

set PROPERTIES_ORIGIN ["COM"]
properties('MP2/aug-cc-pvtz', properties = ['dipole'])
--------------------------------------------------------------------------

    Molecular point group: c1
  Charge       = 0
  Multiplicity = 1
  Basis Set: AUG-CC-PVTZ
    Blend: AUG-CC-PVTZ
  Basis Set: (AUG-CC-PVTZ AUX)
    Blend: AUG-CC-PVTZ-JKFIT

    Orbital Energies [Eh]
    ---------------------

    Doubly Occupied:

       1A    -15.577279     2A    -11.283157     3A    -11.277296
       4A    -11.238010     5A    -11.237270     6A    -11.236228
       7A    -11.234696     8A    -11.234226     9A    -11.232139
      10A    -11.230385    11A    -11.228824    12A    -11.226211
      13A    -11.224568    14A    -11.223170    15A     -1.258143
      16A     -1.152116    17A     -1.128353    18A     -1.041356
      19A     -1.015740    20A     -1.010378    21A     -0.989887
      22A     -0.921348    23A     -0.842877    24A     -0.829582
      25A     -0.816948    26A     -0.785451    27A     -0.713870
      28A     -0.702949    29A     -0.669116    30A     -0.639870
      31A     -0.635711    32A     -0.619312    33A     -0.598036
      34A     -0.587169    35A     -0.584093    36A     -0.582750
      37A     -0.573307    38A     -0.545448    39A     -0.531025
      40A     -0.513466    41A     -0.501382    42A     -0.494646
      43A     -0.490351    44A     -0.485185    45A     -0.442176
      46A     -0.340480    47A     -0.335840    48A     -0.331051
      49A     -0.275851

  @DF-RHF Final Energy:  -554.49021243138077

   => Energetics <=

    Nuclear Repulsion Energy =            787.2393506133448682
    One-Electron Energy =               -2312.1216798296850357
    Two-Electron Energy =                 970.3921167849593985
    Total Energy =                       -554.4902124313807690
  Basis Set: (AUG-CC-PVTZ AUX)
    Blend: AUG-CC-PVTZ-RI
    Molecular point group: c1

    Geometry (in Angstrom), charge = 0, multiplicity = 1:

       Center              X                  Y                   Z               Mass
    ------------   -----------------  -----------------  -----------------  -----------------
         N            0.513959853605     1.177521049807     0.292420908994    14.003074004430
         C           -0.790408646395     0.678089749807     0.144502308994    12.000000000000
         C            1.697029853605     0.442863049807     0.084070908994    12.000000000000
         C           -3.438280146395    -0.311940950193    -0.023900091006    12.000000000000
         C           -1.152405146395    -0.533863950193     0.799166908994    12.000000000000
         C           -1.755099146395     1.361082049807    -0.570154091006    12.000000000000
         C           -2.457265146395    -1.009160950193     0.695063908994    12.000000000000
         C           -3.064670146395     0.887350049807    -0.640957091006    12.000000000000
         C            2.916977853605     1.052627049807     0.418898908994    12.000000000000
         C            1.705980853605    -0.861258950193    -0.433350091006    12.000000000000
         C           -4.858485146395    -0.811055950193    -0.083122091006    12.000000000000
         C            4.121087853605     0.381059049807     0.222736908994    12.000000000000
         C            2.917537853605    -1.531673950193    -0.607713091006    12.000000000000
         C            4.129819853605    -0.922131950193    -0.281026091006    12.000000000000
         H            0.594202853605     2.160488049807     0.053332908994     1.007825032230
         H           -0.418613146395    -1.068526950193     1.396822908994     1.007825032230
         H           -1.479858146395     2.280624049807    -1.085129091006     1.007825032230
         H           -2.722468146395    -1.937412950193     1.199578908994     1.007825032230
         H           -3.803019146395     1.452453049807    -1.208091091006     1.007825032230
         H            2.910076853605     2.057777049807     0.837379908994     1.007825032230
         H            0.774951853605    -1.335685950193    -0.727862091006     1.007825032230
         H           -5.368223146395    -0.439819950193    -0.976867091006     1.007825032230
         H           -4.891157146395    -1.904298950193    -0.105104091006     1.007825032230
         H           -5.433927146395    -0.480610950193     0.788801908994     1.007825032230
         H            5.055289853605     0.872966049807     0.484082908994     1.007825032230
         H            2.908843853605    -2.540944950193    -1.013579091006     1.007825032230
         H            5.068289853605    -1.451466950193    -0.422667091006     1.007825032230

  Basis Set: AUG-CC-PVTZ
    Blend: AUG-CC-PVTZ
  Basis Set: (AUG-CC-PVTZ AUX)
    Blend: AUG-CC-PVTZ-JKFIT
	 Reference Energy          =    -554.4902124313807690 [Eh]
	 Singles Energy            =      -0.0000000000000000 [Eh]
	 Same-Spin Energy          =      -0.6238420929500426 [Eh]
	 Opposite-Spin Energy      =      -1.9526658271997630 [Eh]
	 Correlation Energy        =      -2.5765079201498056 [Eh]
	 Total Energy              =    -557.0667203515305346 [Eh]

	 ================> DF-SCS-MP2 Energies <==================
	-----------------------------------------------------------
	 SCS Same-Spin Scale       =       0.3333333333333333 [-]
	 SCS Opposite-Spin Scale   =       1.2000000000000000 [-]
	 SCS Same-Spin Energy      =      -0.2079473643166808 [Eh]
	 SCS Opposite-Spin Energy  =      -2.3431989926397154 [Eh]
	 SCS Correlation Energy    =      -2.5511463569563961 [Eh]
	 SCS Total Energy          =    -557.0413587883372202 [Eh]
	-----------------------------------------------------------

  Dipole Moment: [D]
     X:    -0.6261      Y:     0.5713      Z:    -0.3454     Total:     0.9153

*** Psi4 exiting successfully. Buy a developer a beer!
