                               Psi4 1.4a3.dev225

  ==> Input File <==

--------------------------------------------------------------------------
#psi4
#
memory 32 gb

molecule  {
0 1
  N        0.5479400     1.1907050     0.2959170
  C       -0.7486070     0.6692540     0.1554050
  C        1.7310100     0.4560470     0.0875670
  C       -3.4043000    -0.2987570    -0.0204040
  C       -1.1184250    -0.5206800     0.8026630
  C       -1.7211190     1.3742660    -0.5666580
  C       -2.4232850    -0.9959770     0.6985600
  C       -2.8428600     0.9684807    -0.6273058
  C        2.9509580     1.0658110     0.4223950
  C        1.7399610    -0.8480750    -0.4298540
  C       -4.8245050    -0.7978720    -0.0796260
  C        4.1550680     0.3942430     0.2262330
  C        2.9515180    -1.5184900    -0.6042170
  C        4.1638000    -0.9089480    -0.2775300
  H        0.6281830     2.1736720     0.0568290
  H       -0.3846330    -1.0553430     1.4003190
  H       -1.4458780     2.2938080    -1.0816330
  H       -2.6884880    -1.9242290     1.2030750
  H       -3.7690390     1.4656370    -1.2045950
  H        2.9440570     2.0709610     0.8408760
  H        0.8089320    -1.3225020    -0.7243660
  H       -5.3342430    -0.4266360    -0.9733710
  H       -4.8571770    -1.8911150    -0.1016080
  H       -5.3999470    -0.4674270     0.7922980
  H        5.0892700     0.8861500     0.4875790
  H        2.9428240    -2.5277610    -1.0100830
  H        5.1022700    -1.4382830    -0.4191710
units angstrom
no_reorient  #important for SAPT in psi4, default
symmetry c1  #important for SAPT in psi4, default
}

set PROPERTIES_ORIGIN ["COM"]
properties('MP2/aug-cc-pvtz', properties = ['dipole'])
--------------------------------------------------------------------------

    Molecular point group: c1
  Charge       = 0
  Multiplicity = 1
  Basis Set: AUG-CC-PVTZ
    Blend: AUG-CC-PVTZ
  Basis Set: (AUG-CC-PVTZ AUX)
    Blend: AUG-CC-PVTZ-JKFIT

    Orbital Energies [Eh]
    ---------------------

    Doubly Occupied:

       1A    -15.578665     2A    -11.282737     3A    -11.277875
       4A    -11.242901     5A    -11.237733     6A    -11.236888
       7A    -11.231244     8A    -11.230029     9A    -11.228619
      10A    -11.227566    11A    -11.225578    12A    -11.224324
      13A    -11.223423    14A    -11.210641    15A     -1.259857
      16A     -1.163143    17A     -1.130068    18A     -1.051396
      19A     -1.025447    20A     -1.011155    21A     -0.992205
      22A     -0.918803    23A     -0.834623    24A     -0.831818
      25A     -0.805945    26A     -0.790108    27A     -0.711315
      28A     -0.705769    29A     -0.673334    30A     -0.644000
      31A     -0.638631    32A     -0.613644    33A     -0.598661
      34A     -0.591315    35A     -0.583095    36A     -0.575739
      37A     -0.565339    38A     -0.548726    39A     -0.537446
      40A     -0.517155    41A     -0.507794    42A     -0.502381
      43A     -0.490126    44A     -0.453089    45A     -0.436340
      46A     -0.366992    47A     -0.336833    48A     -0.324595
      49A     -0.267573

  @DF-RHF Final Energy:  -554.42685389184908

   => Energetics <=

    Nuclear Repulsion Energy =            789.6014122188139481
    One-Electron Energy =               -2316.7311630471881472
    Two-Electron Energy =                 972.7028969365251214
    Total Energy =                       -554.4268538918490776
  Basis Set: (AUG-CC-PVTZ AUX)
    Blend: AUG-CC-PVTZ-RI
    Molecular point group: c1

    Geometry (in Angstrom), charge = 0, multiplicity = 1:

       Center              X                  Y                   Z               Mass
    ------------   -----------------  -----------------  -----------------  -----------------
         N            0.501137590031     1.174511166933     0.291269974662    14.003074004430
         C           -0.795409409969     0.653060166933     0.150757974662    12.000000000000
         C            1.684207590031     0.439853166933     0.082919974662    12.000000000000
         C           -3.451102409969    -0.314950833067    -0.025051025338    12.000000000000
         C           -1.165227409969    -0.536873833067     0.798015974662    12.000000000000
         C           -1.767921409969     1.358072166933    -0.571305025338    12.000000000000
         C           -2.470087409969    -1.012170833067     0.693912974662    12.000000000000
         C           -2.889662409969     0.952286866933    -0.631952825338    12.000000000000
         C            2.904155590031     1.049617166933     0.417747974662    12.000000000000
         C            1.693158590031    -0.864268833067    -0.434501025338    12.000000000000
         C           -4.871307409969    -0.814065833067    -0.084273025338    12.000000000000
         C            4.108265590031     0.378049166933     0.221585974662    12.000000000000
         C            2.904715590031    -1.534683833067    -0.608864025338    12.000000000000
         C            4.116997590031    -0.925141833067    -0.282177025338    12.000000000000
         H            0.581380590031     2.157478166933     0.052181974662     1.007825032230
         H           -0.431435409969    -1.071536833067     1.395671974662     1.007825032230
         H           -1.492680409969     2.277614166933    -1.086280025338     1.007825032230
         H           -2.735290409969    -1.940422833067     1.198427974662     1.007825032230
         H           -3.815841409969     1.449443166933    -1.209242025338     1.007825032230
         H            2.897254590031     2.054767166933     0.836228974662     1.007825032230
         H            0.762129590031    -1.338695833067    -0.729013025338     1.007825032230
         H           -5.381045409969    -0.442829833067    -0.978018025338     1.007825032230
         H           -4.903979409969    -1.907308833067    -0.106255025338     1.007825032230
         H           -5.446749409969    -0.483620833067     0.787650974662     1.007825032230
         H            5.042467590031     0.869956166933     0.482931974662     1.007825032230
         H            2.896021590031    -2.543954833067    -1.014730025338     1.007825032230
         H            5.055467590031    -1.454476833067    -0.423818025338     1.007825032230

  Basis Set: AUG-CC-PVTZ
    Blend: AUG-CC-PVTZ
  Basis Set: (AUG-CC-PVTZ AUX)
    Blend: AUG-CC-PVTZ-JKFIT
	 Reference Energy          =    -554.4268538918490776 [Eh]
	 Singles Energy            =      -0.0000000000000000 [Eh]
	 Same-Spin Energy          =      -0.6239341174427008 [Eh]
	 Opposite-Spin Energy      =      -1.9544774364877453 [Eh]
	 Correlation Energy        =      -2.5784115539304460 [Eh]
	 Total Energy              =    -557.0052654457795143 [Eh]

	 ================> DF-SCS-MP2 Energies <==================
	-----------------------------------------------------------
	 SCS Same-Spin Scale       =       0.3333333333333333 [-]
	 SCS Opposite-Spin Scale   =       1.2000000000000000 [-]
	 SCS Same-Spin Energy      =      -0.2079780391475669 [Eh]
	 SCS Opposite-Spin Energy  =      -2.3453729237852943 [Eh]
	 SCS Correlation Energy    =      -2.5533509629328610 [Eh]
	 SCS Total Energy          =    -556.9802048547819595 [Eh]
	-----------------------------------------------------------

  Dipole Moment: [D]
     X:    -0.6510      Y:     0.5877      Z:    -0.3414     Total:     0.9411

*** Psi4 exiting successfully. Buy a developer a beer!
