                               Psi4 1.4a3.dev225

  ==> Input File <==

--------------------------------------------------------------------------
#psi4
#
memory 32 gb

molecule  {
0 1
  N        0.5479400     1.1907050     0.2959170
  C       -0.7486070     0.6692540     0.1554050
  C        1.7310100     0.4560470     0.0875670
  C       -3.4043000    -0.2987570    -0.0204040
  C       -1.1184250    -0.5206800     0.8026630
  C       -1.7211190     1.3742660    -0.5666580
  C       -2.4232850    -0.9959770     0.6985600
  C       -3.0306900     0.9005340    -0.6374610
  C        2.9509580     1.0658110     0.4223950
  C        1.7399610    -0.8480750    -0.4298540
  C       -4.8245050    -0.7978720    -0.0796260
  C        4.1550680     0.3942430     0.2262330
  C        2.9515180    -1.5184900    -0.6042170
  C        4.1638000    -0.9089480    -0.2775300
  H        0.6281830     2.1736720     0.0568290
  H       -0.3846330    -1.0553430     1.4003190
  H       -1.4458780     2.2938080    -1.0816330
  H       -2.6884880    -1.9242290     1.2030750
  H       -3.7012447     1.4137499    -1.1525214
  H        2.9440570     2.0709610     0.8408760
  H        0.8089320    -1.3225020    -0.7243660
  H       -5.3342430    -0.4266360    -0.9733710
  H       -4.8571770    -1.8911150    -0.1016080
  H       -5.3999470    -0.4674270     0.7922980
  H        5.0892700     0.8861500     0.4875790
  H        2.9428240    -2.5277610    -1.0100830
  H        5.1022700    -1.4382830    -0.4191710
units angstrom
no_reorient  #important for SAPT in psi4, default
symmetry c1  #important for SAPT in psi4, default
}

set PROPERTIES_ORIGIN ["COM"]
properties('MP2/aug-cc-pvtz', properties = ['dipole'])
--------------------------------------------------------------------------

    Molecular point group: c1
  Charge       = 0
  Multiplicity = 1
  Basis Set: AUG-CC-PVTZ
    Blend: AUG-CC-PVTZ
  Basis Set: (AUG-CC-PVTZ AUX)
    Blend: AUG-CC-PVTZ-JKFIT

    Orbital Energies [Eh]
    ---------------------

    Doubly Occupied:

       1A    -15.576942     2A    -11.282415     3A    -11.276747
       4A    -11.237722     5A    -11.237016     6A    -11.235184
       7A    -11.233611     8A    -11.232022     9A    -11.229737
      10A    -11.228408    11A    -11.225860    12A    -11.224276
      13A    -11.223279    14A    -11.222640    15A     -1.257863
      16A     -1.152027    17A     -1.128429    18A     -1.040659
      19A     -1.017999    20A     -1.011248    21A     -0.989513
      22A     -0.922121    23A     -0.846464    24A     -0.830089
      25A     -0.817225    26A     -0.788138    27A     -0.716712
      28A     -0.704956    29A     -0.668582    30A     -0.642065
      31A     -0.634900    32A     -0.623102    33A     -0.597374
      34A     -0.593994    35A     -0.585636    36A     -0.582445
      37A     -0.573613    38A     -0.545958    39A     -0.531452
      40A     -0.513414    41A     -0.501300    42A     -0.494507
      43A     -0.490261    44A     -0.487203    45A     -0.441679
      46A     -0.339954    47A     -0.335479    48A     -0.330582
      49A     -0.275416

  @DF-RHF Final Energy:  -554.48515664729155

   => Energetics <=

    Nuclear Repulsion Energy =            787.9076462271438004
    One-Electron Energy =               -2313.4291785143159359
    Two-Electron Energy =                 971.0363756398807027
    Total Energy =                       -554.4851566472915465
  Basis Set: (AUG-CC-PVTZ AUX)
    Blend: AUG-CC-PVTZ-RI
    Molecular point group: c1

    Geometry (in Angstrom), charge = 0, multiplicity = 1:

       Center              X                  Y                   Z               Mass
    ------------   -----------------  -----------------  -----------------  -----------------
         N            0.513074116076     1.179249729335     0.291648890576    14.003074004430
         C           -0.783472883924     0.657798729335     0.151136890576    12.000000000000
         C            1.696144116076     0.444591729335     0.083298890576    12.000000000000
         C           -3.439165883924    -0.310212270665    -0.024672109424    12.000000000000
         C           -1.153290883924    -0.532135270665     0.798394890576    12.000000000000
         C           -1.755984883924     1.362810729335    -0.570926109424    12.000000000000
         C           -2.458150883924    -1.007432270665     0.694291890576    12.000000000000
         C           -3.065555883924     0.889078729335    -0.641729109424    12.000000000000
         C            2.916092116076     1.054355729335     0.418126890576    12.000000000000
         C            1.705095116076    -0.859530270665    -0.434122109424    12.000000000000
         C           -4.859370883924    -0.809327270665    -0.083894109424    12.000000000000
         C            4.120202116076     0.382787729335     0.221964890576    12.000000000000
         C            2.916652116076    -1.529945270665    -0.608485109424    12.000000000000
         C            4.128934116076    -0.920403270665    -0.281798109424    12.000000000000
         H            0.593317116076     2.162216729335     0.052560890576     1.007825032230
         H           -0.419498883924    -1.066798270665     1.396050890576     1.007825032230
         H           -1.480743883924     2.282352729335    -1.085901109424     1.007825032230
         H           -2.723353883924    -1.935684270665     1.198806890576     1.007825032230
         H           -3.736110583924     1.402294629335    -1.156789509424     1.007825032230
         H            2.909191116076     2.059505729335     0.836607890576     1.007825032230
         H            0.774066116076    -1.333957270665    -0.728634109424     1.007825032230
         H           -5.369108883924    -0.438091270665    -0.977639109424     1.007825032230
         H           -4.892042883924    -1.902570270665    -0.105876109424     1.007825032230
         H           -5.434812883924    -0.478882270665     0.788029890576     1.007825032230
         H            5.054404116076     0.874694729335     0.483310890576     1.007825032230
         H            2.907958116076    -2.539216270665    -1.014351109424     1.007825032230
         H            5.067404116076    -1.449738270665    -0.423439109424     1.007825032230

  Basis Set: AUG-CC-PVTZ
    Blend: AUG-CC-PVTZ
  Basis Set: (AUG-CC-PVTZ AUX)
    Blend: AUG-CC-PVTZ-JKFIT
	 Reference Energy          =    -554.4851566472915465 [Eh]
	 Singles Energy            =      -0.0000000000000000 [Eh]
	 Same-Spin Energy          =      -0.6237446785509927 [Eh]
	 Opposite-Spin Energy      =      -1.9521311376360004 [Eh]
	 Correlation Energy        =      -2.5758758161869930 [Eh]
	 Total Energy              =    -557.0610324634785684 [Eh]

	 ================> DF-SCS-MP2 Energies <==================
	-----------------------------------------------------------
	 SCS Same-Spin Scale       =       0.3333333333333333 [-]
	 SCS Opposite-Spin Scale   =       1.2000000000000000 [-]
	 SCS Same-Spin Energy      =      -0.2079148928503309 [Eh]
	 SCS Opposite-Spin Energy  =      -2.3425573651632003 [Eh]
	 SCS Correlation Energy    =      -2.5504722580135311 [Eh]
	 SCS Total Energy          =    -557.0356289053050887 [Eh]
	-----------------------------------------------------------

  Dipole Moment: [D]
     X:    -0.6709      Y:     0.5954      Z:    -0.3582     Total:     0.9658

*** Psi4 exiting successfully. Buy a developer a beer!
