                               Psi4 1.4a3.dev225

  ==> Input File <==

--------------------------------------------------------------------------
#psi4
#
memory 32 gb

molecule  {
0 1
  N        0.5479400     1.1907050     0.2959170
  C       -0.7486070     0.6692540     0.1554050
  C        1.7310100     0.4560470     0.0875670
  C       -3.4043000    -0.2987570    -0.0204040
  C       -1.1184250    -0.5206800     0.8026630
  C       -1.6517281     1.3239618    -0.5151372
  C       -2.4232850    -0.9959770     0.6985600
  C       -3.0306900     0.9005340    -0.6374610
  C        2.9509580     1.0658110     0.4223950
  C        1.7399610    -0.8480750    -0.4298540
  C       -4.8245050    -0.7978720    -0.0796260
  C        4.1550680     0.3942430     0.2262330
  C        2.9515180    -1.5184900    -0.6042170
  C        4.1638000    -0.9089480    -0.2775300
  H        0.6281830     2.1736720     0.0568290
  H       -0.3846330    -1.0553430     1.4003190
  H       -1.4458780     2.2938080    -1.0816330
  H       -2.6884880    -1.9242290     1.2030750
  H       -3.7690390     1.4656370    -1.2045950
  H        2.9440570     2.0709610     0.8408760
  H        0.8089320    -1.3225020    -0.7243660
  H       -5.3342430    -0.4266360    -0.9733710
  H       -4.8571770    -1.8911150    -0.1016080
  H       -5.3999470    -0.4674270     0.7922980
  H        5.0892700     0.8861500     0.4875790
  H        2.9428240    -2.5277610    -1.0100830
  H        5.1022700    -1.4382830    -0.4191710
units angstrom
no_reorient  #important for SAPT in psi4, default
symmetry c1  #important for SAPT in psi4, default
}

set PROPERTIES_ORIGIN ["COM"]
properties('MP2/aug-cc-pvtz', properties = ['dipole'])
--------------------------------------------------------------------------

    Molecular point group: c1
  Charge       = 0
  Multiplicity = 1
  Basis Set: AUG-CC-PVTZ
    Blend: AUG-CC-PVTZ
  Basis Set: (AUG-CC-PVTZ AUX)
    Blend: AUG-CC-PVTZ-JKFIT

    Orbital Energies [Eh]
    ---------------------

    Doubly Occupied:

       1A    -15.574012     2A    -11.281691     3A    -11.264712
       4A    -11.239401     5A    -11.237621     6A    -11.237357
       7A    -11.236799     8A    -11.235036     9A    -11.233028
      10A    -11.229971    11A    -11.227684    12A    -11.225595
      13A    -11.224044    14A    -11.223751    15A     -1.259824
      16A     -1.155773    17A     -1.127708    18A     -1.049376
      19A     -1.013346    20A     -1.007856    21A     -0.987523
      22A     -0.926267    23A     -0.847475    24A     -0.829442
      25A     -0.814825    26A     -0.783344    27A     -0.714538
      28A     -0.703045    29A     -0.668161    30A     -0.641016
      31A     -0.631236    32A     -0.621267    33A     -0.598809
      34A     -0.590081    35A     -0.583294    36A     -0.576099
      37A     -0.573202    38A     -0.547259    39A     -0.533984
      40A     -0.513089    41A     -0.502239    42A     -0.494853
      43A     -0.491204    44A     -0.479130    45A     -0.441239
      46A     -0.340623    47A     -0.336728    48A     -0.329586
      49A     -0.280501

  @DF-RHF Final Energy:  -554.47831347758597

   => Energetics <=

    Nuclear Repulsion Energy =            788.9293067302878626
    One-Electron Energy =               -2315.4859528976671754
    Two-Electron Energy =                 972.0783326897933421
    Total Energy =                       -554.4783134775859708
  Basis Set: (AUG-CC-PVTZ AUX)
    Blend: AUG-CC-PVTZ-RI
    Molecular point group: c1

    Geometry (in Angstrom), charge = 0, multiplicity = 1:

       Center              X                  Y                   Z               Mass
    ------------   -----------------  -----------------  -----------------  -----------------
         N            0.508899643262     1.182260886244     0.288559028791    14.003074004430
         C           -0.787647356738     0.660809886244     0.148047028791    12.000000000000
         C            1.691969643262     0.447602886244     0.080209028791    12.000000000000
         C           -3.443340356738    -0.307201113756    -0.027761971209    12.000000000000
         C           -1.157465356738    -0.529124113756     0.795305028791    12.000000000000
         C           -1.690768456738     1.315517686244    -0.522495171209    12.000000000000
         C           -2.462325356738    -1.004421113756     0.691202028791    12.000000000000
         C           -3.069730356738     0.892089886244    -0.644818971209    12.000000000000
         C            2.911917643262     1.057366886244     0.415037028791    12.000000000000
         C            1.700920643262    -0.856519113756    -0.437211971209    12.000000000000
         C           -4.863545356738    -0.806316113756    -0.086983971209    12.000000000000
         C            4.116027643262     0.385798886244     0.218875028791    12.000000000000
         C            2.912477643262    -1.526934113756    -0.611574971209    12.000000000000
         C            4.124759643262    -0.917392113756    -0.284887971209    12.000000000000
         H            0.589142643262     2.165227886244     0.049471028791     1.007825032230
         H           -0.423673356738    -1.063787113756     1.392961028791     1.007825032230
         H           -1.484918356738     2.285363886244    -1.088990971209     1.007825032230
         H           -2.727528356738    -1.932673113756     1.195717028791     1.007825032230
         H           -3.808079356738     1.457192886244    -1.211952971209     1.007825032230
         H            2.905016643262     2.062516886244     0.833518028791     1.007825032230
         H            0.769891643262    -1.330946113756    -0.731723971209     1.007825032230
         H           -5.373283356738    -0.435080113756    -0.980728971209     1.007825032230
         H           -4.896217356738    -1.899559113756    -0.108965971209     1.007825032230
         H           -5.438987356738    -0.475871113756     0.784940028791     1.007825032230
         H            5.050229643262     0.877705886244     0.480221028791     1.007825032230
         H            2.903783643262    -2.536205113756    -1.017440971209     1.007825032230
         H            5.063229643262    -1.446727113756    -0.426528971209     1.007825032230

  Basis Set: AUG-CC-PVTZ
    Blend: AUG-CC-PVTZ
  Basis Set: (AUG-CC-PVTZ AUX)
    Blend: AUG-CC-PVTZ-JKFIT
	 Reference Energy          =    -554.4783134775859708 [Eh]
	 Singles Energy            =      -0.0000000000000000 [Eh]
	 Same-Spin Energy          =      -0.6235013429723421 [Eh]
	 Opposite-Spin Energy      =      -1.9527284979014867 [Eh]
	 Correlation Energy        =      -2.5762298408738289 [Eh]
	 Total Energy              =    -557.0545433184597641 [Eh]

	 ================> DF-SCS-MP2 Energies <==================
	-----------------------------------------------------------
	 SCS Same-Spin Scale       =       0.3333333333333333 [-]
	 SCS Opposite-Spin Scale   =       1.2000000000000000 [-]
	 SCS Same-Spin Energy      =      -0.2078337809907807 [Eh]
	 SCS Opposite-Spin Energy  =      -2.3432741974817839 [Eh]
	 SCS Correlation Energy    =      -2.5511079784725648 [Eh]
	 SCS Total Energy          =    -557.0294214560585715 [Eh]
	-----------------------------------------------------------

  Dipole Moment: [D]
     X:    -0.8132      Y:     0.5271      Z:    -0.3381     Total:     1.0263

*** Psi4 exiting successfully. Buy a developer a beer!
