                               Psi4 1.4a3.dev225

  ==> Input File <==

--------------------------------------------------------------------------
#psi4
#
memory 32 gb

molecule  {
0 1
  N        0.5479400     1.1907050     0.2959170
  C       -0.7486070     0.6692540     0.1554050
  C        1.7310100     0.4560470     0.0875670
  C       -3.4043000    -0.2987570    -0.0204040
  C       -1.1184250    -0.5206800     0.8026630
  C       -1.7211190     1.3742660    -0.5666580
  C       -2.4232850    -0.9959770     0.6985600
  C       -3.1246050     0.8665606    -0.6425386
  C        2.9509580     1.0658110     0.4223950
  C        1.7399610    -0.8480750    -0.4298540
  C       -4.8245050    -0.7978720    -0.0796260
  C        4.1550680     0.3942430     0.2262330
  C        2.9515180    -1.5184900    -0.6042170
  C        4.1638000    -0.9089480    -0.2775300
  H        0.6281830     2.1736720     0.0568290
  H       -0.3846330    -1.0553430     1.4003190
  H       -1.4458780     2.2938080    -1.0816330
  H       -2.6884880    -1.9242290     1.2030750
  H       -3.7690390     1.4656370    -1.2045950
  H        2.9440570     2.0709610     0.8408760
  H        0.8089320    -1.3225020    -0.7243660
  H       -5.3342430    -0.4266360    -0.9733710
  H       -4.8571770    -1.8911150    -0.1016080
  H       -5.3999470    -0.4674270     0.7922980
  H        5.0892700     0.8861500     0.4875790
  H        2.9428240    -2.5277610    -1.0100830
  H        5.1022700    -1.4382830    -0.4191710
units angstrom
no_reorient  #important for SAPT in psi4, default
symmetry c1  #important for SAPT in psi4, default
}

set PROPERTIES_ORIGIN ["COM"]
properties('MP2/aug-cc-pvtz', properties = ['dipole'])
--------------------------------------------------------------------------

    Molecular point group: c1
  Charge       = 0
  Multiplicity = 1
  Basis Set: AUG-CC-PVTZ
    Blend: AUG-CC-PVTZ
  Basis Set: (AUG-CC-PVTZ AUX)
    Blend: AUG-CC-PVTZ-JKFIT

    Orbital Energies [Eh]
    ---------------------

    Doubly Occupied:

       1A    -15.576943     2A    -11.282683     3A    -11.277322
       4A    -11.239546     5A    -11.238056     6A    -11.237425
       7A    -11.236840     8A    -11.234690     9A    -11.233802
      10A    -11.231854    11A    -11.228705    12A    -11.226425
      13A    -11.224615    14A    -11.220797    15A     -1.257819
      16A     -1.150654    17A     -1.129089    18A     -1.044139
      19A     -1.012917    20A     -1.008153    21A     -0.984354
      22A     -0.921774    23A     -0.848750    24A     -0.829639
      25A     -0.817538    26A     -0.784198    27A     -0.714216
      28A     -0.704709    29A     -0.667241    30A     -0.643640
      31A     -0.635572    32A     -0.620138    33A     -0.598218
      34A     -0.593643    35A     -0.584157    36A     -0.579721
      37A     -0.573773    38A     -0.544650    39A     -0.528975
      40A     -0.512517    41A     -0.501117    42A     -0.495536
      43A     -0.489715    44A     -0.481706    45A     -0.441563
      46A     -0.338451    47A     -0.336575    48A     -0.327357
      49A     -0.279155

  @DF-RHF Final Energy:  -554.47940827568846

   => Energetics <=

    Nuclear Repulsion Energy =            786.4749432380529015
    One-Electron Energy =               -2310.5665600935253678
    Two-Electron Energy =                 969.6122085797840100
    Total Energy =                       -554.4794082756884563
  Basis Set: (AUG-CC-PVTZ AUX)
    Blend: AUG-CC-PVTZ-RI
    Molecular point group: c1

    Geometry (in Angstrom), charge = 0, multiplicity = 1:

       Center              X                  Y                   Z               Mass
    ------------   -----------------  -----------------  -----------------  -----------------
         N            0.519602097846     1.181190627023     0.292268275092    14.003074004430
         C           -0.776944902154     0.659739627023     0.151756275092    12.000000000000
         C            1.702672097846     0.446532627023     0.083918275092    12.000000000000
         C           -3.432637902154    -0.308271372977    -0.024052724908    12.000000000000
         C           -1.146762902154    -0.530194372977     0.799014275092    12.000000000000
         C           -1.749456902154     1.364751627023    -0.570306724908    12.000000000000
         C           -2.451622902154    -1.005491372977     0.694911275092    12.000000000000
         C           -3.152942902154     0.857046227023    -0.646187324908    12.000000000000
         C            2.922620097846     1.056296627023     0.418746275092    12.000000000000
         C            1.711623097846    -0.857589372977    -0.433502724908    12.000000000000
         C           -4.852842902154    -0.807386372977    -0.083274724908    12.000000000000
         C            4.126730097846     0.384728627023     0.222584275092    12.000000000000
         C            2.923180097846    -1.528004372977    -0.607865724908    12.000000000000
         C            4.135462097846    -0.918462372977    -0.281178724908    12.000000000000
         H            0.599845097846     2.164157627023     0.053180275092     1.007825032230
         H           -0.412970902154    -1.064857372977     1.396670275092     1.007825032230
         H           -1.474215902154     2.284293627023    -1.085281724908     1.007825032230
         H           -2.716825902154    -1.933743372977     1.199426275092     1.007825032230
         H           -3.797376902154     1.456122627023    -1.208243724908     1.007825032230
         H            2.915719097846     2.061446627023     0.837227275092     1.007825032230
         H            0.780594097846    -1.332016372977    -0.728014724908     1.007825032230
         H           -5.362580902154    -0.436150372977    -0.977019724908     1.007825032230
         H           -4.885514902154    -1.900629372977    -0.105256724908     1.007825032230
         H           -5.428284902154    -0.476941372977     0.788649275092     1.007825032230
         H            5.060932097846     0.876635627023     0.483930275092     1.007825032230
         H            2.914486097846    -2.537275372977    -1.013731724908     1.007825032230
         H            5.073932097846    -1.447797372977    -0.422819724908     1.007825032230

  Basis Set: AUG-CC-PVTZ
    Blend: AUG-CC-PVTZ
  Basis Set: (AUG-CC-PVTZ AUX)
    Blend: AUG-CC-PVTZ-JKFIT
	 Reference Energy          =    -554.4794082756884563 [Eh]
	 Singles Energy            =      -0.0000000000000000 [Eh]
	 Same-Spin Energy          =      -0.6235694236110682 [Eh]
	 Opposite-Spin Energy      =      -1.9534334567660587 [Eh]
	 Correlation Energy        =      -2.5770028803771270 [Eh]
	 Total Energy              =    -557.0564111560655647 [Eh]

	 ================> DF-SCS-MP2 Energies <==================
	-----------------------------------------------------------
	 SCS Same-Spin Scale       =       0.3333333333333333 [-]
	 SCS Opposite-Spin Scale   =       1.2000000000000000 [-]
	 SCS Same-Spin Energy      =      -0.2078564745370227 [Eh]
	 SCS Opposite-Spin Energy  =      -2.3441201481192704 [Eh]
	 SCS Correlation Energy    =      -2.5519766226562930 [Eh]
	 SCS Total Energy          =    -557.0313848983447542 [Eh]
	-----------------------------------------------------------

  Dipole Moment: [D]
     X:    -0.6031      Y:     0.5682      Z:    -0.3331     Total:     0.8930

*** Psi4 exiting successfully. Buy a developer a beer!
