                               Psi4 1.4a3.dev225

  ==> Input File <==

--------------------------------------------------------------------------
#psi4
#
memory 32 gb

molecule  {
0 1
  N        0.5479400     1.1907050     0.2959170
  C       -0.7486070     0.6692540     0.1554050
  C        1.7310100     0.4560470     0.0875670
  C       -3.4043000    -0.2987570    -0.0204040
  C       -1.1184250    -0.5206800     0.8026630
  C       -1.7211190     1.3742660    -0.5666580
  C       -2.4232850    -0.9959770     0.6985600
  C       -3.0306900     0.9005340    -0.6374610
  C        2.9509580     1.0658110     0.4223950
  C        1.7399610    -0.8480750    -0.4298540
  C       -4.8245050    -0.7978720    -0.0796260
  C        4.1550680     0.3942430     0.2262330
  C        2.9515180    -1.5184900    -0.6042170
  C        4.1638000    -0.9089480    -0.2775300
  H        0.6281830     2.1736720     0.0568290
  H       -0.3846330    -1.0553430     1.4003190
  H       -1.4458780     2.2938080    -1.0816330
  H       -2.6884880    -1.9242290     1.2030750
  H       -3.7690390     1.4656370    -1.2045950
  H        2.9440570     2.0709610     0.8408760
  H        0.8089320    -1.3225020    -0.7243660
  H       -5.3342430    -0.4266360    -0.9733710
  H       -4.8571770    -1.8911150    -0.1016080
  H       -5.3736881    -0.4825060     0.7525099
  H        5.0892700     0.8861500     0.4875790
  H        2.9428240    -2.5277610    -1.0100830
  H        5.1022700    -1.4382830    -0.4191710
units angstrom
no_reorient  #important for SAPT in psi4, default
symmetry c1  #important for SAPT in psi4, default
}

set PROPERTIES_ORIGIN ["COM"]
properties('MP2/aug-cc-pvtz', properties = ['dipole'])
--------------------------------------------------------------------------

    Molecular point group: c1
  Charge       = 0
  Multiplicity = 1
  Basis Set: AUG-CC-PVTZ
    Blend: AUG-CC-PVTZ
  Basis Set: (AUG-CC-PVTZ AUX)
    Blend: AUG-CC-PVTZ-JKFIT

    Orbital Energies [Eh]
    ---------------------

    Doubly Occupied:

       1A    -15.577170     2A    -11.282534     3A    -11.277173
       4A    -11.237803     5A    -11.237095     6A    -11.235938
       7A    -11.234633     8A    -11.234015     9A    -11.232463
      10A    -11.229909    11A    -11.228509    12A    -11.225958
      13A    -11.224362    14A    -11.217066    15A     -1.258075
      16A     -1.151807    17A     -1.128232    18A     -1.041595
      19A     -1.015754    20A     -1.010655    21A     -0.990220
      22A     -0.924321    23A     -0.842613    24A     -0.829991
      25A     -0.816859    26A     -0.785489    27A     -0.713155
      28A     -0.703940    29A     -0.668660    30A     -0.640660
      31A     -0.635083    32A     -0.619051    33A     -0.597689
      34A     -0.589548    35A     -0.585084    36A     -0.582225
      37A     -0.579484    38A     -0.545775    39A     -0.530370
      40A     -0.513254    41A     -0.501702    42A     -0.494798
      43A     -0.489592    44A     -0.485949    45A     -0.442167
      46A     -0.340167    47A     -0.335623    48A     -0.331047
      49A     -0.275749

  @DF-RHF Final Energy:  -554.48988610736797

   => Energetics <=

    Nuclear Repulsion Energy =            787.5670710719093677
    One-Electron Energy =               -2312.7718907754810971
    Two-Electron Energy =                 970.7149335962037640
    Total Energy =                       -554.4898861073679655
  Basis Set: (AUG-CC-PVTZ AUX)
    Blend: AUG-CC-PVTZ-RI
    Molecular point group: c1

    Geometry (in Angstrom), charge = 0, multiplicity = 1:

       Center              X                  Y                   Z               Mass
    ------------   -----------------  -----------------  -----------------  -----------------
         N            0.513302730597     1.179047134293     0.292154505508    14.003074004430
         C           -0.783244269403     0.657596134293     0.151642505508    12.000000000000
         C            1.696372730597     0.444389134293     0.083804505508    12.000000000000
         C           -3.438937269403    -0.310414865707    -0.024166494492    12.000000000000
         C           -1.153062269403    -0.532337865707     0.798900505508    12.000000000000
         C           -1.755756269403     1.362608134293    -0.570420494492    12.000000000000
         C           -2.457922269403    -1.007634865707     0.694797505508    12.000000000000
         C           -3.065327269403     0.888876134293    -0.641223494492    12.000000000000
         C            2.916320730597     1.054153134293     0.418632505508    12.000000000000
         C            1.705323730597    -0.859732865707    -0.433616494492    12.000000000000
         C           -4.859142269403    -0.809529865707    -0.083388494492    12.000000000000
         C            4.120430730597     0.382585134293     0.222470505508    12.000000000000
         C            2.916880730597    -1.530147865707    -0.607979494492    12.000000000000
         C            4.129162730597    -0.920605865707    -0.281292494492    12.000000000000
         H            0.593545730597     2.162014134293     0.053066505508     1.007825032230
         H           -0.419270269403    -1.067000865707     1.396556505508     1.007825032230
         H           -1.480515269403     2.282150134293    -1.085395494492     1.007825032230
         H           -2.723125269403    -1.935886865707     1.199312505508     1.007825032230
         H           -3.803676269403     1.453979134293    -1.208357494492     1.007825032230
         H            2.909419730597     2.059303134293     0.837113505508     1.007825032230
         H            0.774294730597    -1.334159865707    -0.728128494492     1.007825032230
         H           -5.368880269403    -0.438293865707    -0.977133494492     1.007825032230
         H           -4.891814269403    -1.902772865707    -0.105370494492     1.007825032230
         H           -5.408325369403    -0.494163865707     0.748747405508     1.007825032230
         H            5.054632730597     0.874492134293     0.483816505508     1.007825032230
         H            2.908186730597    -2.539418865707    -1.013845494492     1.007825032230
         H            5.067632730597    -1.449940865707    -0.422933494492     1.007825032230

  Basis Set: AUG-CC-PVTZ
    Blend: AUG-CC-PVTZ
  Basis Set: (AUG-CC-PVTZ AUX)
    Blend: AUG-CC-PVTZ-JKFIT
	 Reference Energy          =    -554.4898861073679655 [Eh]
	 Singles Energy            =      -0.0000000000000000 [Eh]
	 Same-Spin Energy          =      -0.6239349037545555 [Eh]
	 Opposite-Spin Energy      =      -1.9524070820370292 [Eh]
	 Correlation Energy        =      -2.5763419857915846 [Eh]
	 Total Energy              =    -557.0662280931595660 [Eh]

	 ================> DF-SCS-MP2 Energies <==================
	-----------------------------------------------------------
	 SCS Same-Spin Scale       =       0.3333333333333333 [-]
	 SCS Opposite-Spin Scale   =       1.2000000000000000 [-]
	 SCS Same-Spin Energy      =      -0.2079783012515185 [Eh]
	 SCS Opposite-Spin Energy  =      -2.3428884984444349 [Eh]
	 SCS Correlation Energy    =      -2.5508667996959535 [Eh]
	 SCS Total Energy          =    -557.0407529070639612 [Eh]
	-----------------------------------------------------------

  Dipole Moment: [D]
     X:    -0.6623      Y:     0.5776      Z:    -0.3278     Total:     0.9379

*** Psi4 exiting successfully. Buy a developer a beer!
