                               Psi4 1.4a3.dev225

  ==> Input File <==

--------------------------------------------------------------------------
#psi4
#
memory 32 gb

molecule  {
0 1
  N        0.5479400     1.1907050     0.2959170
  C       -0.7638528     0.7134455     0.1406368
  C        1.7310100     0.4560470     0.0875670
  C       -3.4043000    -0.2987570    -0.0204040
  C       -1.1184250    -0.5206800     0.8026630
  C       -1.7211190     1.3742660    -0.5666580
  C       -2.4232850    -0.9959770     0.6985600
  C       -3.0306900     0.9005340    -0.6374610
  C        2.9509580     1.0658110     0.4223950
  C        1.7399610    -0.8480750    -0.4298540
  C       -4.8245050    -0.7978720    -0.0796260
  C        4.1550680     0.3942430     0.2262330
  C        2.9515180    -1.5184900    -0.6042170
  C        4.1638000    -0.9089480    -0.2775300
  H        0.6281830     2.1736720     0.0568290
  H       -0.3846330    -1.0553430     1.4003190
  H       -1.4458780     2.2938080    -1.0816330
  H       -2.6884880    -1.9242290     1.2030750
  H       -3.7690390     1.4656370    -1.2045950
  H        2.9440570     2.0709610     0.8408760
  H        0.8089320    -1.3225020    -0.7243660
  H       -5.3342430    -0.4266360    -0.9733710
  H       -4.8571770    -1.8911150    -0.1016080
  H       -5.3999470    -0.4674270     0.7922980
  H        5.0892700     0.8861500     0.4875790
  H        2.9428240    -2.5277610    -1.0100830
  H        5.1022700    -1.4382830    -0.4191710
units angstrom
no_reorient  #important for SAPT in psi4, default
symmetry c1  #important for SAPT in psi4, default
}

set PROPERTIES_ORIGIN ["COM"]
properties('MP2/aug-cc-pvtz', properties = ['dipole'])
--------------------------------------------------------------------------

    Molecular point group: c1
  Charge       = 0
  Multiplicity = 1
  Basis Set: AUG-CC-PVTZ
    Blend: AUG-CC-PVTZ
  Basis Set: (AUG-CC-PVTZ AUX)
    Blend: AUG-CC-PVTZ-JKFIT

    Orbital Energies [Eh]
    ---------------------

    Doubly Occupied:

       1A    -15.577251     2A    -11.283693     3A    -11.277092
       4A    -11.238142     5A    -11.237367     6A    -11.236294
       7A    -11.234902     8A    -11.234336     9A    -11.233617
      10A    -11.229050    11A    -11.228037    12A    -11.226369
      13A    -11.224694    14A    -11.223193    15A     -1.258084
      16A     -1.152405    17A     -1.128450    18A     -1.042468
      19A     -1.015464    20A     -1.009881    21A     -0.990258
      22A     -0.921426    23A     -0.842948    24A     -0.829477
      25A     -0.817158    26A     -0.785471    27A     -0.714528
      28A     -0.701907    29A     -0.669643    30A     -0.640053
      31A     -0.635791    32A     -0.619490    33A     -0.598611
      34A     -0.587702    35A     -0.583769    36A     -0.581049
      37A     -0.573194    38A     -0.545340    39A     -0.531388
      40A     -0.513610    41A     -0.501621    42A     -0.494599
      43A     -0.491079    44A     -0.483534    45A     -0.442404
      46A     -0.341379    47A     -0.336372    48A     -0.330229
      49A     -0.275963

  @DF-RHF Final Energy:  -554.48812131036846

   => Energetics <=

    Nuclear Repulsion Energy =            787.1426145735307500
    One-Electron Energy =               -2311.9199076759514355
    Two-Electron Energy =                 970.2891717920521160
    Total Energy =                       -554.4881213103684559
  Basis Set: (AUG-CC-PVTZ AUX)
    Blend: AUG-CC-PVTZ-RI
    Molecular point group: c1

    Geometry (in Angstrom), charge = 0, multiplicity = 1:

       Center              X                  Y                   Z               Mass
    ------------   -----------------  -----------------  -----------------  -----------------
         N            0.514446414309     1.176067993411     0.292903360575    14.003074004430
         C           -0.797346385691     0.698808493411     0.137623160575    12.000000000000
         C            1.697516414309     0.441409993411     0.084553360575    12.000000000000
         C           -3.437793585691    -0.313394006589    -0.023417639425    12.000000000000
         C           -1.151918585691    -0.535317006589     0.799649360575    12.000000000000
         C           -1.754612585691     1.359628993411    -0.569671639425    12.000000000000
         C           -2.456778585691    -1.010614006589     0.695546360575    12.000000000000
         C           -3.064183585691     0.885896993411    -0.640474639425    12.000000000000
         C            2.917464414309     1.051173993411     0.419381360575    12.000000000000
         C            1.706467414309    -0.862712006589    -0.432867639425    12.000000000000
         C           -4.857998585691    -0.812509006589    -0.082639639425    12.000000000000
         C            4.121574414309     0.379605993411     0.223219360575    12.000000000000
         C            2.918024414309    -1.533127006589    -0.607230639425    12.000000000000
         C            4.130306414309    -0.923585006589    -0.280543639425    12.000000000000
         H            0.594689414309     2.159034993411     0.053815360575     1.007825032230
         H           -0.418126585691    -1.069980006589     1.397305360575     1.007825032230
         H           -1.479371585691     2.279170993411    -1.084646639425     1.007825032230
         H           -2.721981585691    -1.938866006589     1.200061360575     1.007825032230
         H           -3.802532585691     1.450999993411    -1.207608639425     1.007825032230
         H            2.910563414309     2.056323993411     0.837862360575     1.007825032230
         H            0.775438414309    -1.337139006589    -0.727379639425     1.007825032230
         H           -5.367736585691    -0.441273006589    -0.976384639425     1.007825032230
         H           -4.890670585691    -1.905752006589    -0.104621639425     1.007825032230
         H           -5.433440585691    -0.482064006589     0.789284360575     1.007825032230
         H            5.055776414309     0.871512993411     0.484565360575     1.007825032230
         H            2.909330414309    -2.542398006589    -1.013096639425     1.007825032230
         H            5.068776414309    -1.452920006589    -0.422184639425     1.007825032230

  Basis Set: AUG-CC-PVTZ
    Blend: AUG-CC-PVTZ
  Basis Set: (AUG-CC-PVTZ AUX)
    Blend: AUG-CC-PVTZ-JKFIT
	 Reference Energy          =    -554.4881213103684559 [Eh]
	 Singles Energy            =      -0.0000000000000000 [Eh]
	 Same-Spin Energy          =      -0.6237306420494882 [Eh]
	 Opposite-Spin Energy      =      -1.9527315435951718 [Eh]
	 Correlation Energy        =      -2.5764621856446599 [Eh]
	 Total Energy              =    -557.0645834960131424 [Eh]

	 ================> DF-SCS-MP2 Energies <==================
	-----------------------------------------------------------
	 SCS Same-Spin Scale       =       0.3333333333333333 [-]
	 SCS Opposite-Spin Scale   =       1.2000000000000000 [-]
	 SCS Same-Spin Energy      =      -0.2079102140164961 [Eh]
	 SCS Opposite-Spin Energy  =      -2.3432778523142059 [Eh]
	 SCS Correlation Energy    =      -2.5511880663307021 [Eh]
	 SCS Total Energy          =    -557.0393093766991797 [Eh]
	-----------------------------------------------------------

  Dipole Moment: [D]
     X:    -0.6184      Y:     0.5645      Z:    -0.3502     Total:     0.9076

*** Psi4 exiting successfully. Buy a developer a beer!
