                               Psi4 1.4a3.dev225

  ==> Input File <==

--------------------------------------------------------------------------
#psi4
#
memory 32 gb

molecule  {
0 1
  N        0.5479400     1.1907050     0.2959170
  C       -0.7486070     0.6692540     0.1554050
  C        1.7310100     0.4560470     0.0875670
  C       -3.4043000    -0.2987570    -0.0204040
  C       -1.1184250    -0.5206800     0.8026630
  C       -1.7211190     1.3742660    -0.5666580
  C       -2.4232850    -0.9959770     0.6985600
  C       -3.0306900     0.9005340    -0.6374610
  C        2.9509580     1.0658110     0.4223950
  C        1.7399610    -0.8480750    -0.4298540
  C       -4.8245050    -0.7978720    -0.0796260
  C        4.1550680     0.3942430     0.2262330
  C        2.9515180    -1.5184900    -0.6042170
  C        4.1203699    -0.9307849    -0.2892336
  H        0.6281830     2.1736720     0.0568290
  H       -0.3846330    -1.0553430     1.4003190
  H       -1.4458780     2.2938080    -1.0816330
  H       -2.6884880    -1.9242290     1.2030750
  H       -3.7690390     1.4656370    -1.2045950
  H        2.9440570     2.0709610     0.8408760
  H        0.8089320    -1.3225020    -0.7243660
  H       -5.3342430    -0.4266360    -0.9733710
  H       -4.8571770    -1.8911150    -0.1016080
  H       -5.3999470    -0.4674270     0.7922980
  H        5.0892700     0.8861500     0.4875790
  H        2.9428240    -2.5277610    -1.0100830
  H        5.1022700    -1.4382830    -0.4191710
units angstrom
no_reorient  #important for SAPT in psi4, default
symmetry c1  #important for SAPT in psi4, default
}

set PROPERTIES_ORIGIN ["COM"]
properties('MP2/aug-cc-pvtz', properties = ['dipole'])
--------------------------------------------------------------------------

    Molecular point group: c1
  Charge       = 0
  Multiplicity = 1
  Basis Set: AUG-CC-PVTZ
    Blend: AUG-CC-PVTZ
  Basis Set: (AUG-CC-PVTZ AUX)
    Blend: AUG-CC-PVTZ-JKFIT

    Orbital Energies [Eh]
    ---------------------

    Doubly Occupied:

       1A    -15.576971     2A    -11.281914     3A    -11.277125
       4A    -11.240746     5A    -11.235994     6A    -11.234612
       7A    -11.233996     8A    -11.232382     9A    -11.230699
      10A    -11.229973    11A    -11.229759    12A    -11.224794
      13A    -11.223811    14A    -11.223004    15A     -1.257934
      16A     -1.152752    17A     -1.130176    18A     -1.041731
      19A     -1.015444    20A     -1.011810    21A     -0.989454
      22A     -0.921618    23A     -0.841769    24A     -0.832420
      25A     -0.814006    26A     -0.785450    27A     -0.713763
      28A     -0.704071    29A     -0.665250    30A     -0.639494
      31A     -0.635250    32A     -0.620749    33A     -0.596463
      34A     -0.588608    35A     -0.586222    36A     -0.583229
      37A     -0.573118    38A     -0.545341    39A     -0.530766
      40A     -0.512145    41A     -0.497171    42A     -0.494749
      43A     -0.491335    44A     -0.485023    45A     -0.443008
      46A     -0.340592    47A     -0.337902    48A     -0.329769
      49A     -0.275958

  @DF-RHF Final Energy:  -554.48782288918824

   => Energetics <=

    Nuclear Repulsion Energy =            787.9250467859314995
    One-Electron Energy =               -2313.5051009146304750
    Two-Electron Energy =                 971.0922312395107383
    Total Energy =                       -554.4878228891882372
  Basis Set: (AUG-CC-PVTZ AUX)
    Blend: AUG-CC-PVTZ-RI
    Molecular point group: c1

    Geometry (in Angstrom), charge = 0, multiplicity = 1:

       Center              X                  Y                   Z               Mass
    ------------   -----------------  -----------------  -----------------  -----------------
         N            0.516293507346     1.180395246451     0.292702518215    14.003074004430
         C           -0.780253492654     0.658944246451     0.152190518215    12.000000000000
         C            1.699363507346     0.445737246451     0.084352518215    12.000000000000
         C           -3.435946492654    -0.309066753549    -0.023618481785    12.000000000000
         C           -1.150071492654    -0.530989753549     0.799448518215    12.000000000000
         C           -1.752765492654     1.363956246451    -0.569872481785    12.000000000000
         C           -2.454931492654    -1.006286753549     0.695345518215    12.000000000000
         C           -3.062336492654     0.890224246451    -0.640675481785    12.000000000000
         C            2.919311507346     1.055501246451     0.419180518215    12.000000000000
         C            1.708314507346    -0.858384753549    -0.433068481785    12.000000000000
         C           -4.856151492654    -0.808181753549    -0.082840481785    12.000000000000
         C            4.123421507346     0.383933246451     0.223018518215    12.000000000000
         C            2.919871507346    -1.528799753549    -0.607431481785    12.000000000000
         C            4.088723407346    -0.941094653549    -0.292448081785    12.000000000000
         H            0.596536507346     2.163362246451     0.053614518215     1.007825032230
         H           -0.416279492654    -1.065652753549     1.397104518215     1.007825032230
         H           -1.477524492654     2.283498246451    -1.084847481785     1.007825032230
         H           -2.720134492654    -1.934538753549     1.199860518215     1.007825032230
         H           -3.800685492654     1.455327246451    -1.207809481785     1.007825032230
         H            2.912410507346     2.060651246451     0.837661518215     1.007825032230
         H            0.777285507346    -1.332811753549    -0.727580481785     1.007825032230
         H           -5.365889492654    -0.436945753549    -0.976585481785     1.007825032230
         H           -4.888823492654    -1.901424753549    -0.104822481785     1.007825032230
         H           -5.431593492654    -0.477736753549     0.789083518215     1.007825032230
         H            5.057623507346     0.875840246451     0.484364518215     1.007825032230
         H            2.911177507346    -2.538070753549    -1.013297481785     1.007825032230
         H            5.070623507346    -1.448592753549    -0.422385481785     1.007825032230

  Basis Set: AUG-CC-PVTZ
    Blend: AUG-CC-PVTZ
  Basis Set: (AUG-CC-PVTZ AUX)
    Blend: AUG-CC-PVTZ-JKFIT
	 Reference Energy          =    -554.4878228891882372 [Eh]
	 Singles Energy            =      -0.0000000000000000 [Eh]
	 Same-Spin Energy          =      -0.6238873838288292 [Eh]
	 Opposite-Spin Energy      =      -1.9526843194693395 [Eh]
	 Correlation Energy        =      -2.5765717032981685 [Eh]
	 Total Energy              =    -557.0643945924864511 [Eh]

	 ================> DF-SCS-MP2 Energies <==================
	-----------------------------------------------------------
	 SCS Same-Spin Scale       =       0.3333333333333333 [-]
	 SCS Opposite-Spin Scale   =       1.2000000000000000 [-]
	 SCS Same-Spin Energy      =      -0.2079624612762764 [Eh]
	 SCS Opposite-Spin Energy  =      -2.3432211833632075 [Eh]
	 SCS Correlation Energy    =      -2.5511836446394840 [Eh]
	 SCS Total Energy          =    -557.0390065338277736 [Eh]
	-----------------------------------------------------------

  Dipole Moment: [D]
     X:    -0.6074      Y:     0.5987      Z:    -0.3307     Total:     0.9148

*** Psi4 exiting successfully. Buy a developer a beer!
