                               Psi4 1.4a3.dev225

  ==> Input File <==

--------------------------------------------------------------------------
#psi4
#
memory 32 gb

molecule  {
0 1
  N        0.5479400     1.1907050     0.2959170
  C       -0.7486070     0.6692540     0.1554050
  C        1.7310100     0.4560470     0.0875670
  C       -3.4123526    -0.2732423    -0.0656734
  C       -1.1184250    -0.5206800     0.8026630
  C       -1.7211190     1.3742660    -0.5666580
  C       -2.4232850    -0.9959770     0.6985600
  C       -3.0306900     0.9005340    -0.6374610
  C        2.9509580     1.0658110     0.4223950
  C        1.7399610    -0.8480750    -0.4298540
  C       -4.8245050    -0.7978720    -0.0796260
  C        4.1550680     0.3942430     0.2262330
  C        2.9515180    -1.5184900    -0.6042170
  C        4.1638000    -0.9089480    -0.2775300
  H        0.6281830     2.1736720     0.0568290
  H       -0.3846330    -1.0553430     1.4003190
  H       -1.4458780     2.2938080    -1.0816330
  H       -2.6884880    -1.9242290     1.2030750
  H       -3.7690390     1.4656370    -1.2045950
  H        2.9440570     2.0709610     0.8408760
  H        0.8089320    -1.3225020    -0.7243660
  H       -5.3342430    -0.4266360    -0.9733710
  H       -4.8571770    -1.8911150    -0.1016080
  H       -5.3999470    -0.4674270     0.7922980
  H        5.0892700     0.8861500     0.4875790
  H        2.9428240    -2.5277610    -1.0100830
  H        5.1022700    -1.4382830    -0.4191710
units angstrom
no_reorient  #important for SAPT in psi4, default
symmetry c1  #important for SAPT in psi4, default
}

set PROPERTIES_ORIGIN ["COM"]
properties('MP2/aug-cc-pvtz', properties = ['dipole'])
--------------------------------------------------------------------------

    Molecular point group: c1
  Charge       = 0
  Multiplicity = 1
  Basis Set: AUG-CC-PVTZ
    Blend: AUG-CC-PVTZ
  Basis Set: (AUG-CC-PVTZ AUX)
    Blend: AUG-CC-PVTZ-JKFIT

    Orbital Energies [Eh]
    ---------------------

    Doubly Occupied:

       1A    -15.577539     2A    -11.282800     3A    -11.277812
       4A    -11.239248     5A    -11.238076     6A    -11.237404
       7A    -11.235435     8A    -11.231770     9A    -11.231000
      10A    -11.229582    11A    -11.228806    12A    -11.226393
      13A    -11.224671    14A    -11.223218    15A     -1.258396
      16A     -1.152040    17A     -1.128464    18A     -1.041114
      19A     -1.015750    20A     -1.011166    21A     -0.989419
      22A     -0.921365    23A     -0.844103    24A     -0.827518
      25A     -0.819093    26A     -0.783888    27A     -0.713550
      28A     -0.703510    29A     -0.669342    30A     -0.639883
      31A     -0.635455    32A     -0.619379    33A     -0.597792
      34A     -0.588726    35A     -0.585312    36A     -0.581267
      37A     -0.573037    38A     -0.546599    39A     -0.530485
      40A     -0.512409    41A     -0.504699    42A     -0.496095
      43A     -0.489987    44A     -0.480346    45A     -0.442035
      46A     -0.342043    47A     -0.336689    48A     -0.328921
      49A     -0.276276

  @DF-RHF Final Energy:  -554.48805872902415

   => Energetics <=

    Nuclear Repulsion Energy =            787.2963658305802710
    One-Electron Energy =               -2312.2290363896167946
    Two-Electron Energy =                 970.4446118300123771
    Total Energy =                       -554.4880587290241465
  Basis Set: (AUG-CC-PVTZ AUX)
    Blend: AUG-CC-PVTZ-RI
    Molecular point group: c1

    Geometry (in Angstrom), charge = 0, multiplicity = 1:

       Center              X                  Y                   Z               Mass
    ------------   -----------------  -----------------  -----------------  -----------------
         N            0.513974999030     1.177292000650     0.294902294525    14.003074004430
         C           -0.782572000970     0.655841000650     0.154390294525    12.000000000000
         C            1.697044999030     0.442634000650     0.086552294525    12.000000000000
         C           -3.446317600970    -0.286655299350    -0.066688105475    12.000000000000
         C           -1.152390000970    -0.534092999350     0.801648294525    12.000000000000
         C           -1.755084000970     1.360853000650    -0.567672705475    12.000000000000
         C           -2.457250000970    -1.009389999350     0.697545294525    12.000000000000
         C           -3.064655000970     0.887121000650    -0.638475705475    12.000000000000
         C            2.916992999030     1.052398000650     0.421380294525    12.000000000000
         C            1.705995999030    -0.861487999350    -0.430868705475    12.000000000000
         C           -4.858470000970    -0.811284999350    -0.080640705475    12.000000000000
         C            4.121102999030     0.380830000650     0.225218294525    12.000000000000
         C            2.917552999030    -1.531902999350    -0.605231705475    12.000000000000
         C            4.129834999030    -0.922360999350    -0.278544705475    12.000000000000
         H            0.594217999030     2.160259000650     0.055814294525     1.007825032230
         H           -0.418598000970    -1.068755999350     1.399304294525     1.007825032230
         H           -1.479843000970     2.280395000650    -1.082647705475     1.007825032230
         H           -2.722453000970    -1.937641999350     1.202060294525     1.007825032230
         H           -3.803004000970     1.452224000650    -1.205609705475     1.007825032230
         H            2.910091999030     2.057548000650     0.839861294525     1.007825032230
         H            0.774966999030    -1.335914999350    -0.725380705475     1.007825032230
         H           -5.368208000970    -0.440048999350    -0.974385705475     1.007825032230
         H           -4.891142000970    -1.904527999350    -0.102622705475     1.007825032230
         H           -5.433912000970    -0.480839999350     0.791283294525     1.007825032230
         H            5.055304999030     0.872737000650     0.486564294525     1.007825032230
         H            2.908858999030    -2.541173999350    -1.011097705475     1.007825032230
         H            5.068304999030    -1.451695999350    -0.420185705475     1.007825032230

  Basis Set: AUG-CC-PVTZ
    Blend: AUG-CC-PVTZ
  Basis Set: (AUG-CC-PVTZ AUX)
    Blend: AUG-CC-PVTZ-JKFIT
	 Reference Energy          =    -554.4880587290241465 [Eh]
	 Singles Energy            =      -0.0000000000000000 [Eh]
	 Same-Spin Energy          =      -0.6237471550403925 [Eh]
	 Opposite-Spin Energy      =      -1.9527289003671671 [Eh]
	 Correlation Energy        =      -2.5764760554075594 [Eh]
	 Total Energy              =    -557.0645347844316575 [Eh]

	 ================> DF-SCS-MP2 Energies <==================
	-----------------------------------------------------------
	 SCS Same-Spin Scale       =       0.3333333333333333 [-]
	 SCS Opposite-Spin Scale   =       1.2000000000000000 [-]
	 SCS Same-Spin Energy      =      -0.2079157183467975 [Eh]
	 SCS Opposite-Spin Energy  =      -2.3432746804406004 [Eh]
	 SCS Correlation Energy    =      -2.5511903987873978 [Eh]
	 SCS Total Energy          =    -557.0392491278115585 [Eh]
	-----------------------------------------------------------

  Dipole Moment: [D]
     X:    -0.6058      Y:     0.5588      Z:    -0.3123     Total:     0.8814

*** Psi4 exiting successfully. Buy a developer a beer!
