                               Psi4 1.4a3.dev225

  ==> Input File <==

--------------------------------------------------------------------------
#psi4
#
memory 32 gb

molecule  {
0 1
  N        0.5479400     1.1907050     0.2959170
  C       -0.7486070     0.6692540     0.1554050
  C        1.7310100     0.4560470     0.0875670
  C       -3.4043000    -0.2987570    -0.0204040
  C       -1.1184250    -0.5206800     0.8026630
  C       -1.7211190     1.3742660    -0.5666580
  C       -2.4232850    -0.9959770     0.6985600
  C       -3.0306900     0.9005340    -0.6374610
  C        2.9509580     1.0658110     0.4223950
  C        1.7907169    -0.7723651    -0.3954884
  C       -4.8245050    -0.7978720    -0.0796260
  C        4.1550680     0.3942430     0.2262330
  C        2.9515180    -1.5184900    -0.6042170
  C        4.1638000    -0.9089480    -0.2775300
  H        0.6281830     2.1736720     0.0568290
  H       -0.3846330    -1.0553430     1.4003190
  H       -1.4458780     2.2938080    -1.0816330
  H       -2.6884880    -1.9242290     1.2030750
  H       -3.7690390     1.4656370    -1.2045950
  H        2.9440570     2.0709610     0.8408760
  H        0.8089320    -1.3225020    -0.7243660
  H       -5.3342430    -0.4266360    -0.9733710
  H       -4.8571770    -1.8911150    -0.1016080
  H       -5.3999470    -0.4674270     0.7922980
  H        5.0892700     0.8861500     0.4875790
  H        2.9428240    -2.5277610    -1.0100830
  H        5.1022700    -1.4382830    -0.4191710
units angstrom
no_reorient  #important for SAPT in psi4, default
symmetry c1  #important for SAPT in psi4, default
}

set PROPERTIES_ORIGIN ["COM"]
properties('MP2/aug-cc-pvtz', properties = ['dipole'])
--------------------------------------------------------------------------

    Molecular point group: c1
  Charge       = 0
  Multiplicity = 1
  Basis Set: AUG-CC-PVTZ
    Blend: AUG-CC-PVTZ
  Basis Set: (AUG-CC-PVTZ AUX)
    Blend: AUG-CC-PVTZ-JKFIT

    Orbital Energies [Eh]
    ---------------------

    Doubly Occupied:

       1A    -15.576197     2A    -11.276355     3A    -11.271796
       4A    -11.237544     5A    -11.236515     6A    -11.235232
       7A    -11.233846     8A    -11.233212     9A    -11.231568
      10A    -11.230641    11A    -11.229077    12A    -11.226187
      13A    -11.223851    14A    -11.222476    15A     -1.259271
      16A     -1.156093    17A     -1.131106    18A     -1.041476
      19A     -1.015315    20A     -1.009701    21A     -0.995922
      22A     -0.921235    23A     -0.844429    24A     -0.828435
      25A     -0.819279    26A     -0.783220    27A     -0.715096
      28A     -0.703936    29A     -0.663456    30A     -0.641728
      31A     -0.633969    32A     -0.618628    33A     -0.604309
      34A     -0.587005    35A     -0.583144    36A     -0.576959
      37A     -0.571634    38A     -0.545961    39A     -0.532004
      40A     -0.513676    41A     -0.503637    42A     -0.496203
      43A     -0.485668    44A     -0.475791    45A     -0.441935
      46A     -0.340786    47A     -0.336161    48A     -0.332153
      49A     -0.278679

  @DF-RHF Final Energy:  -554.47915133586116

   => Energetics <=

    Nuclear Repulsion Energy =            788.6965949038263943
    One-Electron Energy =               -2315.0464989686970512
    Two-Electron Energy =                 971.8707527290096095
    Total Energy =                       -554.4791513358611610
  Basis Set: (AUG-CC-PVTZ AUX)
    Blend: AUG-CC-PVTZ-RI
    Molecular point group: c1

    Geometry (in Angstrom), charge = 0, multiplicity = 1:

       Center              X                  Y                   Z               Mass
    ------------   -----------------  -----------------  -----------------  -----------------
         N            0.510120911086     1.174002395998     0.289683316088    14.003074004430
         C           -0.786426088914     0.652551395998     0.149171316088    12.000000000000
         C            1.693190911086     0.439344395998     0.081333316088    12.000000000000
         C           -3.442119088914    -0.315459604002    -0.026637683912    12.000000000000
         C           -1.156244088914    -0.537382604002     0.796429316088    12.000000000000
         C           -1.758938088914     1.357563395998    -0.572891683912    12.000000000000
         C           -2.461104088914    -1.012679604002     0.692326316088    12.000000000000
         C           -3.068509088914     0.883831395998    -0.643694683912    12.000000000000
         C            2.913138911086     1.049108395998     0.416161316088    12.000000000000
         C            1.752897811086    -0.789067704002    -0.401722083912    12.000000000000
         C           -4.862324088914    -0.814574604002    -0.085859683912    12.000000000000
         C            4.117248911086     0.377540395998     0.219999316088    12.000000000000
         C            2.913698911086    -1.535192604002    -0.610450683912    12.000000000000
         C            4.125980911086    -0.925650604002    -0.283763683912    12.000000000000
         H            0.590363911086     2.156969395998     0.050595316088     1.007825032230
         H           -0.422452088914    -1.072045604002     1.394085316088     1.007825032230
         H           -1.483697088914     2.277105395998    -1.087866683912     1.007825032230
         H           -2.726307088914    -1.940931604002     1.196841316088     1.007825032230
         H           -3.806858088914     1.448934395998    -1.210828683912     1.007825032230
         H            2.906237911086     2.054258395998     0.834642316088     1.007825032230
         H            0.771112911086    -1.339204604002    -0.730599683912     1.007825032230
         H           -5.372062088914    -0.443338604002    -0.979604683912     1.007825032230
         H           -4.894996088914    -1.907817604002    -0.107841683912     1.007825032230
         H           -5.437766088914    -0.484129604002     0.786064316088     1.007825032230
         H            5.051450911086     0.869447395998     0.481345316088     1.007825032230
         H            2.905004911086    -2.544463604002    -1.016316683912     1.007825032230
         H            5.064450911086    -1.454985604002    -0.425404683912     1.007825032230

  Basis Set: AUG-CC-PVTZ
    Blend: AUG-CC-PVTZ
  Basis Set: (AUG-CC-PVTZ AUX)
    Blend: AUG-CC-PVTZ-JKFIT
	 Reference Energy          =    -554.4791513358611610 [Eh]
	 Singles Energy            =      -0.0000000000000000 [Eh]
	 Same-Spin Energy          =      -0.6241715428936020 [Eh]
	 Opposite-Spin Energy      =      -1.9530449949786002 [Eh]
	 Correlation Energy        =      -2.5772165378722023 [Eh]
	 Total Energy              =    -557.0563678737333930 [Eh]

	 ================> DF-SCS-MP2 Energies <==================
	-----------------------------------------------------------
	 SCS Same-Spin Scale       =       0.3333333333333333 [-]
	 SCS Opposite-Spin Scale   =       1.2000000000000000 [-]
	 SCS Same-Spin Energy      =      -0.2080571809645340 [Eh]
	 SCS Opposite-Spin Energy  =      -2.3436539939743199 [Eh]
	 SCS Correlation Energy    =      -2.5517111749388541 [Eh]
	 SCS Total Energy          =    -557.0308625108000342 [Eh]
	-----------------------------------------------------------

  Dipole Moment: [D]
     X:    -0.4877      Y:     0.5197      Z:    -0.3569     Total:     0.7971

*** Psi4 exiting successfully. Buy a developer a beer!
