                               Psi4 1.4a3.dev225

  ==> Input File <==

--------------------------------------------------------------------------
#psi4
#
memory 32 gb

molecule  {
0 1
  N        0.5479400     1.1907050     0.2959170
  C       -0.7486070     0.6692540     0.1554050
  C        1.7310100     0.4560470     0.0875670
  C       -3.4336075    -0.2241607    -0.1562080
  C       -1.1184250    -0.5206800     0.8026630
  C       -1.7211190     1.3742660    -0.5666580
  C       -2.4232850    -0.9959770     0.6985600
  C       -3.0306900     0.9005340    -0.6374610
  C        2.9509580     1.0658110     0.4223950
  C        1.7399610    -0.8480750    -0.4298540
  C       -4.8245050    -0.7978720    -0.0796260
  C        4.1550680     0.3942430     0.2262330
  C        2.9515180    -1.5184900    -0.6042170
  C        4.1638000    -0.9089480    -0.2775300
  H        0.6281830     2.1736720     0.0568290
  H       -0.3846330    -1.0553430     1.4003190
  H       -1.4458780     2.2938080    -1.0816330
  H       -2.6884880    -1.9242290     1.2030750
  H       -3.7690390     1.4656370    -1.2045950
  H        2.9440570     2.0709610     0.8408760
  H        0.8089320    -1.3225020    -0.7243660
  H       -5.3342430    -0.4266360    -0.9733710
  H       -4.8571770    -1.8911150    -0.1016080
  H       -5.3999470    -0.4674270     0.7922980
  H        5.0892700     0.8861500     0.4875790
  H        2.9428240    -2.5277610    -1.0100830
  H        5.1022700    -1.4382830    -0.4191710
units angstrom
no_reorient  #important for SAPT in psi4, default
symmetry c1  #important for SAPT in psi4, default
}

set PROPERTIES_ORIGIN ["COM"]
properties('MP2/aug-cc-pvtz', properties = ['dipole'])
--------------------------------------------------------------------------

    Molecular point group: c1
  Charge       = 0
  Multiplicity = 1
  Basis Set: AUG-CC-PVTZ
    Blend: AUG-CC-PVTZ
  Basis Set: (AUG-CC-PVTZ AUX)
    Blend: AUG-CC-PVTZ-JKFIT

    Orbital Energies [Eh]
    ---------------------

    Doubly Occupied:

       1A    -15.578297     2A    -11.283219     3A    -11.279156
       4A    -11.246474     5A    -11.238496     6A    -11.237871
       7A    -11.234125     8A    -11.232105     9A    -11.229303
      10A    -11.229041    11A    -11.227105    12A    -11.225185
      13A    -11.224119    14A    -11.219689    15A     -1.258938
      16A     -1.152982    17A     -1.129681    18A     -1.044812
      19A     -1.014369    20A     -1.011230    21A     -0.989277
      22A     -0.922976    23A     -0.848350    24A     -0.823292
      25A     -0.822182    26A     -0.779368    27A     -0.714085
      28A     -0.702448    29A     -0.670777    30A     -0.639699
      31A     -0.634463    32A     -0.619919    33A     -0.598261
      34A     -0.592458    35A     -0.585238    36A     -0.578738
      37A     -0.572840    38A     -0.549559    39A     -0.532108
      40A     -0.515894    41A     -0.509717    42A     -0.496210
      43A     -0.490959    44A     -0.458208    45A     -0.442557
      46A     -0.350155    47A     -0.337762    48A     -0.323898
      49A     -0.277077

  @DF-RHF Final Energy:  -554.46561916983285

   => Energetics <=

    Nuclear Repulsion Energy =            787.1610740441403777
    One-Electron Energy =               -2311.9040378303552643
    Two-Electron Energy =                 970.2773446163820381
    Total Energy =                       -554.4656191698328485
  Basis Set: (AUG-CC-PVTZ AUX)
    Blend: AUG-CC-PVTZ-RI
    Molecular point group: c1

    Geometry (in Angstrom), charge = 0, multiplicity = 1:

       Center              X                  Y                   Z               Mass
    ------------   -----------------  -----------------  -----------------  -----------------
         N            0.515367965249     1.174075377154     0.300835591759    14.003074004430
         C           -0.781179034751     0.652624377154     0.160323591759    12.000000000000
         C            1.698437965249     0.439417377154     0.092485591759    12.000000000000
         C           -3.466179534751    -0.240790322846    -0.151289408241    12.000000000000
         C           -1.150997034751    -0.537309622846     0.807581591759    12.000000000000
         C           -1.753691034751     1.357636377154    -0.561739408241    12.000000000000
         C           -2.455857034751    -1.012606622846     0.703478591759    12.000000000000
         C           -3.063262034751     0.883904377154    -0.632542408241    12.000000000000
         C            2.918385965249     1.049181377154     0.427313591759    12.000000000000
         C            1.707388965249    -0.864704622846    -0.424935408241    12.000000000000
         C           -4.857077034751    -0.814501622846    -0.074707408241    12.000000000000
         C            4.122495965249     0.377613377154     0.231151591759    12.000000000000
         C            2.918945965249    -1.535119622846    -0.599298408241    12.000000000000
         C            4.131227965249    -0.925577622846    -0.272611408241    12.000000000000
         H            0.595610965249     2.157042377154     0.061747591759     1.007825032230
         H           -0.417205034751    -1.071972622846     1.405237591759     1.007825032230
         H           -1.478450034751     2.277178377154    -1.076714408241     1.007825032230
         H           -2.721060034751    -1.940858622846     1.207993591759     1.007825032230
         H           -3.801611034751     1.449007377154    -1.199676408241     1.007825032230
         H            2.911484965249     2.054331377154     0.845794591759     1.007825032230
         H            0.776359965249    -1.339131622846    -0.719447408241     1.007825032230
         H           -5.366815034751    -0.443265622846    -0.968452408241     1.007825032230
         H           -4.889749034751    -1.907744622846    -0.096689408241     1.007825032230
         H           -5.432519034751    -0.484056622846     0.797216591759     1.007825032230
         H            5.056697965249     0.869520377154     0.492497591759     1.007825032230
         H            2.910251965249    -2.544390622846    -1.005164408241     1.007825032230
         H            5.069697965249    -1.454912622846    -0.414252408241     1.007825032230

  Basis Set: AUG-CC-PVTZ
    Blend: AUG-CC-PVTZ
  Basis Set: (AUG-CC-PVTZ AUX)
    Blend: AUG-CC-PVTZ-JKFIT
	 Reference Energy          =    -554.4656191698328485 [Eh]
	 Singles Energy            =      -0.0000000000000000 [Eh]
	 Same-Spin Energy          =      -0.6231104464517647 [Eh]
	 Opposite-Spin Energy      =      -1.9535783261030686 [Eh]
	 Correlation Energy        =      -2.5766887725548333 [Eh]
	 Total Energy              =    -557.0423079423876516 [Eh]

	 ================> DF-SCS-MP2 Energies <==================
	-----------------------------------------------------------
	 SCS Same-Spin Scale       =       0.3333333333333333 [-]
	 SCS Opposite-Spin Scale   =       1.2000000000000000 [-]
	 SCS Same-Spin Energy      =      -0.2077034821505882 [Eh]
	 SCS Opposite-Spin Energy  =      -2.3442939913236822 [Eh]
	 SCS Correlation Energy    =      -2.5519974734742705 [Eh]
	 SCS Total Energy          =    -557.0176166433070648 [Eh]
	-----------------------------------------------------------

  Dipole Moment: [D]
     X:    -0.5474      Y:     0.5235      Z:    -0.2595     Total:     0.8007

*** Psi4 exiting successfully. Buy a developer a beer!
