                               Psi4 1.4a3.dev225

  ==> Input File <==

--------------------------------------------------------------------------
#psi4
#
memory 32 gb

molecule  {
0 1
  N        0.5479400     1.1907050     0.2959170
  C       -0.7486070     0.6692540     0.1554050
  C        1.7310100     0.4560470     0.0875670
  C       -3.4043000    -0.2987570    -0.0204040
  C       -1.1184250    -0.5206800     0.8026630
  C       -1.7211190     1.3742660    -0.5666580
  C       -2.4232850    -0.9959770     0.6985600
  C       -3.0306900     0.9005340    -0.6374610
  C        2.9509580     1.0658110     0.4223950
  C        1.7399610    -0.8480750    -0.4298540
  C       -4.8245050    -0.7978720    -0.0796260
  C        4.1550680     0.3942430     0.2262330
  C        2.9515180    -1.5184900    -0.6042170
  C        4.1638000    -0.9089480    -0.2775300
  H        0.6281830     2.1736720     0.0568290
  H       -0.3846330    -1.0553430     1.4003190
  H       -1.4458780     2.2938080    -1.0816330
  H       -2.6884880    -1.9242290     1.2030750
  H       -3.7690390     1.4656370    -1.2045950
  H        2.9441838     2.0524977     0.8331890
  H        0.8089320    -1.3225020    -0.7243660
  H       -5.3342430    -0.4266360    -0.9733710
  H       -4.8571770    -1.8911150    -0.1016080
  H       -5.3999470    -0.4674270     0.7922980
  H        5.0892700     0.8861500     0.4875790
  H        2.9428240    -2.5277610    -1.0100830
  H        5.1022700    -1.4382830    -0.4191710
units angstrom
no_reorient  #important for SAPT in psi4, default
symmetry c1  #important for SAPT in psi4, default
}

set PROPERTIES_ORIGIN ["COM"]
properties('MP2/aug-cc-pvtz', properties = ['dipole'])
--------------------------------------------------------------------------

    Molecular point group: c1
  Charge       = 0
  Multiplicity = 1
  Basis Set: AUG-CC-PVTZ
    Blend: AUG-CC-PVTZ
  Basis Set: (AUG-CC-PVTZ AUX)
    Blend: AUG-CC-PVTZ-JKFIT

    Orbital Energies [Eh]
    ---------------------

    Doubly Occupied:

       1A    -15.577333     2A    -11.282412     3A    -11.277392
       4A    -11.237675     5A    -11.237085     6A    -11.236229
       7A    -11.234860     8A    -11.234247     9A    -11.232615
      10A    -11.230047    11A    -11.226215    12A    -11.225892
      13A    -11.224288    14A    -11.223169    15A     -1.258230
      16A     -1.151901    17A     -1.128231    18A     -1.040759
      19A     -1.015996    20A     -1.011023    21A     -0.989592
      22A     -0.921436    23A     -0.843087    24A     -0.829793
      25A     -0.817427    26A     -0.785207    27A     -0.713555
      28A     -0.704310    29A     -0.669669    30A     -0.640528
      31A     -0.635397    32A     -0.619109    33A     -0.597853
      34A     -0.587909    35A     -0.585880    36A     -0.582755
      37A     -0.573339    38A     -0.545645    39A     -0.530591
      40A     -0.513330    41A     -0.501708    42A     -0.494775
      43A     -0.490010    44A     -0.486010    45A     -0.441841
      46A     -0.340255    47A     -0.335644    48A     -0.330887
      49A     -0.275726

  @DF-RHF Final Energy:  -554.49100517924398

   => Energetics <=

    Nuclear Repulsion Energy =            787.4431226443629157
    One-Electron Energy =               -2312.5305192200225974
    Two-Electron Energy =                 970.5963913964155836
    Total Energy =                       -554.4910051792439845
  Basis Set: (AUG-CC-PVTZ AUX)
    Blend: AUG-CC-PVTZ-RI
    Molecular point group: c1

    Geometry (in Angstrom), charge = 0, multiplicity = 1:

       Center              X                  Y                   Z               Mass
    ------------   -----------------  -----------------  -----------------  -----------------
         N            0.513446563989     1.179065761780     0.291977818211    14.003074004430
         C           -0.783100436011     0.657614761780     0.151465818211    12.000000000000
         C            1.696516563989     0.444407761780     0.083627818211    12.000000000000
         C           -3.438793436011    -0.310396238220    -0.024343181789    12.000000000000
         C           -1.152918436011    -0.532319238220     0.798723818211    12.000000000000
         C           -1.755612436011     1.362626761780    -0.570597181789    12.000000000000
         C           -2.457778436011    -1.007616238220     0.694620818211    12.000000000000
         C           -3.065183436011     0.888894761780    -0.641400181789    12.000000000000
         C            2.916464563989     1.054171761780     0.418455818211    12.000000000000
         C            1.705467563989    -0.859714238220    -0.433793181789    12.000000000000
         C           -4.858998436011    -0.809511238220    -0.083565181789    12.000000000000
         C            4.120574563989     0.382603761780     0.222293818211    12.000000000000
         C            2.917024563989    -1.530129238220    -0.608156181789    12.000000000000
         C            4.129306563989    -0.920587238220    -0.281469181789    12.000000000000
         H            0.593689563989     2.162032761780     0.052889818211     1.007825032230
         H           -0.419126436011    -1.066982238220     1.396379818211     1.007825032230
         H           -1.480371436011     2.282168761780    -1.085572181789     1.007825032230
         H           -2.722981436011    -1.935868238220     1.199135818211     1.007825032230
         H           -3.803532436011     1.453997761780    -1.208534181789     1.007825032230
         H            2.909690363989     2.040858461780     0.829249818211     1.007825032230
         H            0.774438563989    -1.334141238220    -0.728305181789     1.007825032230
         H           -5.368736436011    -0.438275238220    -0.977310181789     1.007825032230
         H           -4.891670436011    -1.902754238220    -0.105547181789     1.007825032230
         H           -5.434440436011    -0.479066238220     0.788358818211     1.007825032230
         H            5.054776563989     0.874510761780     0.483639818211     1.007825032230
         H            2.908330563989    -2.539400238220    -1.014022181789     1.007825032230
         H            5.067776563989    -1.449922238220    -0.423110181789     1.007825032230

  Basis Set: AUG-CC-PVTZ
    Blend: AUG-CC-PVTZ
  Basis Set: (AUG-CC-PVTZ AUX)
    Blend: AUG-CC-PVTZ-JKFIT
	 Reference Energy          =    -554.4910051792439845 [Eh]
	 Singles Energy            =      -0.0000000000000000 [Eh]
	 Same-Spin Energy          =      -0.6238763744562863 [Eh]
	 Opposite-Spin Energy      =      -1.9525295313666959 [Eh]
	 Correlation Energy        =      -2.5764059058229822 [Eh]
	 Total Energy              =    -557.0674110850669649 [Eh]

	 ================> DF-SCS-MP2 Energies <==================
	-----------------------------------------------------------
	 SCS Same-Spin Scale       =       0.3333333333333333 [-]
	 SCS Opposite-Spin Scale   =       1.2000000000000000 [-]
	 SCS Same-Spin Energy      =      -0.2079587914854288 [Eh]
	 SCS Opposite-Spin Energy  =      -2.3430354376400349 [Eh]
	 SCS Correlation Energy    =      -2.5509942291254637 [Eh]
	 SCS Total Energy          =    -557.0419994083694064 [Eh]
	-----------------------------------------------------------

  Dipole Moment: [D]
     X:    -0.6350      Y:     0.5844      Z:    -0.3387     Total:     0.9271

*** Psi4 exiting successfully. Buy a developer a beer!
