                               Psi4 1.4a3.dev225

  ==> Input File <==

--------------------------------------------------------------------------
#psi4
#
memory 32 gb

molecule  {
0 1
  N        0.5479400     1.1907050     0.2959170
  C       -0.7486070     0.6692540     0.1554050
  C        1.7310100     0.4560470     0.0875670
  C       -3.4081106    -0.2859217    -0.0430331
  C       -1.1184250    -0.5206800     0.8026630
  C       -1.7211190     1.3742660    -0.5666580
  C       -2.4232850    -0.9959770     0.6985600
  C       -3.0306900     0.9005340    -0.6374610
  C        2.9509580     1.0658110     0.4223950
  C        1.7399610    -0.8480750    -0.4298540
  C       -4.8245050    -0.7978720    -0.0796260
  C        4.1550680     0.3942430     0.2262330
  C        2.9515180    -1.5184900    -0.6042170
  C        4.1638000    -0.9089480    -0.2775300
  H        0.6281830     2.1736720     0.0568290
  H       -0.3846330    -1.0553430     1.4003190
  H       -1.4458780     2.2938080    -1.0816330
  H       -2.6884880    -1.9242290     1.2030750
  H       -3.7690390     1.4656370    -1.2045950
  H        2.9440570     2.0709610     0.8408760
  H        0.8089320    -1.3225020    -0.7243660
  H       -5.3342430    -0.4266360    -0.9733710
  H       -4.8571770    -1.8911150    -0.1016080
  H       -5.3999470    -0.4674270     0.7922980
  H        5.0892700     0.8861500     0.4875790
  H        2.9428240    -2.5277610    -1.0100830
  H        5.1022700    -1.4382830    -0.4191710
units angstrom
no_reorient  #important for SAPT in psi4, default
symmetry c1  #important for SAPT in psi4, default
}

set PROPERTIES_ORIGIN ["COM"]
properties('MP2/aug-cc-pvtz', properties = ['dipole'])
--------------------------------------------------------------------------

    Molecular point group: c1
  Charge       = 0
  Multiplicity = 1
  Basis Set: AUG-CC-PVTZ
    Blend: AUG-CC-PVTZ
  Basis Set: (AUG-CC-PVTZ AUX)
    Blend: AUG-CC-PVTZ-JKFIT

    Orbital Energies [Eh]
    ---------------------

    Doubly Occupied:

       1A    -15.577411     2A    -11.282710     3A    -11.277576
       4A    -11.237975     5A    -11.237287     6A    -11.237138
       7A    -11.235554     8A    -11.232817     9A    -11.231628
      10A    -11.230556    11A    -11.228696    12A    -11.226219
      13A    -11.224553    14A    -11.223163    15A     -1.258295
      16A     -1.151939    17A     -1.128330    18A     -1.040775
      19A     -1.015896    20A     -1.010969    21A     -0.989462
      22A     -0.921316    23A     -0.843315    24A     -0.828658
      25A     -0.817983    26A     -0.784652    27A     -0.713397
      28A     -0.703768    29A     -0.668971    30A     -0.640104
      31A     -0.635371    32A     -0.619230    33A     -0.597689
      34A     -0.588070    35A     -0.585334    36A     -0.581853
      37A     -0.573171    38A     -0.546052    39A     -0.530470
      40A     -0.512707    41A     -0.502538    42A     -0.495718
      43A     -0.489637    44A     -0.484150    45A     -0.441938
      46A     -0.340872    47A     -0.336173    48A     -0.330135
      49A     -0.276030

  @DF-RHF Final Energy:  -554.49017333243637

   => Energetics <=

    Nuclear Repulsion Energy =            787.3194570348799743
    One-Electron Energy =               -2312.2827577972466315
    Two-Electron Energy =                 970.4731274299301731
    Total Energy =                       -554.4901733324363704
  Basis Set: (AUG-CC-PVTZ AUX)
    Blend: AUG-CC-PVTZ-RI
    Molecular point group: c1

    Geometry (in Angstrom), charge = 0, multiplicity = 1:

       Center              X                  Y                   Z               Mass
    ------------   -----------------  -----------------  -----------------  -----------------
         N            0.513696994302     1.178122960846     0.293418534401    14.003074004430
         C           -0.782850005698     0.656671960846     0.152906534401    12.000000000000
         C            1.696766994302     0.443464960846     0.085068534401    12.000000000000
         C           -3.442353605698    -0.298503739154    -0.045531565599    12.000000000000
         C           -1.152668005698    -0.533262039154     0.800164534401    12.000000000000
         C           -1.755362005698     1.361683960846    -0.569156465599    12.000000000000
         C           -2.457528005698    -1.008559039154     0.696061534401    12.000000000000
         C           -3.064933005698     0.887951960846    -0.639959465599    12.000000000000
         C            2.916714994302     1.053228960846     0.419896534401    12.000000000000
         C            1.705717994302    -0.860657039154    -0.432352465599    12.000000000000
         C           -4.858748005698    -0.810454039154    -0.082124465599    12.000000000000
         C            4.120824994302     0.381660960846     0.223734534401    12.000000000000
         C            2.917274994302    -1.531072039154    -0.606715465599    12.000000000000
         C            4.129556994302    -0.921530039154    -0.280028465599    12.000000000000
         H            0.593939994302     2.161089960846     0.054330534401     1.007825032230
         H           -0.418876005698    -1.067925039154     1.397820534401     1.007825032230
         H           -1.480121005698     2.281225960846    -1.084131465599     1.007825032230
         H           -2.722731005698    -1.936811039154     1.200576534401     1.007825032230
         H           -3.803282005698     1.453054960846    -1.207093465599     1.007825032230
         H            2.909813994302     2.058378960846     0.838377534401     1.007825032230
         H            0.774688994302    -1.335084039154    -0.726864465599     1.007825032230
         H           -5.368486005698    -0.439218039154    -0.975869465599     1.007825032230
         H           -4.891420005698    -1.903697039154    -0.104106465599     1.007825032230
         H           -5.434190005698    -0.480009039154     0.789799534401     1.007825032230
         H            5.055026994302     0.873567960846     0.485080534401     1.007825032230
         H            2.908580994302    -2.540343039154    -1.012581465599     1.007825032230
         H            5.068026994302    -1.450865039154    -0.421669465599     1.007825032230

  Basis Set: AUG-CC-PVTZ
    Blend: AUG-CC-PVTZ
  Basis Set: (AUG-CC-PVTZ AUX)
    Blend: AUG-CC-PVTZ-JKFIT
	 Reference Energy          =    -554.4901733324363704 [Eh]
	 Singles Energy            =      -0.0000000000000000 [Eh]
	 Same-Spin Energy          =      -0.6238513776120107 [Eh]
	 Opposite-Spin Energy      =      -1.9526650951310998 [Eh]
	 Correlation Energy        =      -2.5765164727431102 [Eh]
	 Total Energy              =    -557.0666898051795215 [Eh]

	 ================> DF-SCS-MP2 Energies <==================
	-----------------------------------------------------------
	 SCS Same-Spin Scale       =       0.3333333333333333 [-]
	 SCS Opposite-Spin Scale   =       1.2000000000000000 [-]
	 SCS Same-Spin Energy      =      -0.2079504592040036 [Eh]
	 SCS Opposite-Spin Energy  =      -2.3431981141573197 [Eh]
	 SCS Correlation Energy    =      -2.5511485733613233 [Eh]
	 SCS Total Energy          =    -557.0413219057976448 [Eh]
	-----------------------------------------------------------

  Dipole Moment: [D]
     X:    -0.6201      Y:     0.5683      Z:    -0.3265     Total:     0.9023

*** Psi4 exiting successfully. Buy a developer a beer!
