                               Psi4 1.4a3.dev225

  ==> Input File <==

--------------------------------------------------------------------------
#psi4
#
memory 32 gb

molecule  {
0 1
  N        0.5479400     1.1907050     0.2959170
  C       -0.7486070     0.6692540     0.1554050
  C        1.7310100     0.4560470     0.0875670
  C       -3.4043000    -0.2987570    -0.0204040
  C       -1.1184250    -0.5206800     0.8026630
  C       -1.7211190     1.3742660    -0.5666580
  C       -2.4232850    -0.9959770     0.6985600
  C       -3.0306900     0.9005340    -0.6374610
  C        2.9509580     1.0658110     0.4223950
  C        1.7399610    -0.8480750    -0.4298540
  C       -4.8245050    -0.7978720    -0.0796260
  C        4.1550680     0.3942430     0.2262330
  C        2.9515180    -1.5184900    -0.6042170
  C        4.1638000    -0.9089480    -0.2775300
  H        0.6281830     2.1736720     0.0568290
  H       -0.3846330    -1.0553430     1.4003190
  H       -1.4458780     2.2938080    -1.0816330
  H       -2.6884880    -1.9242290     1.2030750
  H       -3.7690390     1.4656370    -1.2045950
  H        2.9440570     2.0709610     0.8408760
  H        0.8089320    -1.3225020    -0.7243660
  H       -5.3342430    -0.4266360    -0.9733710
  H       -4.8565797    -1.8711280    -0.1012061
  H       -5.3999470    -0.4674270     0.7922980
  H        5.0892700     0.8861500     0.4875790
  H        2.9428240    -2.5277610    -1.0100830
  H        5.1022700    -1.4382830    -0.4191710
units angstrom
no_reorient  #important for SAPT in psi4, default
symmetry c1  #important for SAPT in psi4, default
}

set PROPERTIES_ORIGIN ["COM"]
properties('MP2/aug-cc-pvtz', properties = ['dipole'])
--------------------------------------------------------------------------

    Molecular point group: c1
  Charge       = 0
  Multiplicity = 1
  Basis Set: AUG-CC-PVTZ
    Blend: AUG-CC-PVTZ
  Basis Set: (AUG-CC-PVTZ AUX)
    Blend: AUG-CC-PVTZ-JKFIT

    Orbital Energies [Eh]
    ---------------------

    Doubly Occupied:

       1A    -15.577263     2A    -11.282599     3A    -11.277311
       4A    -11.237856     5A    -11.237151     6A    -11.236082
       7A    -11.234748     8A    -11.234170     9A    -11.232536
      10A    -11.230009    11A    -11.228568    12A    -11.226024
      13A    -11.224419    14A    -11.220723    15A     -1.258164
      16A     -1.151856    17A     -1.128253    18A     -1.041046
      19A     -1.015843    20A     -1.010691    21A     -0.989788
      22A     -0.922515    23A     -0.842726    24A     -0.829782
      25A     -0.816867    26A     -0.785322    27A     -0.713226
      28A     -0.703973    29A     -0.668702    30A     -0.640363
      31A     -0.635508    32A     -0.619081    33A     -0.597628
      34A     -0.587743    35A     -0.585184    36A     -0.582319
      37A     -0.574464    38A     -0.546365    39A     -0.531670
      40A     -0.513258    41A     -0.501211    42A     -0.495111
      43A     -0.489684    44A     -0.485939    45A     -0.441873
      46A     -0.340246    47A     -0.335687    48A     -0.330931
      49A     -0.275729

  @DF-RHF Final Energy:  -554.49089701387527

   => Energetics <=

    Nuclear Repulsion Energy =            787.4253588879233803
    One-Electron Energy =               -2312.4961082930653902
    Two-Electron Energy =                 970.5798523912668543
    Total Energy =                       -554.4908970138752693
  Basis Set: (AUG-CC-PVTZ AUX)
    Blend: AUG-CC-PVTZ-RI
    Molecular point group: c1

    Geometry (in Angstrom), charge = 0, multiplicity = 1:

       Center              X                  Y                   Z               Mass
    ------------   -----------------  -----------------  -----------------  -----------------
         N            0.513443974316     1.178854127924     0.291933296189    14.003074004430
         C           -0.783103025684     0.657403127924     0.151421296189    12.000000000000
         C            1.696513974316     0.444196127924     0.083583296189    12.000000000000
         C           -3.438796025684    -0.310607872076    -0.024387703811    12.000000000000
         C           -1.152921025684    -0.532530872076     0.798679296189    12.000000000000
         C           -1.755615025684     1.362415127924    -0.570641703811    12.000000000000
         C           -2.457781025684    -1.007827872076     0.694576296189    12.000000000000
         C           -3.065186025684     0.888683127924    -0.641444703811    12.000000000000
         C            2.916461974316     1.053960127924     0.418411296189    12.000000000000
         C            1.705464974316    -0.859925872076    -0.433837703811    12.000000000000
         C           -4.859001025684    -0.809722872076    -0.083609703811    12.000000000000
         C            4.120571974316     0.382392127924     0.222249296189    12.000000000000
         C            2.917021974316    -1.530340872076    -0.608200703811    12.000000000000
         C            4.129303974316    -0.920798872076    -0.281513703811    12.000000000000
         H            0.593686974316     2.161821127924     0.052845296189     1.007825032230
         H           -0.419129025684    -1.067193872076     1.396335296189     1.007825032230
         H           -1.480374025684     2.281957127924    -1.085616703811     1.007825032230
         H           -2.722984025684    -1.936079872076     1.199091296189     1.007825032230
         H           -3.803535025684     1.453786127924    -1.208578703811     1.007825032230
         H            2.909560974316     2.059110127924     0.836892296189     1.007825032230
         H            0.774435974316    -1.334352872076    -0.728349703811     1.007825032230
         H           -5.368739025684    -0.438486872076    -0.977354703811     1.007825032230
         H           -4.891075725684    -1.882978872076    -0.105189803811     1.007825032230
         H           -5.434443025684    -0.479277872076     0.788314296189     1.007825032230
         H            5.054773974316     0.874299127924     0.483595296189     1.007825032230
         H            2.908327974316    -2.539611872076    -1.014066703811     1.007825032230
         H            5.067773974316    -1.450133872076    -0.423154703811     1.007825032230

  Basis Set: AUG-CC-PVTZ
    Blend: AUG-CC-PVTZ
  Basis Set: (AUG-CC-PVTZ AUX)
    Blend: AUG-CC-PVTZ-JKFIT
	 Reference Energy          =    -554.4908970138752693 [Eh]
	 Singles Energy            =      -0.0000000000000000 [Eh]
	 Same-Spin Energy          =      -0.6239200034418382 [Eh]
	 Opposite-Spin Energy      =      -1.9525427561323543 [Eh]
	 Correlation Energy        =      -2.5764627595741922 [Eh]
	 Total Energy              =    -557.0673597734494251 [Eh]

	 ================> DF-SCS-MP2 Energies <==================
	-----------------------------------------------------------
	 SCS Same-Spin Scale       =       0.3333333333333333 [-]
	 SCS Opposite-Spin Scale   =       1.2000000000000000 [-]
	 SCS Same-Spin Energy      =      -0.2079733344806127 [Eh]
	 SCS Opposite-Spin Energy  =      -2.3430513073588251 [Eh]
	 SCS Correlation Energy    =      -2.5510246418394376 [Eh]
	 SCS Total Energy          =    -557.0419216557147593 [Eh]
	-----------------------------------------------------------

  Dipole Moment: [D]
     X:    -0.6413      Y:     0.5680      Z:    -0.3412     Total:     0.9221

*** Psi4 exiting successfully. Buy a developer a beer!
