                               Psi4 1.4a3.dev225

  ==> Input File <==

--------------------------------------------------------------------------
#psi4
#
memory 32 gb

molecule  {
0 1
  N        0.5479400     1.1907050     0.2959170
  C       -0.7486070     0.6692540     0.1554050
  C        1.7310100     0.4560470     0.0875670
  C       -3.4043000    -0.2987570    -0.0204040
  C       -1.1184250    -0.5206800     0.8026630
  C       -1.7211190     1.3742660    -0.5666580
  C       -2.4232850    -0.9959770     0.6985600
  C       -3.0306900     0.9005340    -0.6374610
  C        2.9509580     1.0658110     0.4223950
  C        1.7399610    -0.8480750    -0.4298540
  C       -4.8245050    -0.7978720    -0.0796260
  C        4.1550680     0.3942430     0.2262330
  C        2.9515180    -1.5184900    -0.6042170
  C        4.1638000    -0.9089480    -0.2775300
  H        0.6281830     2.1736720     0.0568290
  H       -0.3846330    -1.0553430     1.4003190
  H       -1.4458780     2.2938080    -1.0816330
  H       -2.6884880    -1.9242290     1.2030750
  H       -3.7690390     1.4656370    -1.2045950
  H        2.9440570     2.0709610     0.8408760
  H        0.8089320    -1.3225020    -0.7243660
  H       -5.3342430    -0.4266360    -0.9733710
  H       -4.8631502    -2.0909854    -0.1056268
  H       -5.3999470    -0.4674270     0.7922980
  H        5.0892700     0.8861500     0.4875790
  H        2.9428240    -2.5277610    -1.0100830
  H        5.1022700    -1.4382830    -0.4191710
units angstrom
no_reorient  #important for SAPT in psi4, default
symmetry c1  #important for SAPT in psi4, default
}

set PROPERTIES_ORIGIN ["COM"]
properties('MP2/aug-cc-pvtz', properties = ['dipole'])
--------------------------------------------------------------------------

    Molecular point group: c1
  Charge       = 0
  Multiplicity = 1
  Basis Set: AUG-CC-PVTZ
    Blend: AUG-CC-PVTZ
  Basis Set: (AUG-CC-PVTZ AUX)
    Blend: AUG-CC-PVTZ-JKFIT

    Orbital Energies [Eh]
    ---------------------

    Doubly Occupied:

       1A    -15.578013     2A    -11.283050     3A    -11.278465
       4A    -11.246095     5A    -11.238210     6A    -11.238153
       7A    -11.237497     8A    -11.236628     9A    -11.235124
      10A    -11.233612    11A    -11.230652    12A    -11.228990
      13A    -11.226456    14A    -11.224794    15A     -1.258896
      16A     -1.152577    17A     -1.128739    18A     -1.039373
      19A     -1.016666    20A     -1.011210    21A     -0.988077
      22A     -0.914096    23A     -0.843189    24A     -0.829500
      25A     -0.816199    26A     -0.785048    27A     -0.713645
      28A     -0.704694    29A     -0.668281    30A     -0.641239
      31A     -0.633426    32A     -0.619391    33A     -0.597838
      34A     -0.588650    35A     -0.585710    36A     -0.582899
      37A     -0.569020    38A     -0.541549    39A     -0.515795
      40A     -0.512941    41A     -0.502340    42A     -0.490451
      43A     -0.489210    44A     -0.483202    45A     -0.441764
      46A     -0.341016    47A     -0.336232    48A     -0.331331
      49A     -0.276383

  @DF-RHF Final Energy:  -554.47080796275486

   => Energetics <=

    Nuclear Repulsion Energy =            786.5709251790746066
    One-Electron Energy =               -2310.7508299238816107
    Two-Electron Energy =                 969.7090967820522565
    Total Energy =                       -554.4708079627548614
  Basis Set: (AUG-CC-PVTZ AUX)
    Blend: AUG-CC-PVTZ-RI
    Molecular point group: c1

    Geometry (in Angstrom), charge = 0, multiplicity = 1:

       Center              X                  Y                   Z               Mass
    ------------   -----------------  -----------------  -----------------  -----------------
         N            0.513480138930     1.180064242524     0.291957628113    14.003074004430
         C           -0.783066861070     0.658613242524     0.151445628113    12.000000000000
         C            1.696550138930     0.445406242524     0.083607628113    12.000000000000
         C           -3.438759861070    -0.309397757476    -0.024363371887    12.000000000000
         C           -1.152884861070    -0.531320757476     0.798703628113    12.000000000000
         C           -1.755578861070     1.363625242524    -0.570617371887    12.000000000000
         C           -2.457744861070    -1.006617757476     0.694600628113    12.000000000000
         C           -3.065149861070     0.889893242524    -0.641420371887    12.000000000000
         C            2.916498138930     1.055170242524     0.418435628113    12.000000000000
         C            1.705501138930    -0.858715757476    -0.433813371887    12.000000000000
         C           -4.858964861070    -0.808512757476    -0.083585371887    12.000000000000
         C            4.120608138930     0.383602242524     0.222273628113    12.000000000000
         C            2.917058138930    -1.529130757476    -0.608176371887    12.000000000000
         C            4.129340138930    -0.919588757476    -0.281489371887    12.000000000000
         H            0.593723138930     2.163031242524     0.052869628113     1.007825032230
         H           -0.419092861070    -1.065983757476     1.396359628113     1.007825032230
         H           -1.480337861070     2.283167242524    -1.085592371887     1.007825032230
         H           -2.722947861070    -1.934869757476     1.199115628113     1.007825032230
         H           -3.803498861070     1.454996242524    -1.208554371887     1.007825032230
         H            2.909597138930     2.060320242524     0.836916628113     1.007825032230
         H            0.774472138930    -1.333142757476    -0.728325371887     1.007825032230
         H           -5.368702861070    -0.437276757476    -0.977330371887     1.007825032230
         H           -4.897610061070    -2.101626157476    -0.109586171887     1.007825032230
         H           -5.434406861070    -0.478067757476     0.788338628113     1.007825032230
         H            5.054810138930     0.875509242524     0.483619628113     1.007825032230
         H            2.908364138930    -2.538401757476    -1.014042371887     1.007825032230
         H            5.067810138930    -1.448923757476    -0.423130371887     1.007825032230

  Basis Set: AUG-CC-PVTZ
    Blend: AUG-CC-PVTZ
  Basis Set: (AUG-CC-PVTZ AUX)
    Blend: AUG-CC-PVTZ-JKFIT
	 Reference Energy          =    -554.4708079627548614 [Eh]
	 Singles Energy            =      -0.0000000000000000 [Eh]
	 Same-Spin Energy          =      -0.6239211860345146 [Eh]
	 Opposite-Spin Energy      =      -1.9542717190544789 [Eh]
	 Correlation Energy        =      -2.5781929050889936 [Eh]
	 Total Energy              =    -557.0490008678438016 [Eh]

	 ================> DF-SCS-MP2 Energies <==================
	-----------------------------------------------------------
	 SCS Same-Spin Scale       =       0.3333333333333333 [-]
	 SCS Opposite-Spin Scale   =       1.2000000000000000 [-]
	 SCS Same-Spin Energy      =      -0.2079737286781715 [Eh]
	 SCS Opposite-Spin Energy  =      -2.3451260628653747 [Eh]
	 SCS Correlation Energy    =      -2.5530997915435463 [Eh]
	 SCS Total Energy          =    -557.0239077542984205 [Eh]
	-----------------------------------------------------------

  Dipole Moment: [D]
     X:    -0.5370      Y:     0.7099      Z:    -0.3365     Total:     0.9516

*** Psi4 exiting successfully. Buy a developer a beer!
