                               Psi4 1.4a3.dev225

  ==> Input File <==

--------------------------------------------------------------------------
#psi4
#
memory 32 gb

molecule  {
0 1
  N        0.5479400     1.1907050     0.2959170
  C       -0.7486070     0.6692540     0.1554050
  C        1.7310100     0.4560470     0.0875670
  C       -3.4043000    -0.2987570    -0.0204040
  C       -1.1184250    -0.5206800     0.8026630
  C       -1.7211190     1.3742660    -0.5666580
  C       -2.4232850    -0.9959770     0.6985600
  C       -3.0306900     0.9005340    -0.6374610
  C        2.9509580     1.0658110     0.4223950
  C        1.7399610    -0.8480750    -0.4298540
  C       -4.8245050    -0.7978720    -0.0796260
  C        4.1118359     0.4183548     0.2332760
  C        2.9515180    -1.5184900    -0.6042170
  C        4.1638000    -0.9089480    -0.2775300
  H        0.6281830     2.1736720     0.0568290
  H       -0.3846330    -1.0553430     1.4003190
  H       -1.4458780     2.2938080    -1.0816330
  H       -2.6884880    -1.9242290     1.2030750
  H       -3.7690390     1.4656370    -1.2045950
  H        2.9440570     2.0709610     0.8408760
  H        0.8089320    -1.3225020    -0.7243660
  H       -5.3342430    -0.4266360    -0.9733710
  H       -4.8571770    -1.8911150    -0.1016080
  H       -5.3999470    -0.4674270     0.7922980
  H        5.0892700     0.8861500     0.4875790
  H        2.9428240    -2.5277610    -1.0100830
  H        5.1022700    -1.4382830    -0.4191710
units angstrom
no_reorient  #important for SAPT in psi4, default
symmetry c1  #important for SAPT in psi4, default
}

set PROPERTIES_ORIGIN ["COM"]
properties('MP2/aug-cc-pvtz', properties = ['dipole'])
--------------------------------------------------------------------------

    Molecular point group: c1
  Charge       = 0
  Multiplicity = 1
  Basis Set: AUG-CC-PVTZ
    Blend: AUG-CC-PVTZ
  Basis Set: (AUG-CC-PVTZ AUX)
    Blend: AUG-CC-PVTZ-JKFIT

    Orbital Energies [Eh]
    ---------------------

    Doubly Occupied:

       1A    -15.578094     2A    -11.283197     3A    -11.277505
       4A    -11.236982     5A    -11.236373     6A    -11.236360
       7A    -11.234945     8A    -11.234326     9A    -11.232821
      10A    -11.230181    11A    -11.225766    12A    -11.224256
      13A    -11.224205    14A    -11.223261    15A     -1.258828
      16A     -1.153227    17A     -1.129562    18A     -1.040293
      19A     -1.018725    20A     -1.013431    21A     -0.987120
      22A     -0.921993    23A     -0.841761    24A     -0.829535
      25A     -0.816739    26A     -0.785159    27A     -0.712684
      28A     -0.704494    29A     -0.668962    30A     -0.640693
      31A     -0.634253    32A     -0.620594    33A     -0.592962
      34A     -0.589001    35A     -0.585526    36A     -0.582462
      37A     -0.573434    38A     -0.546558    39A     -0.531313
      40A     -0.517846    41A     -0.501159    42A     -0.495732
      43A     -0.486655    44A     -0.481849    45A     -0.441586
      46A     -0.344317    47A     -0.338193    48A     -0.328918
      49A     -0.274630

  @DF-RHF Final Energy:  -554.48791575324890

   => Energetics <=

    Nuclear Repulsion Energy =            787.9853516571247383
    One-Electron Energy =               -2313.6095989031082354
    Two-Electron Energy =                 971.1363314927345982
    Total Energy =                       -554.4879157532488989
  Basis Set: (AUG-CC-PVTZ AUX)
    Blend: AUG-CC-PVTZ-RI
    Molecular point group: c1

    Geometry (in Angstrom), charge = 0, multiplicity = 1:

       Center              X                  Y                   Z               Mass
    ------------   -----------------  -----------------  -----------------  -----------------
         N            0.516280531170     1.177383941441     0.291473936547    14.003074004430
         C           -0.780266468830     0.655932941441     0.150961936547    12.000000000000
         C            1.699350531170     0.442725941441     0.083123936547    12.000000000000
         C           -3.435959468830    -0.312078058559    -0.024847063453    12.000000000000
         C           -1.150084468830    -0.534001058559     0.798219936547    12.000000000000
         C           -1.752778468830     1.360944941441    -0.571101063453    12.000000000000
         C           -2.454944468830    -1.009298058559     0.694116936547    12.000000000000
         C           -3.062349468830     0.887212941441    -0.641904063453    12.000000000000
         C            2.919298531170     1.052489941441     0.417951936547    12.000000000000
         C            1.708301531170    -0.861396058559    -0.434297063453    12.000000000000
         C           -4.856164468830    -0.811193058559    -0.084069063453    12.000000000000
         C            4.080176431170     0.405033741441     0.228832936547    12.000000000000
         C            2.919858531170    -1.531811058559    -0.608660063453    12.000000000000
         C            4.132140531170    -0.922269058559    -0.281973063453    12.000000000000
         H            0.596523531170     2.160350941441     0.052385936547     1.007825032230
         H           -0.416292468830    -1.068664058559     1.395875936547     1.007825032230
         H           -1.477537468830     2.280486941441    -1.086076063453     1.007825032230
         H           -2.720147468830    -1.937550058559     1.198631936547     1.007825032230
         H           -3.800698468830     1.452315941441    -1.209038063453     1.007825032230
         H            2.912397531170     2.057639941441     0.836432936547     1.007825032230
         H            0.777272531170    -1.335823058559    -0.728809063453     1.007825032230
         H           -5.365902468830    -0.439957058559    -0.977814063453     1.007825032230
         H           -4.888836468830    -1.904436058559    -0.106051063453     1.007825032230
         H           -5.431606468830    -0.480748058559     0.787854936547     1.007825032230
         H            5.057610531170     0.872828941441     0.483135936547     1.007825032230
         H            2.911164531170    -2.541082058559    -1.014526063453     1.007825032230
         H            5.070610531170    -1.451604058559    -0.423614063453     1.007825032230

  Basis Set: AUG-CC-PVTZ
    Blend: AUG-CC-PVTZ
  Basis Set: (AUG-CC-PVTZ AUX)
    Blend: AUG-CC-PVTZ-JKFIT
	 Reference Energy          =    -554.4879157532488989 [Eh]
	 Singles Energy            =      -0.0000000000000000 [Eh]
	 Same-Spin Energy          =      -0.6238356472174756 [Eh]
	 Opposite-Spin Energy      =      -1.9526147825030129 [Eh]
	 Correlation Energy        =      -2.5764504297204884 [Eh]
	 Total Energy              =    -557.0643661829693656 [Eh]

	 ================> DF-SCS-MP2 Energies <==================
	-----------------------------------------------------------
	 SCS Same-Spin Scale       =       0.3333333333333333 [-]
	 SCS Opposite-Spin Scale   =       1.2000000000000000 [-]
	 SCS Same-Spin Energy      =      -0.2079452157391585 [Eh]
	 SCS Opposite-Spin Energy  =      -2.3431377390036152 [Eh]
	 SCS Correlation Energy    =      -2.5510829547427738 [Eh]
	 SCS Total Energy          =    -557.0389987079917091 [Eh]
	-----------------------------------------------------------

  Dipole Moment: [D]
     X:    -0.6603      Y:     0.5931      Z:    -0.3349     Total:     0.9486

*** Psi4 exiting successfully. Buy a developer a beer!
