                               Psi4 1.4a3.dev225

  ==> Input File <==

--------------------------------------------------------------------------
#psi4
#
memory 32 gb

molecule  {
0 1
  N        0.5479400     1.1907050     0.2959170
  C       -0.7486070     0.6692540     0.1554050
  C        1.7310100     0.4560470     0.0875670
  C       -3.4043000    -0.2987570    -0.0204040
  C       -1.1184250    -0.5206800     0.8026630
  C       -1.6864236     1.3491139    -0.5408976
  C       -2.4232850    -0.9959770     0.6985600
  C       -3.0306900     0.9005340    -0.6374610
  C        2.9509580     1.0658110     0.4223950
  C        1.7399610    -0.8480750    -0.4298540
  C       -4.8245050    -0.7978720    -0.0796260
  C        4.1550680     0.3942430     0.2262330
  C        2.9515180    -1.5184900    -0.6042170
  C        4.1638000    -0.9089480    -0.2775300
  H        0.6281830     2.1736720     0.0568290
  H       -0.3846330    -1.0553430     1.4003190
  H       -1.4458780     2.2938080    -1.0816330
  H       -2.6884880    -1.9242290     1.2030750
  H       -3.7690390     1.4656370    -1.2045950
  H        2.9440570     2.0709610     0.8408760
  H        0.8089320    -1.3225020    -0.7243660
  H       -5.3342430    -0.4266360    -0.9733710
  H       -4.8571770    -1.8911150    -0.1016080
  H       -5.3999470    -0.4674270     0.7922980
  H        5.0892700     0.8861500     0.4875790
  H        2.9428240    -2.5277610    -1.0100830
  H        5.1022700    -1.4382830    -0.4191710
units angstrom
no_reorient  #important for SAPT in psi4, default
symmetry c1  #important for SAPT in psi4, default
}

set PROPERTIES_ORIGIN ["COM"]
properties('MP2/aug-cc-pvtz', properties = ['dipole'])
--------------------------------------------------------------------------

    Molecular point group: c1
  Charge       = 0
  Multiplicity = 1
  Basis Set: AUG-CC-PVTZ
    Blend: AUG-CC-PVTZ
  Basis Set: (AUG-CC-PVTZ AUX)
    Blend: AUG-CC-PVTZ-JKFIT

    Orbital Energies [Eh]
    ---------------------

    Doubly Occupied:

       1A    -15.575692     2A    -11.282173     3A    -11.271444
       4A    -11.237624     5A    -11.237552     6A    -11.236991
       7A    -11.236385     8A    -11.234623     9A    -11.231555
      10A    -11.231498    11A    -11.228150    12A    -11.225829
      13A    -11.224105    14A    -11.223597    15A     -1.258863
      16A     -1.153625    17A     -1.127977    18A     -1.044718
      19A     -1.014244    20A     -1.009399    21A     -0.988601
      22A     -0.923855    23A     -0.844880    24A     -0.829596
      25A     -0.815666    26A     -0.784771    27A     -0.713850
      28A     -0.703667    29A     -0.668242    30A     -0.639673
      31A     -0.633393    32A     -0.620278    33A     -0.598055
      34A     -0.589105    35A     -0.583596    36A     -0.579710
      37A     -0.573838    38A     -0.546361    39A     -0.532267
      40A     -0.513131    41A     -0.501091    42A     -0.493723
      43A     -0.490949    44A     -0.484947    45A     -0.441649
      46A     -0.338924    47A     -0.335071    48A     -0.332385
      49A     -0.278197

  @DF-RHF Final Energy:  -554.48821149281343

   => Energetics <=

    Nuclear Repulsion Energy =            788.1117548083021802
    One-Electron Energy =               -2313.8689040024310088
    Two-Electron Energy =                 971.2689377013155081
    Total Energy =                       -554.4882114928134342
  Basis Set: (AUG-CC-PVTZ AUX)
    Blend: AUG-CC-PVTZ-RI
    Molecular point group: c1

    Geometry (in Angstrom), charge = 0, multiplicity = 1:

       Center              X                  Y                   Z               Mass
    ------------   -----------------  -----------------  -----------------  -----------------
         N            0.511173455862     1.180612512193     0.290247268536    14.003074004430
         C           -0.785373544138     0.659161512193     0.149735268536    12.000000000000
         C            1.694243455862     0.445954512193     0.081897268536    12.000000000000
         C           -3.441066544138    -0.308849487807    -0.026073731464    12.000000000000
         C           -1.155191544138    -0.530772487807     0.796993268536    12.000000000000
         C           -1.723190144138     1.339021412193    -0.546567331464    12.000000000000
         C           -2.460051544138    -1.006069487807     0.692890268536    12.000000000000
         C           -3.067456544138     0.890441512193    -0.643130731464    12.000000000000
         C            2.914191455862     1.055718512193     0.416725268536    12.000000000000
         C            1.703194455862    -0.858167487807    -0.435523731464    12.000000000000
         C           -4.861271544138    -0.807964487807    -0.085295731464    12.000000000000
         C            4.118301455862     0.384150512193     0.220563268536    12.000000000000
         C            2.914751455862    -1.528582487807    -0.609886731464    12.000000000000
         C            4.127033455862    -0.919040487807    -0.283199731464    12.000000000000
         H            0.591416455862     2.163579512193     0.051159268536     1.007825032230
         H           -0.421399544138    -1.065435487807     1.394649268536     1.007825032230
         H           -1.482644544138     2.283715512193    -1.087302731464     1.007825032230
         H           -2.725254544138    -1.934321487807     1.197405268536     1.007825032230
         H           -3.805805544138     1.455544512193    -1.210264731464     1.007825032230
         H            2.907290455862     2.060868512193     0.835206268536     1.007825032230
         H            0.772165455862    -1.332594487807    -0.730035731464     1.007825032230
         H           -5.371009544138    -0.436728487807    -0.979040731464     1.007825032230
         H           -4.893943544138    -1.901207487807    -0.107277731464     1.007825032230
         H           -5.436713544138    -0.477519487807     0.786628268536     1.007825032230
         H            5.052503455862     0.876057512193     0.481909268536     1.007825032230
         H            2.906057455862    -2.537853487807    -1.015752731464     1.007825032230
         H            5.065503455862    -1.448375487807    -0.424840731464     1.007825032230

  Basis Set: AUG-CC-PVTZ
    Blend: AUG-CC-PVTZ
  Basis Set: (AUG-CC-PVTZ AUX)
    Blend: AUG-CC-PVTZ-JKFIT
	 Reference Energy          =    -554.4882114928134342 [Eh]
	 Singles Energy            =      -0.0000000000000000 [Eh]
	 Same-Spin Energy          =      -0.6237554312222822 [Eh]
	 Opposite-Spin Energy      =      -1.9525719368542913 [Eh]
	 Correlation Energy        =      -2.5763273680765737 [Eh]
	 Total Energy              =    -557.0645388608900248 [Eh]

	 ================> DF-SCS-MP2 Energies <==================
	-----------------------------------------------------------
	 SCS Same-Spin Scale       =       0.3333333333333333 [-]
	 SCS Opposite-Spin Scale   =       1.2000000000000000 [-]
	 SCS Same-Spin Energy      =      -0.2079184770740941 [Eh]
	 SCS Opposite-Spin Energy  =      -2.3430863242251494 [Eh]
	 SCS Correlation Energy    =      -2.5510048012992432 [Eh]
	 SCS Total Energy          =    -557.0392162941126344 [Eh]
	-----------------------------------------------------------

  Dipole Moment: [D]
     X:    -0.7182      Y:     0.5539      Z:    -0.3394     Total:     0.9684

*** Psi4 exiting successfully. Buy a developer a beer!
