                               Psi4 1.4a3.dev225

  ==> Input File <==

--------------------------------------------------------------------------
#psi4
#
memory 32 gb

molecule  {
0 1
  N        0.5479400     1.1907050     0.2959170
  C       -0.7486070     0.6692540     0.1554050
  C        1.7310100     0.4560470     0.0875670
  C       -3.4043000    -0.2987570    -0.0204040
  C       -1.1184250    -0.5206800     0.8026630
  C       -1.7349972     1.3843268    -0.5769622
  C       -2.4232850    -0.9959770     0.6985600
  C       -3.0306900     0.9005340    -0.6374610
  C        2.9509580     1.0658110     0.4223950
  C        1.7399610    -0.8480750    -0.4298540
  C       -4.8245050    -0.7978720    -0.0796260
  C        4.1550680     0.3942430     0.2262330
  C        2.9515180    -1.5184900    -0.6042170
  C        4.1638000    -0.9089480    -0.2775300
  H        0.6281830     2.1736720     0.0568290
  H       -0.3846330    -1.0553430     1.4003190
  H       -1.4458780     2.2938080    -1.0816330
  H       -2.6884880    -1.9242290     1.2030750
  H       -3.7690390     1.4656370    -1.2045950
  H        2.9440570     2.0709610     0.8408760
  H        0.8089320    -1.3225020    -0.7243660
  H       -5.3342430    -0.4266360    -0.9733710
  H       -4.8571770    -1.8911150    -0.1016080
  H       -5.3999470    -0.4674270     0.7922980
  H        5.0892700     0.8861500     0.4875790
  H        2.9428240    -2.5277610    -1.0100830
  H        5.1022700    -1.4382830    -0.4191710
units angstrom
no_reorient  #important for SAPT in psi4, default
symmetry c1  #important for SAPT in psi4, default
}

set PROPERTIES_ORIGIN ["COM"]
properties('MP2/aug-cc-pvtz', properties = ['dipole'])
--------------------------------------------------------------------------

    Molecular point group: c1
  Charge       = 0
  Multiplicity = 1
  Basis Set: AUG-CC-PVTZ
    Blend: AUG-CC-PVTZ
  Basis Set: (AUG-CC-PVTZ AUX)
    Blend: AUG-CC-PVTZ-JKFIT

    Orbital Energies [Eh]
    ---------------------

    Doubly Occupied:

       1A    -15.577931     2A    -11.282799     3A    -11.279523
       4A    -11.237975     5A    -11.237242     6A    -11.235846
       7A    -11.234444     8A    -11.233998     9A    -11.232811
      10A    -11.229448    11A    -11.228764    12A    -11.226136
      13A    -11.224571    14A    -11.223006    15A     -1.258012
      16A     -1.151298    17A     -1.128387    18A     -1.039309
      19A     -1.016827    20A     -1.011105    21A     -0.989813
      22A     -0.920461    23A     -0.842048    24A     -0.829735
      25A     -0.817266    26A     -0.785197    27A     -0.713022
      28A     -0.704077    29A     -0.668848    30A     -0.641767
      31A     -0.635257    32A     -0.618573    33A     -0.597538
      34A     -0.587200    35A     -0.586294    36A     -0.582499
      37A     -0.573092    38A     -0.545278    39A     -0.529982
      40A     -0.513452    41A     -0.502005    42A     -0.495047
      43A     -0.489791    44A     -0.484806    45A     -0.441904
      46A     -0.341415    47A     -0.336241    48A     -0.329840
      49A     -0.274785

  @DF-RHF Final Energy:  -554.49014807991432

   => Energetics <=

    Nuclear Repulsion Energy =            787.0403585054380073
    One-Electron Energy =               -2311.7276798897396475
    Two-Electron Energy =                 970.1971733043873201
    Total Energy =                       -554.4901480799143201
  Basis Set: (AUG-CC-PVTZ AUX)
    Blend: AUG-CC-PVTZ-RI
    Molecular point group: c1

    Geometry (in Angstrom), charge = 0, multiplicity = 1:

       Center              X                  Y                   Z               Mass
    ------------   -----------------  -----------------  -----------------  -----------------
         N            0.514356786948     1.178304791143     0.292610806802    14.003074004430
         C           -0.782190213052     0.656853791143     0.152098806802    12.000000000000
         C            1.697426786948     0.443646791143     0.084260806802    12.000000000000
         C           -3.437883213052    -0.311157208857    -0.023710193198    12.000000000000
         C           -1.152008213052    -0.533080208857     0.799356806802    12.000000000000
         C           -1.768580413052     1.371926591143    -0.580268393198    12.000000000000
         C           -2.456868213052    -1.008377208857     0.695253806802    12.000000000000
         C           -3.064273213052     0.888133791143    -0.640767193198    12.000000000000
         C            2.917374786948     1.053410791143     0.419088806802    12.000000000000
         C            1.706377786948    -0.860475208857    -0.433160193198    12.000000000000
         C           -4.858088213052    -0.810272208857    -0.082932193198    12.000000000000
         C            4.121484786948     0.381842791143     0.222926806802    12.000000000000
         C            2.917934786948    -1.530890208857    -0.607523193198    12.000000000000
         C            4.130216786948    -0.921348208857    -0.280836193198    12.000000000000
         H            0.594599786948     2.161271791143     0.053522806802     1.007825032230
         H           -0.418216213052    -1.067743208857     1.397012806802     1.007825032230
         H           -1.479461213052     2.281407791143    -1.084939193198     1.007825032230
         H           -2.722071213052    -1.936629208857     1.199768806802     1.007825032230
         H           -3.802622213052     1.453236791143    -1.207901193198     1.007825032230
         H            2.910473786948     2.058560791143     0.837569806802     1.007825032230
         H            0.775348786948    -1.334902208857    -0.727672193198     1.007825032230
         H           -5.367826213052    -0.439036208857    -0.976677193198     1.007825032230
         H           -4.890760213052    -1.903515208857    -0.104914193198     1.007825032230
         H           -5.433530213052    -0.479827208857     0.788991806802     1.007825032230
         H            5.055686786948     0.873749791143     0.484272806802     1.007825032230
         H            2.909240786948    -2.540161208857    -1.013389193198     1.007825032230
         H            5.068686786948    -1.450683208857    -0.422477193198     1.007825032230

  Basis Set: AUG-CC-PVTZ
    Blend: AUG-CC-PVTZ
  Basis Set: (AUG-CC-PVTZ AUX)
    Blend: AUG-CC-PVTZ-JKFIT
	 Reference Energy          =    -554.4901480799143201 [Eh]
	 Singles Energy            =      -0.0000000000000000 [Eh]
	 Same-Spin Energy          =      -0.6239586353123157 [Eh]
	 Opposite-Spin Energy      =      -1.9527728242084075 [Eh]
	 Correlation Energy        =      -2.5767314595207234 [Eh]
	 Total Energy              =    -557.0668795394350354 [Eh]

	 ================> DF-SCS-MP2 Energies <==================
	-----------------------------------------------------------
	 SCS Same-Spin Scale       =       0.3333333333333333 [-]
	 SCS Opposite-Spin Scale   =       1.2000000000000000 [-]
	 SCS Same-Spin Energy      =      -0.2079862117707719 [Eh]
	 SCS Opposite-Spin Energy  =      -2.3433273890500890 [Eh]
	 SCS Correlation Energy    =      -2.5513136008208610 [Eh]
	 SCS Total Energy          =    -557.0414616807352104 [Eh]
	-----------------------------------------------------------

  Dipole Moment: [D]
     X:    -0.6035      Y:     0.5868      Z:    -0.3418     Total:     0.9085

*** Psi4 exiting successfully. Buy a developer a beer!
