                               Psi4 1.4a3.dev225

  ==> Input File <==

--------------------------------------------------------------------------
#psi4
#
memory 32 gb

molecule  {
0 1
  N        0.5479400     1.1907050     0.2959170
  C       -0.7486070     0.6692540     0.1554050
  C        1.8990460     0.3517007     0.0579742
  C       -3.4043000    -0.2987570    -0.0204040
  C       -1.1184250    -0.5206800     0.8026630
  C       -1.7211190     1.3742660    -0.5666580
  C       -2.4232850    -0.9959770     0.6985600
  C       -3.0306900     0.9005340    -0.6374610
  C        2.9509580     1.0658110     0.4223950
  C        1.7399610    -0.8480750    -0.4298540
  C       -4.8245050    -0.7978720    -0.0796260
  C        4.1550680     0.3942430     0.2262330
  C        2.9515180    -1.5184900    -0.6042170
  C        4.1638000    -0.9089480    -0.2775300
  H        0.6281830     2.1736720     0.0568290
  H       -0.3846330    -1.0553430     1.4003190
  H       -1.4458780     2.2938080    -1.0816330
  H       -2.6884880    -1.9242290     1.2030750
  H       -3.7690390     1.4656370    -1.2045950
  H        2.9440570     2.0709610     0.8408760
  H        0.8089320    -1.3225020    -0.7243660
  H       -5.3342430    -0.4266360    -0.9733710
  H       -4.8571770    -1.8911150    -0.1016080
  H       -5.3999470    -0.4674270     0.7922980
  H        5.0892700     0.8861500     0.4875790
  H        2.9428240    -2.5277610    -1.0100830
  H        5.1022700    -1.4382830    -0.4191710
units angstrom
no_reorient  #important for SAPT in psi4, default
symmetry c1  #important for SAPT in psi4, default
}

set PROPERTIES_ORIGIN ["COM"]
properties('MP2/aug-cc-pvtz', properties = ['dipole'])
--------------------------------------------------------------------------

    Molecular point group: c1
  Charge       = 0
  Multiplicity = 1
  Basis Set: AUG-CC-PVTZ
    Blend: AUG-CC-PVTZ
  Basis Set: (AUG-CC-PVTZ AUX)
    Blend: AUG-CC-PVTZ-JKFIT

    Orbital Energies [Eh]
    ---------------------

    Doubly Occupied:

       1A    -15.556818     2A    -11.277987     3A    -11.266873
       4A    -11.246218     5A    -11.245777     6A    -11.234731
       7A    -11.232742     8A    -11.228293     9A    -11.227813
      10A    -11.227565    11A    -11.226380    12A    -11.222222
      13A    -11.220685    14A    -11.217647    15A     -1.221162
      16A     -1.168281    17A     -1.121950    18A     -1.037907
      19A     -1.032199    20A     -1.006305    21A     -0.997229
      22A     -0.909691    23A     -0.849780    24A     -0.826702
      25A     -0.816124    26A     -0.780890    27A     -0.714931
      28A     -0.687971    29A     -0.653163    30A     -0.647737
      31A     -0.631379    32A     -0.626163    33A     -0.604471
      34A     -0.582028    35A     -0.578162    36A     -0.575930
      37A     -0.567366    38A     -0.540785    39A     -0.531368
      40A     -0.517919    41A     -0.503165    42A     -0.498049
      43A     -0.484183    44A     -0.469730    45A     -0.426271
      46A     -0.349599    47A     -0.343554    48A     -0.331110
      49A     -0.276007

  @DF-RHF Final Energy:  -554.44947842539489

   => Energetics <=

    Nuclear Repulsion Energy =            787.4006087080942962
    One-Electron Energy =               -2312.6181492868081477
    Two-Electron Energy =                 970.7680621533189651
    Total Energy =                       -554.4494784253948865
  Basis Set: (AUG-CC-PVTZ AUX)
    Blend: AUG-CC-PVTZ-RI
    Molecular point group: c1

    Geometry (in Angstrom), charge = 0, multiplicity = 1:

       Center              X                  Y                   Z               Mass
    ------------   -----------------  -----------------  -----------------  -----------------
         N            0.502434814357     1.185802602256     0.293874909112    14.003074004430
         C           -0.794112185643     0.664351602256     0.153362909112    12.000000000000
         C            1.853540814357     0.346798302256     0.055932109112    12.000000000000
         C           -3.449805185643    -0.303659397744    -0.022446090888    12.000000000000
         C           -1.163930185643    -0.525582397744     0.800620909112    12.000000000000
         C           -1.766624185643     1.369363602256    -0.568700090888    12.000000000000
         C           -2.468790185643    -1.000879397744     0.696517909112    12.000000000000
         C           -3.076195185643     0.895631602256    -0.639503090888    12.000000000000
         C            2.905452814357     1.060908602256     0.420352909112    12.000000000000
         C            1.694455814357    -0.852977397744    -0.431896090888    12.000000000000
         C           -4.870010185643    -0.802774397744    -0.081668090888    12.000000000000
         C            4.109562814357     0.389340602256     0.224190909112    12.000000000000
         C            2.906012814357    -1.523392397744    -0.606259090888    12.000000000000
         C            4.118294814357    -0.913850397744    -0.279572090888    12.000000000000
         H            0.582677814357     2.168769602256     0.054786909112     1.007825032230
         H           -0.430138185643    -1.060245397744     1.398276909112     1.007825032230
         H           -1.491383185643     2.288905602256    -1.083675090888     1.007825032230
         H           -2.733993185643    -1.929131397744     1.201032909112     1.007825032230
         H           -3.814544185643     1.460734602256    -1.206637090888     1.007825032230
         H            2.898551814357     2.066058602256     0.838833909112     1.007825032230
         H            0.763426814357    -1.327404397744    -0.726408090888     1.007825032230
         H           -5.379748185643    -0.431538397744    -0.975413090888     1.007825032230
         H           -4.902682185643    -1.896017397744    -0.103650090888     1.007825032230
         H           -5.445452185643    -0.472329397744     0.790255909112     1.007825032230
         H            5.043764814357     0.881247602256     0.485536909112     1.007825032230
         H            2.897318814357    -2.532663397744    -1.012125090888     1.007825032230
         H            5.056764814357    -1.443185397744    -0.421213090888     1.007825032230

  Basis Set: AUG-CC-PVTZ
    Blend: AUG-CC-PVTZ
  Basis Set: (AUG-CC-PVTZ AUX)
    Blend: AUG-CC-PVTZ-JKFIT
	 Reference Energy          =    -554.4494784253948865 [Eh]
	 Singles Energy            =      -0.0000000000000000 [Eh]
	 Same-Spin Energy          =      -0.6244683098075050 [Eh]
	 Opposite-Spin Energy      =      -1.9541463527287248 [Eh]
	 Correlation Energy        =      -2.5786146625362298 [Eh]
	 Total Energy              =    -557.0280930879310972 [Eh]

	 ================> DF-SCS-MP2 Energies <==================
	-----------------------------------------------------------
	 SCS Same-Spin Scale       =       0.3333333333333333 [-]
	 SCS Opposite-Spin Scale   =       1.2000000000000000 [-]
	 SCS Same-Spin Energy      =      -0.2081561032691683 [Eh]
	 SCS Opposite-Spin Energy  =      -2.3449756232744696 [Eh]
	 SCS Correlation Energy    =      -2.5531317265436377 [Eh]
	 SCS Total Energy          =    -557.0026101519384838 [Eh]
	-----------------------------------------------------------

  Dipole Moment: [D]
     X:     0.8633      Y:     0.1681      Z:    -0.4985     Total:     1.0110

*** Psi4 exiting successfully. Buy a developer a beer!
