                               Psi4 1.4a3.dev225

  ==> Input File <==

--------------------------------------------------------------------------
#psi4
#
memory 32 gb

molecule  {
0 1
  N        0.5479400     1.1907050     0.2959170
  C       -0.7486070     0.6692540     0.1554050
  C        1.7310100     0.4560470     0.0875670
  C       -3.4043000    -0.2987570    -0.0204040
  C       -1.1184250    -0.5206800     0.8026630
  C       -1.7211190     1.3742660    -0.5666580
  C       -2.4232850    -0.9959770     0.6985600
  C       -3.0119070     0.9073287    -0.6364455
  C        2.9509580     1.0658110     0.4223950
  C        1.7399610    -0.8480750    -0.4298540
  C       -4.8245050    -0.7978720    -0.0796260
  C        4.1550680     0.3942430     0.2262330
  C        2.9515180    -1.5184900    -0.6042170
  C        4.1638000    -0.9089480    -0.2775300
  H        0.6281830     2.1736720     0.0568290
  H       -0.3846330    -1.0553430     1.4003190
  H       -1.4458780     2.2938080    -1.0816330
  H       -2.6884880    -1.9242290     1.2030750
  H       -3.7690390     1.4656370    -1.2045950
  H        2.9440570     2.0709610     0.8408760
  H        0.8089320    -1.3225020    -0.7243660
  H       -5.3342430    -0.4266360    -0.9733710
  H       -4.8571770    -1.8911150    -0.1016080
  H       -5.3999470    -0.4674270     0.7922980
  H        5.0892700     0.8861500     0.4875790
  H        2.9428240    -2.5277610    -1.0100830
  H        5.1022700    -1.4382830    -0.4191710
units angstrom
no_reorient  #important for SAPT in psi4, default
symmetry c1  #important for SAPT in psi4, default
}

set PROPERTIES_ORIGIN ["COM"]
properties('MP2/aug-cc-pvtz', properties = ['dipole'])
--------------------------------------------------------------------------

    Molecular point group: c1
  Charge       = 0
  Multiplicity = 1
  Basis Set: AUG-CC-PVTZ
    Blend: AUG-CC-PVTZ
  Basis Set: (AUG-CC-PVTZ AUX)
    Blend: AUG-CC-PVTZ-JKFIT

    Orbital Energies [Eh]
    ---------------------

    Doubly Occupied:

       1A    -15.577402     2A    -11.282620     3A    -11.277390
       4A    -11.237846     5A    -11.237126     6A    -11.236792
       7A    -11.234785     8A    -11.233953     9A    -11.230960
      10A    -11.229310    11A    -11.228577    12A    -11.225981
      13A    -11.224412    14A    -11.223650    15A     -1.258309
      16A     -1.152362    17A     -1.128225    18A     -1.040391
      19A     -1.017293    20A     -1.010910    21A     -0.990166
      22A     -0.921253    23A     -0.841565    24A     -0.829813
      25A     -0.816352    26A     -0.785619    27A     -0.713054
      28A     -0.704004    29A     -0.668977    30A     -0.640115
      31A     -0.635752    32A     -0.618480    33A     -0.597632
      34A     -0.586724    35A     -0.584992    36A     -0.582518
      37A     -0.573220    38A     -0.545817    39A     -0.531114
      40A     -0.513766    41A     -0.502463    42A     -0.495230
      43A     -0.489861    44A     -0.483308    45A     -0.441951
      46A     -0.341993    47A     -0.336212    48A     -0.330233
      49A     -0.274977

  @DF-RHF Final Energy:  -554.49034354310209

   => Energetics <=

    Nuclear Repulsion Energy =            787.5291176332851819
    One-Electron Energy =               -2312.7080116643437577
    Two-Electron Energy =                 970.6885504879563769
    Total Energy =                       -554.4903435431020853
  Basis Set: (AUG-CC-PVTZ AUX)
    Blend: AUG-CC-PVTZ-RI
    Molecular point group: c1

    Geometry (in Angstrom), charge = 0, multiplicity = 1:

       Center              X                  Y                   Z               Mass
    ------------   -----------------  -----------------  -----------------  -----------------
         N            0.512216294720     1.178518839055     0.291868956231    14.003074004430
         C           -0.784330705280     0.657067839055     0.151356956231    12.000000000000
         C            1.695286294720     0.443860839055     0.083518956231    12.000000000000
         C           -3.440023705280    -0.310943160945    -0.024452043769    12.000000000000
         C           -1.154148705280    -0.532866160945     0.798614956231    12.000000000000
         C           -1.756842705280     1.362079839055    -0.570706043769    12.000000000000
         C           -2.459008705280    -1.008163160945     0.694511956231    12.000000000000
         C           -3.047630705280     0.895142539055    -0.640493543769    12.000000000000
         C            2.915234294720     1.053624839055     0.418346956231    12.000000000000
         C            1.704237294720    -0.860261160945    -0.433902043769    12.000000000000
         C           -4.860228705280    -0.810058160945    -0.083674043769    12.000000000000
         C            4.119344294720     0.382056839055     0.222184956231    12.000000000000
         C            2.915794294720    -1.530676160945    -0.608265043769    12.000000000000
         C            4.128076294720    -0.921134160945    -0.281578043769    12.000000000000
         H            0.592459294720     2.161485839055     0.052780956231     1.007825032230
         H           -0.420356705280    -1.067529160945     1.396270956231     1.007825032230
         H           -1.481601705280     2.281621839055    -1.085681043769     1.007825032230
         H           -2.724211705280    -1.936415160945     1.199026956231     1.007825032230
         H           -3.804762705280     1.453450839055    -1.208643043769     1.007825032230
         H            2.908333294720     2.058774839055     0.836827956231     1.007825032230
         H            0.773208294720    -1.334688160945    -0.728414043769     1.007825032230
         H           -5.369966705280    -0.438822160945    -0.977419043769     1.007825032230
         H           -4.892900705280    -1.903301160945    -0.105656043769     1.007825032230
         H           -5.435670705280    -0.479613160945     0.788249956231     1.007825032230
         H            5.053546294720     0.873963839055     0.483530956231     1.007825032230
         H            2.907100294720    -2.539947160945    -1.014131043769     1.007825032230
         H            5.066546294720    -1.450469160945    -0.423219043769     1.007825032230

  Basis Set: AUG-CC-PVTZ
    Blend: AUG-CC-PVTZ
  Basis Set: (AUG-CC-PVTZ AUX)
    Blend: AUG-CC-PVTZ-JKFIT
	 Reference Energy          =    -554.4903435431020853 [Eh]
	 Singles Energy            =      -0.0000000000000000 [Eh]
	 Same-Spin Energy          =      -0.6239644303922279 [Eh]
	 Opposite-Spin Energy      =      -1.9526479637950716 [Eh]
	 Correlation Energy        =      -2.5766123941872996 [Eh]
	 Total Energy              =    -557.0669559372894355 [Eh]

	 ================> DF-SCS-MP2 Energies <==================
	-----------------------------------------------------------
	 SCS Same-Spin Scale       =       0.3333333333333333 [-]
	 SCS Opposite-Spin Scale   =       1.2000000000000000 [-]
	 SCS Same-Spin Energy      =      -0.2079881434640760 [Eh]
	 SCS Opposite-Spin Energy  =      -2.3431775565540858 [Eh]
	 SCS Correlation Energy    =      -2.5511657000181618 [Eh]
	 SCS Total Energy          =    -557.0415092431202311 [Eh]
	-----------------------------------------------------------

  Dipole Moment: [D]
     X:    -0.6397      Y:     0.5792      Z:    -0.3420     Total:     0.9283

*** Psi4 exiting successfully. Buy a developer a beer!
