                               Psi4 1.4a3.dev225

  ==> Input File <==

--------------------------------------------------------------------------
#psi4
#
memory 32 gb

molecule  {
0 1
  N        0.5479400     1.1907050     0.2959170
  C       -0.7486070     0.6692540     0.1554050
  C        1.7310100     0.4560470     0.0875670
  C       -3.4043000    -0.2987570    -0.0204040
  C       -1.1184250    -0.5206800     0.8026630
  C       -1.7211190     1.3742660    -0.5666580
  C       -2.4232850    -0.9959770     0.6985600
  C       -3.0306900     0.9005340    -0.6374610
  C        2.9509580     1.0658110     0.4223950
  C        1.7399610    -0.8480750    -0.4298540
  C       -4.8245050    -0.7978720    -0.0796260
  C        4.1550680     0.3942430     0.2262330
  C        2.9515180    -1.5184900    -0.6042170
  C        4.1638000    -0.9089480    -0.2775300
  H        0.6281830     2.1736720     0.0568290
  H       -0.3846330    -1.0553430     1.4003190
  H       -1.4458780     2.2938080    -1.0816330
  H       -2.6884880    -1.9242290     1.2030750
  H       -3.7690390     1.4656370    -1.2045950
  H        2.9434232     2.1632776     0.8793108
  H        0.8089320    -1.3225020    -0.7243660
  H       -5.3342430    -0.4266360    -0.9733710
  H       -4.8571770    -1.8911150    -0.1016080
  H       -5.3999470    -0.4674270     0.7922980
  H        5.0892700     0.8861500     0.4875790
  H        2.9428240    -2.5277610    -1.0100830
  H        5.1022700    -1.4382830    -0.4191710
units angstrom
no_reorient  #important for SAPT in psi4, default
symmetry c1  #important for SAPT in psi4, default
}

set PROPERTIES_ORIGIN ["COM"]
properties('MP2/aug-cc-pvtz', properties = ['dipole'])
--------------------------------------------------------------------------

    Molecular point group: c1
  Charge       = 0
  Multiplicity = 1
  Basis Set: AUG-CC-PVTZ
    Blend: AUG-CC-PVTZ
  Basis Set: (AUG-CC-PVTZ AUX)
    Blend: AUG-CC-PVTZ-JKFIT

    Orbital Energies [Eh]
    ---------------------

    Doubly Occupied:

       1A    -15.577239     2A    -11.283889     3A    -11.277371
       4A    -11.240345     5A    -11.238709     6A    -11.237730
       7A    -11.236249     8A    -11.234884     9A    -11.234278
      10A    -11.232615    11A    -11.230079    12A    -11.226947
      13A    -11.225315    14A    -11.223188    15A     -1.258180
      16A     -1.151969    17A     -1.128581    18A     -1.040676
      19A     -1.015681    20A     -1.009657    21A     -0.989241
      22A     -0.921372    23A     -0.841619    24A     -0.829627
      25A     -0.813907    26A     -0.785482    27A     -0.712341
      28A     -0.702847    29A     -0.664295    30A     -0.639768
      31A     -0.634073    32A     -0.619070    33A     -0.597056
      34A     -0.587700    35A     -0.583893    36A     -0.576336
      37A     -0.573243    38A     -0.545078    39A     -0.530815
      40A     -0.513423    41A     -0.499404    42A     -0.495077
      43A     -0.487718    44A     -0.485158    45A     -0.442112
      46A     -0.340585    47A     -0.336209    48A     -0.331345
      49A     -0.276042

  @DF-RHF Final Energy:  -554.48349301834799

   => Energetics <=

    Nuclear Repulsion Energy =            786.8485410935479649
    One-Electron Energy =               -2311.3472398671424344
    Two-Electron Energy =                 970.0152057552464839
    Total Energy =                       -554.4834930183479855
  Basis Set: (AUG-CC-PVTZ AUX)
    Blend: AUG-CC-PVTZ-RI
    Molecular point group: c1

    Geometry (in Angstrom), charge = 0, multiplicity = 1:

       Center              X                  Y                   Z               Mass
    ------------   -----------------  -----------------  -----------------  -----------------
         N            0.513450750399     1.178456019399     0.291723959739    14.003074004430
         C           -0.783096249601     0.657005019399     0.151211959739    12.000000000000
         C            1.696520750399     0.443798019399     0.083373959739    12.000000000000
         C           -3.438789249601    -0.311005980601    -0.024597040261    12.000000000000
         C           -1.152914249601    -0.532928980601     0.798469959739    12.000000000000
         C           -1.755608249601     1.362017019399    -0.570851040261    12.000000000000
         C           -2.457774249601    -1.008225980601     0.694366959739    12.000000000000
         C           -3.065179249601     0.888285019399    -0.641654040261    12.000000000000
         C            2.916468750399     1.053562019399     0.418201959739    12.000000000000
         C            1.705471750399    -0.860323980601    -0.434047040261    12.000000000000
         C           -4.858994249601    -0.810120980601    -0.083819040261    12.000000000000
         C            4.120578750399     0.381994019399     0.222039959739    12.000000000000
         C            2.917028750399    -1.530738980601    -0.608410040261    12.000000000000
         C            4.129310750399    -0.921196980601    -0.281723040261    12.000000000000
         H            0.593693750399     2.161423019399     0.052635959739     1.007825032230
         H           -0.419122249601    -1.067591980601     1.396125959739     1.007825032230
         H           -1.480367249601     2.281559019399    -1.085826040261     1.007825032230
         H           -2.722977249601    -1.936477980601     1.198881959739     1.007825032230
         H           -3.803528249601     1.453388019399    -1.208788040261     1.007825032230
         H            2.908933950399     2.151028619399     0.875117759739     1.007825032230
         H            0.774442750399    -1.334750980601    -0.728559040261     1.007825032230
         H           -5.368732249601    -0.438884980601    -0.977564040261     1.007825032230
         H           -4.891666249601    -1.903363980601    -0.105801040261     1.007825032230
         H           -5.434436249601    -0.479675980601     0.788104959739     1.007825032230
         H            5.054780750399     0.873901019399     0.483385959739     1.007825032230
         H            2.908334750399    -2.540009980601    -1.014276040261     1.007825032230
         H            5.067780750399    -1.450531980601    -0.423364040261     1.007825032230

  Basis Set: AUG-CC-PVTZ
    Blend: AUG-CC-PVTZ
  Basis Set: (AUG-CC-PVTZ AUX)
    Blend: AUG-CC-PVTZ-JKFIT
	 Reference Energy          =    -554.4834930183479855 [Eh]
	 Singles Energy            =      -0.0000000000000000 [Eh]
	 Same-Spin Energy          =      -0.6241698884333891 [Eh]
	 Opposite-Spin Energy      =      -1.9535683055118771 [Eh]
	 Correlation Energy        =      -2.5777381939452662 [Eh]
	 Total Energy              =    -557.0612312122932508 [Eh]

	 ================> DF-SCS-MP2 Energies <==================
	-----------------------------------------------------------
	 SCS Same-Spin Scale       =       0.3333333333333333 [-]
	 SCS Opposite-Spin Scale   =       1.2000000000000000 [-]
	 SCS Same-Spin Energy      =      -0.2080566294777964 [Eh]
	 SCS Opposite-Spin Energy  =      -2.3442819666142523 [Eh]
	 SCS Correlation Energy    =      -2.5523385960920484 [Eh]
	 SCS Total Energy          =    -557.0358316144399851 [Eh]
	-----------------------------------------------------------

  Dipole Moment: [D]
     X:    -0.6306      Y:     0.5369      Z:    -0.3555     Total:     0.9013

*** Psi4 exiting successfully. Buy a developer a beer!
