                               Psi4 1.4a3.dev225

  ==> Input File <==

--------------------------------------------------------------------------
#psi4
#
memory 32 gb

molecule  {
0 1
  N        0.5479400     1.1907050     0.2959170
  C       -0.7486070     0.6692540     0.1554050
  C        1.7310100     0.4560470     0.0875670
  C       -3.4043000    -0.2987570    -0.0204040
  C       -1.1184250    -0.5206800     0.8026630
  C       -1.7211190     1.3742660    -0.5666580
  C       -2.4232850    -0.9959770     0.6985600
  C       -3.0306900     0.9005340    -0.6374610
  C        2.9509580     1.0658110     0.4223950
  C        1.7399610    -0.8480750    -0.4298540
  C       -4.8245050    -0.7978720    -0.0796260
  C        4.1550680     0.3942430     0.2262330
  C        2.9515180    -1.5184900    -0.6042170
  C        4.1638000    -0.9089480    -0.2775300
  H        0.6281830     2.1736720     0.0568290
  H       -0.3846330    -1.0553430     1.4003190
  H       -1.4458780     2.2938080    -1.0816330
  H       -2.6884880    -1.9242290     1.2030750
  H       -3.8029362     1.4915805    -1.2306318
  H        2.9440570     2.0709610     0.8408760
  H        0.8089320    -1.3225020    -0.7243660
  H       -5.3342430    -0.4266360    -0.9733710
  H       -4.8571770    -1.8911150    -0.1016080
  H       -5.3999470    -0.4674270     0.7922980
  H        5.0892700     0.8861500     0.4875790
  H        2.9428240    -2.5277610    -1.0100830
  H        5.1022700    -1.4382830    -0.4191710
units angstrom
no_reorient  #important for SAPT in psi4, default
symmetry c1  #important for SAPT in psi4, default
}

set PROPERTIES_ORIGIN ["COM"]
properties('MP2/aug-cc-pvtz', properties = ['dipole'])
--------------------------------------------------------------------------

    Molecular point group: c1
  Charge       = 0
  Multiplicity = 1
  Basis Set: AUG-CC-PVTZ
    Blend: AUG-CC-PVTZ
  Basis Set: (AUG-CC-PVTZ AUX)
    Blend: AUG-CC-PVTZ-JKFIT

    Orbital Energies [Eh]
    ---------------------

    Doubly Occupied:

       1A    -15.577534     2A    -11.282761     3A    -11.277766
       4A    -11.240796     5A    -11.237977     6A    -11.237274
       7A    -11.236439     8A    -11.234756     9A    -11.233247
      10A    -11.230274    11A    -11.228712    12A    -11.226174
      13A    -11.224547    14A    -11.223129    15A     -1.258426
      16A     -1.151959    17A     -1.128292    18A     -1.040854
      19A     -1.015372    20A     -1.010424    21A     -0.989554
      22A     -0.921232    23A     -0.841618    24A     -0.829569
      25A     -0.816648    26A     -0.784059    27A     -0.712145
      28A     -0.703404    29A     -0.668662    30A     -0.639936
      31A     -0.635397    32A     -0.617562    33A     -0.597721
      34A     -0.586837    35A     -0.583702    36A     -0.580855
      37A     -0.572997    38A     -0.545330    39A     -0.530066
      40A     -0.513282    41A     -0.501357    42A     -0.495032
      43A     -0.489642    44A     -0.484708    45A     -0.442000
      46A     -0.340538    47A     -0.335888    48A     -0.331181
      49A     -0.275987

  @DF-RHF Final Energy:  -554.48838809720269

   => Energetics <=

    Nuclear Repulsion Energy =            787.0774124241539766
    One-Electron Energy =               -2311.8043629014377984
    Two-Electron Energy =                 970.2385623800812482
    Total Energy =                       -554.4883880972026873
  Basis Set: (AUG-CC-PVTZ AUX)
    Blend: AUG-CC-PVTZ-RI
    Molecular point group: c1

    Geometry (in Angstrom), charge = 0, multiplicity = 1:

       Center              X                  Y                   Z               Mass
    ------------   -----------------  -----------------  -----------------  -----------------
         N            0.513633835099     1.178821342820     0.292078817135    14.003074004430
         C           -0.782913164901     0.657370342820     0.151566817135    12.000000000000
         C            1.696703835099     0.444163342820     0.083728817135    12.000000000000
         C           -3.438606164901    -0.310640657180    -0.024242182865    12.000000000000
         C           -1.152731164901    -0.532563657180     0.798824817135    12.000000000000
         C           -1.755425164901     1.362382342820    -0.570496182865    12.000000000000
         C           -2.457591164901    -1.007860657180     0.694721817135    12.000000000000
         C           -3.064996164901     0.888650342820    -0.641299182865    12.000000000000
         C            2.916651835099     1.053927342820     0.418556817135    12.000000000000
         C            1.705654835099    -0.859958657180    -0.433692182865    12.000000000000
         C           -4.858811164901    -0.809755657180    -0.083464182865    12.000000000000
         C            4.120761835099     0.382359342820     0.222394817135    12.000000000000
         C            2.917211835099    -1.530373657180    -0.608055182865    12.000000000000
         C            4.129493835099    -0.920831657180    -0.281368182865    12.000000000000
         H            0.593876835099     2.161788342820     0.052990817135     1.007825032230
         H           -0.418939164901    -1.067226657180     1.396480817135     1.007825032230
         H           -1.480184164901     2.281924342820    -1.085471182865     1.007825032230
         H           -2.722794164901    -1.936112657180     1.199236817135     1.007825032230
         H           -3.837242364901     1.479696842820    -1.234469982865     1.007825032230
         H            2.909750835099     2.059077342820     0.837037817135     1.007825032230
         H            0.774625835099    -1.334385657180    -0.728204182865     1.007825032230
         H           -5.368549164901    -0.438519657180    -0.977209182865     1.007825032230
         H           -4.891483164901    -1.902998657180    -0.105446182865     1.007825032230
         H           -5.434253164901    -0.479310657180     0.788459817135     1.007825032230
         H            5.054963835099     0.874266342820     0.483740817135     1.007825032230
         H            2.908517835099    -2.539644657180    -1.013921182865     1.007825032230
         H            5.067963835099    -1.450166657180    -0.423009182865     1.007825032230

  Basis Set: AUG-CC-PVTZ
    Blend: AUG-CC-PVTZ
  Basis Set: (AUG-CC-PVTZ AUX)
    Blend: AUG-CC-PVTZ-JKFIT
	 Reference Energy          =    -554.4883880972026873 [Eh]
	 Singles Energy            =      -0.0000000000000000 [Eh]
	 Same-Spin Energy          =      -0.6240380186053508 [Eh]
	 Opposite-Spin Energy      =      -1.9531006459563298 [Eh]
	 Correlation Energy        =      -2.5771386645616805 [Eh]
	 Total Energy              =    -557.0655267617643176 [Eh]

	 ================> DF-SCS-MP2 Energies <==================
	-----------------------------------------------------------
	 SCS Same-Spin Scale       =       0.3333333333333333 [-]
	 SCS Opposite-Spin Scale   =       1.2000000000000000 [-]
	 SCS Same-Spin Energy      =      -0.2080126728684503 [Eh]
	 SCS Opposite-Spin Energy  =      -2.3437207751475957 [Eh]
	 SCS Correlation Energy    =      -2.5517334480160461 [Eh]
	 SCS Total Energy          =    -557.0401215452187671 [Eh]
	-----------------------------------------------------------

  Dipole Moment: [D]
     X:    -0.6102      Y:     0.5657      Z:    -0.3291     Total:     0.8948

*** Psi4 exiting successfully. Buy a developer a beer!
