                               Psi4 1.4a3.dev225

  ==> Input File <==

--------------------------------------------------------------------------
#psi4
#
memory 32 gb

molecule  {
0 1
  N        0.5479400     1.1907050     0.2959170
  C       -0.7486070     0.6692540     0.1554050
  C        1.7310100     0.4560470     0.0875670
  C       -3.4043000    -0.2987570    -0.0204040
  C       -1.1184250    -0.5206800     0.8026630
  C       -1.7211190     1.3742660    -0.5666580
  C       -2.4232850    -0.9959770     0.6985600
  C       -3.0306900     0.9005340    -0.6374610
  C        2.9509580     1.0658110     0.4223950
  C        1.7399610    -0.8480750    -0.4298540
  C       -4.8245050    -0.7978720    -0.0796260
  C        4.1550680     0.3942430     0.2262330
  C        2.9515180    -1.5184900    -0.6042170
  C        4.3375205    -0.8216004    -0.2307156
  H        0.6281830     2.1736720     0.0568290
  H       -0.3846330    -1.0553430     1.4003190
  H       -1.4458780     2.2938080    -1.0816330
  H       -2.6884880    -1.9242290     1.2030750
  H       -3.7690390     1.4656370    -1.2045950
  H        2.9440570     2.0709610     0.8408760
  H        0.8089320    -1.3225020    -0.7243660
  H       -5.3342430    -0.4266360    -0.9733710
  H       -4.8571770    -1.8911150    -0.1016080
  H       -5.3999470    -0.4674270     0.7922980
  H        5.0892700     0.8861500     0.4875790
  H        2.9428240    -2.5277610    -1.0100830
  H        5.1022700    -1.4382830    -0.4191710
units angstrom
no_reorient  #important for SAPT in psi4, default
symmetry c1  #important for SAPT in psi4, default
}

set PROPERTIES_ORIGIN ["COM"]
properties('MP2/aug-cc-pvtz', properties = ['dipole'])
--------------------------------------------------------------------------

    Molecular point group: c1
  Charge       = 0
  Multiplicity = 1
  Basis Set: AUG-CC-PVTZ
    Blend: AUG-CC-PVTZ
  Basis Set: (AUG-CC-PVTZ AUX)
    Blend: AUG-CC-PVTZ-JKFIT

    Orbital Energies [Eh]
    ---------------------

    Doubly Occupied:

       1A    -15.579326     2A    -11.286133     3A    -11.278473
       4A    -11.254358     5A    -11.237228     6A    -11.235861
       7A    -11.235258     8A    -11.233641     9A    -11.231251
      10A    -11.229721    11A    -11.228468    12A    -11.225896
      13A    -11.223862    14A    -11.223351    15A     -1.259710
      16A     -1.150822    17A     -1.123894    18A     -1.041884
      19A     -1.019685    20A     -1.012478    21A     -0.983783
      22A     -0.921466    23A     -0.847654    24A     -0.824356
      25A     -0.820839    26A     -0.784827    27A     -0.710625
      28A     -0.706144    29A     -0.685773    30A     -0.644661
      31A     -0.634905    32A     -0.618884    33A     -0.600651
      34A     -0.588482    35A     -0.585166    36A     -0.574431
      37A     -0.570911    38A     -0.549303    39A     -0.532970
      40A     -0.530123    41A     -0.502704    42A     -0.493569
      43A     -0.487368    44A     -0.454878    45A     -0.439183
      46A     -0.349358    47A     -0.339044    48A     -0.321820
      49A     -0.274573

  @DF-RHF Final Energy:  -554.44968701525545

   => Energetics <=

    Nuclear Repulsion Energy =            785.2510043232657608
    One-Electron Energy =               -2308.0218854038930658
    Two-Electron Energy =                 968.3211940653718557
    Total Energy =                       -554.4496870152554493
  Basis Set: (AUG-CC-PVTZ AUX)
    Blend: AUG-CC-PVTZ-RI
    Molecular point group: c1

    Geometry (in Angstrom), charge = 0, multiplicity = 1:

       Center              X                  Y                   Z               Mass
    ------------   -----------------  -----------------  -----------------  -----------------
         N            0.502062273603     1.173239704903     0.288867468549    14.003074004430
         C           -0.794484726397     0.651788704903     0.148355468549    12.000000000000
         C            1.685132273603     0.438581704903     0.080517468549    12.000000000000
         C           -3.450177726397    -0.316222295097    -0.027453531451    12.000000000000
         C           -1.164302726397    -0.538145295097     0.795613468549    12.000000000000
         C           -1.766996726397     1.356800704903    -0.573707531451    12.000000000000
         C           -2.469162726397    -1.013442295097     0.691510468549    12.000000000000
         C           -3.076567726397     0.883068704903    -0.644510531451    12.000000000000
         C            2.905080273603     1.048345704903     0.415345468549    12.000000000000
         C            1.694083273603    -0.865540295097    -0.436903531451    12.000000000000
         C           -4.870382726397    -0.815337295097    -0.086675531451    12.000000000000
         C            4.109190273603     0.376777704903     0.219183468549    12.000000000000
         C            2.905640273603    -1.535955295097    -0.611266531451    12.000000000000
         C            4.291642773603    -0.839065695097    -0.237765131451    12.000000000000
         H            0.582305273603     2.156206704903     0.049779468549     1.007825032230
         H           -0.430510726397    -1.072808295097     1.393269468549     1.007825032230
         H           -1.491755726397     2.276342704903    -1.088682531451     1.007825032230
         H           -2.734365726397    -1.941694295097     1.196025468549     1.007825032230
         H           -3.814916726397     1.448171704903    -1.211644531451     1.007825032230
         H            2.898179273603     2.053495704903     0.833826468549     1.007825032230
         H            0.763054273603    -1.339967295097    -0.731415531451     1.007825032230
         H           -5.380120726397    -0.444101295097    -0.980420531451     1.007825032230
         H           -4.903054726397    -1.908580295097    -0.108657531451     1.007825032230
         H           -5.445824726397    -0.484892295097     0.785248468549     1.007825032230
         H            5.043392273603     0.868684704903     0.480529468549     1.007825032230
         H            2.896946273603    -2.545226295097    -1.017132531451     1.007825032230
         H            5.056392273603    -1.455748295097    -0.426220531451     1.007825032230

  Basis Set: AUG-CC-PVTZ
    Blend: AUG-CC-PVTZ
  Basis Set: (AUG-CC-PVTZ AUX)
    Blend: AUG-CC-PVTZ-JKFIT
	 Reference Energy          =    -554.4496870152554493 [Eh]
	 Singles Energy            =      -0.0000000000000000 [Eh]
	 Same-Spin Energy          =      -0.6234453171993701 [Eh]
	 Opposite-Spin Energy      =      -1.9549359023357256 [Eh]
	 Correlation Energy        =      -2.5783812195350957 [Eh]
	 Total Energy              =    -557.0280682347905667 [Eh]

	 ================> DF-SCS-MP2 Energies <==================
	-----------------------------------------------------------
	 SCS Same-Spin Scale       =       0.3333333333333333 [-]
	 SCS Opposite-Spin Scale   =       1.2000000000000000 [-]
	 SCS Same-Spin Energy      =      -0.2078151057331234 [Eh]
	 SCS Opposite-Spin Energy  =      -2.3459230828028708 [Eh]
	 SCS Correlation Energy    =      -2.5537381885359940 [Eh]
	 SCS Total Energy          =    -557.0034252037914939 [Eh]
	-----------------------------------------------------------

  Dipole Moment: [D]
     X:    -0.7644      Y:     0.5172      Z:    -0.3730     Total:     0.9955

*** Psi4 exiting successfully. Buy a developer a beer!
