                               Psi4 1.4a3.dev225

  ==> Input File <==

--------------------------------------------------------------------------
#psi4
#
memory 32 gb

molecule  {
0 1
  N        0.5479400     1.1907050     0.2959170
  C       -0.7486070     0.6692540     0.1554050
  C        1.7310100     0.4560470     0.0875670
  C       -3.4043000    -0.2987570    -0.0204040
  C       -1.1184250    -0.5206800     0.8026630
  C       -1.7211190     1.3742660    -0.5666580
  C       -2.4232850    -0.9959770     0.6985600
  C       -3.0306900     0.9005340    -0.6374610
  C        2.9509580     1.0658110     0.4223950
  C        1.7399610    -0.8480750    -0.4298540
  C       -4.8245050    -0.7978720    -0.0796260
  C        4.1550680     0.3942430     0.2262330
  C        2.9515180    -1.5184900    -0.6042170
  C        4.1638000    -0.9089480    -0.2775300
  H        0.6281830     2.1736720     0.0568290
  H       -0.3846330    -1.0553430     1.4003190
  H       -1.4458780     2.2938080    -1.0816330
  H       -2.6884880    -1.9242290     1.2030750
  H       -3.7825979     1.4760144    -1.2150097
  H        2.9440570     2.0709610     0.8408760
  H        0.8089320    -1.3225020    -0.7243660
  H       -5.3342430    -0.4266360    -0.9733710
  H       -4.8571770    -1.8911150    -0.1016080
  H       -5.3999470    -0.4674270     0.7922980
  H        5.0892700     0.8861500     0.4875790
  H        2.9428240    -2.5277610    -1.0100830
  H        5.1022700    -1.4382830    -0.4191710
units angstrom
no_reorient  #important for SAPT in psi4, default
symmetry c1  #important for SAPT in psi4, default
}

set PROPERTIES_ORIGIN ["COM"]
properties('MP2/aug-cc-pvtz', properties = ['dipole'])
--------------------------------------------------------------------------

    Molecular point group: c1
  Charge       = 0
  Multiplicity = 1
  Basis Set: AUG-CC-PVTZ
    Blend: AUG-CC-PVTZ
  Basis Set: (AUG-CC-PVTZ AUX)
    Blend: AUG-CC-PVTZ-JKFIT

    Orbital Energies [Eh]
    ---------------------

    Doubly Occupied:

       1A    -15.577397     2A    -11.282679     3A    -11.277532
       4A    -11.237916     5A    -11.237525     6A    -11.237212
       7A    -11.235969     8A    -11.234480     9A    -11.232895
      10A    -11.230133    11A    -11.228640    12A    -11.226099
      13A    -11.224483    14A    -11.223153    15A     -1.258294
      16A     -1.151908    17A     -1.128269    18A     -1.040771
      19A     -1.015653    20A     -1.010600    21A     -0.989522
      22A     -0.921329    23A     -0.842243    24A     -0.829648
      25A     -0.816711    26A     -0.784749    27A     -0.712754
      28A     -0.703782    29A     -0.668619    30A     -0.640158
      31A     -0.635263    32A     -0.618424    33A     -0.597637
      34A     -0.587125    35A     -0.584548    36A     -0.582073
      37A     -0.573235    38A     -0.545476    39A     -0.530411
      40A     -0.513310    41A     -0.501317    42A     -0.494902
      43A     -0.489682    44A     -0.485527    45A     -0.441927
      46A     -0.340387    47A     -0.335787    48A     -0.331041
      49A     -0.275853

  @DF-RHF Final Energy:  -554.49020852538456

   => Energetics <=

    Nuclear Repulsion Energy =            787.2324543684744640
    One-Electron Energy =               -2312.1152351466662367
    Two-Electron Energy =                 970.3925722528072129
    Total Energy =                       -554.4902085253845598
  Basis Set: (AUG-CC-PVTZ AUX)
    Blend: AUG-CC-PVTZ-RI
    Molecular point group: c1

    Geometry (in Angstrom), charge = 0, multiplicity = 1:

       Center              X                  Y                   Z               Mass
    ------------   -----------------  -----------------  -----------------  -----------------
         N            0.513521891294     1.178907020013     0.291992831713    14.003074004430
         C           -0.783025108706     0.657456020013     0.151480831713    12.000000000000
         C            1.696591891294     0.444249020013     0.083642831713    12.000000000000
         C           -3.438718108706    -0.310554979987    -0.024328168287    12.000000000000
         C           -1.152843108706    -0.532477979987     0.798738831713    12.000000000000
         C           -1.755537108706     1.362468020013    -0.570582168287    12.000000000000
         C           -2.457703108706    -1.007774979987     0.694635831713    12.000000000000
         C           -3.065108108706     0.888736020013    -0.641385168287    12.000000000000
         C            2.916539891294     1.054013020013     0.418470831713    12.000000000000
         C            1.705542891294    -0.859872979987    -0.433778168287    12.000000000000
         C           -4.858923108706    -0.809669979987    -0.083550168287    12.000000000000
         C            4.120649891294     0.382445020013     0.222308831713    12.000000000000
         C            2.917099891294    -1.530287979987    -0.608141168287    12.000000000000
         C            4.129381891294    -0.920745979987    -0.281454168287    12.000000000000
         H            0.593764891294     2.161874020013     0.052904831713     1.007825032230
         H           -0.419051108706    -1.067140979987     1.396394831713     1.007825032230
         H           -1.480296108706     2.282010020013    -1.085557168287     1.007825032230
         H           -2.722906108706    -1.936026979987     1.199150831713     1.007825032230
         H           -3.817016008706     1.464216420013    -1.218933868287     1.007825032230
         H            2.909638891294     2.059163020013     0.836951831713     1.007825032230
         H            0.774513891294    -1.334299979987    -0.728290168287     1.007825032230
         H           -5.368661108706    -0.438433979987    -0.977295168287     1.007825032230
         H           -4.891595108706    -1.902912979987    -0.105532168287     1.007825032230
         H           -5.434365108706    -0.479224979987     0.788373831713     1.007825032230
         H            5.054851891294     0.874352020013     0.483654831713     1.007825032230
         H            2.908405891294    -2.539558979987    -1.014007168287     1.007825032230
         H            5.067851891294    -1.450080979987    -0.423095168287     1.007825032230

  Basis Set: AUG-CC-PVTZ
    Blend: AUG-CC-PVTZ
  Basis Set: (AUG-CC-PVTZ AUX)
    Blend: AUG-CC-PVTZ-JKFIT
	 Reference Energy          =    -554.4902085253845598 [Eh]
	 Singles Energy            =      -0.0000000000000000 [Eh]
	 Same-Spin Energy          =      -0.6239646546231886 [Eh]
	 Opposite-Spin Energy      =      -1.9528256388952721 [Eh]
	 Correlation Energy        =      -2.5767902935184606 [Eh]
	 Total Energy              =    -557.0669988189030164 [Eh]

	 ================> DF-SCS-MP2 Energies <==================
	-----------------------------------------------------------
	 SCS Same-Spin Scale       =       0.3333333333333333 [-]
	 SCS Opposite-Spin Scale   =       1.2000000000000000 [-]
	 SCS Same-Spin Energy      =      -0.2079882182077295 [Eh]
	 SCS Opposite-Spin Energy  =      -2.3433907666743266 [Eh]
	 SCS Correlation Energy    =      -2.5513789848820561 [Eh]
	 SCS Total Energy          =    -557.0415875102665950 [Eh]
	-----------------------------------------------------------

  Dipole Moment: [D]
     X:    -0.6249      Y:     0.5733      Z:    -0.3365     Total:     0.9124

*** Psi4 exiting successfully. Buy a developer a beer!
