                               Psi4 1.4a3.dev225

  ==> Input File <==

--------------------------------------------------------------------------
#psi4
#
memory 32 gb

molecule  {
0 1
  N        0.5479400     1.1907050     0.2959170
  C       -0.7486070     0.6692540     0.1554050
  C        1.7310100     0.4560470     0.0875670
  C       -3.4043000    -0.2987570    -0.0204040
  C       -1.1184250    -0.5206800     0.8026630
  C       -1.7211190     1.3742660    -0.5666580
  C       -2.4232850    -0.9959770     0.6985600
  C       -3.0306900     0.9005340    -0.6374610
  C        2.9509580     1.0658110     0.4223950
  C        1.7399610    -0.8480750    -0.4298540
  C       -4.8245050    -0.7978720    -0.0796260
  C        4.1550680     0.3942430     0.2262330
  C        2.9515180    -1.5184900    -0.6042170
  C        3.9900795    -0.9962956    -0.3243444
  H        0.6281830     2.1736720     0.0568290
  H       -0.3846330    -1.0553430     1.4003190
  H       -1.4458780     2.2938080    -1.0816330
  H       -2.6884880    -1.9242290     1.2030750
  H       -3.7690390     1.4656370    -1.2045950
  H        2.9440570     2.0709610     0.8408760
  H        0.8089320    -1.3225020    -0.7243660
  H       -5.3342430    -0.4266360    -0.9733710
  H       -4.8571770    -1.8911150    -0.1016080
  H       -5.3999470    -0.4674270     0.7922980
  H        5.0892700     0.8861500     0.4875790
  H        2.9428240    -2.5277610    -1.0100830
  H        5.1022700    -1.4382830    -0.4191710
units angstrom
no_reorient  #important for SAPT in psi4, default
symmetry c1  #important for SAPT in psi4, default
}

set PROPERTIES_ORIGIN ["COM"]
properties('MP2/aug-cc-pvtz', properties = ['dipole'])
--------------------------------------------------------------------------

    Molecular point group: c1
  Charge       = 0
  Multiplicity = 1
  Basis Set: AUG-CC-PVTZ
    Blend: AUG-CC-PVTZ
  Basis Set: (AUG-CC-PVTZ AUX)
    Blend: AUG-CC-PVTZ-JKFIT

    Orbital Energies [Eh]
    ---------------------

    Doubly Occupied:

       1A    -15.576491     2A    -11.280393     3A    -11.276532
       4A    -11.248701     5A    -11.235471     6A    -11.234024
       7A    -11.233855     8A    -11.233390     9A    -11.231895
      10A    -11.229088    11A    -11.222631    12A    -11.221486
      13A    -11.220513    14A    -11.206595    15A     -1.257538
      16A     -1.160412    17A     -1.137240    18A     -1.050069
      19A     -1.018952    20A     -1.013665    21A     -0.984661
      22A     -0.922745    23A     -0.843232    24A     -0.836674
      25A     -0.803406    26A     -0.785420    27A     -0.715668
      28A     -0.704742    29A     -0.657369    30A     -0.639088
      31A     -0.634106    32A     -0.626559    33A     -0.598098
      34A     -0.593344    35A     -0.585012    36A     -0.583014
      37A     -0.572507    38A     -0.545781    39A     -0.532008
      40A     -0.516965    41A     -0.502419    42A     -0.496337
      43A     -0.486122    44A     -0.453080    45A     -0.447392
      46A     -0.356159    47A     -0.338120    48A     -0.323589
      49A     -0.276014

  @DF-RHF Final Energy:  -554.42868102368141

   => Energetics <=

    Nuclear Repulsion Energy =            789.9410504203416394
    One-Electron Energy =               -2317.4423120464025487
    Two-Electron Energy =                 973.0725806023796167
    Total Energy =                       -554.4286810236814063
  Basis Set: (AUG-CC-PVTZ AUX)
    Blend: AUG-CC-PVTZ-RI
    Molecular point group: c1

    Geometry (in Angstrom), charge = 0, multiplicity = 1:

       Center              X                  Y                   Z               Mass
    ------------   -----------------  -----------------  -----------------  -----------------
         N            0.524832250213     1.184688571380     0.295003548015    14.003074004430
         C           -0.771714749787     0.663237571380     0.154491548015    12.000000000000
         C            1.707902250213     0.450030571380     0.086653548015    12.000000000000
         C           -3.427407749787    -0.304773428620    -0.021317451985    12.000000000000
         C           -1.141532749787    -0.526696428620     0.801749548015    12.000000000000
         C           -1.744226749787     1.368249571380    -0.567571451985    12.000000000000
         C           -2.446392749787    -1.001993428620     0.697646548015    12.000000000000
         C           -3.053797749787     0.894517571380    -0.638374451985    12.000000000000
         C            2.927850250213     1.059794571380     0.421481548015    12.000000000000
         C            1.716853250213    -0.854091428620    -0.430767451985    12.000000000000
         C           -4.847612749787    -0.803888428620    -0.080539451985    12.000000000000
         C            4.131960250213     0.388226571380     0.225319548015    12.000000000000
         C            2.928410250213    -1.524506428620    -0.605130451985    12.000000000000
         C            3.966971750213    -1.002312028620    -0.325257851985    12.000000000000
         H            0.605075250213     2.167655571380     0.055915548015     1.007825032230
         H           -0.407740749787    -1.061359428620     1.399405548015     1.007825032230
         H           -1.468985749787     2.287791571380    -1.082546451985     1.007825032230
         H           -2.711595749787    -1.930245428620     1.202161548015     1.007825032230
         H           -3.792146749787     1.459620571380    -1.205508451985     1.007825032230
         H            2.920949250213     2.064944571380     0.839962548015     1.007825032230
         H            0.785824250213    -1.328518428620    -0.725279451985     1.007825032230
         H           -5.357350749787    -0.432652428620    -0.974284451985     1.007825032230
         H           -4.880284749787    -1.897131428620    -0.102521451985     1.007825032230
         H           -5.423054749787    -0.473443428620     0.791384548015     1.007825032230
         H            5.066162250213     0.880133571380     0.486665548015     1.007825032230
         H            2.919716250213    -2.533777428620    -1.010996451985     1.007825032230
         H            5.079162250213    -1.444299428620    -0.420084451985     1.007825032230

  Basis Set: AUG-CC-PVTZ
    Blend: AUG-CC-PVTZ
  Basis Set: (AUG-CC-PVTZ AUX)
    Blend: AUG-CC-PVTZ-JKFIT
	 Reference Energy          =    -554.4286810236814063 [Eh]
	 Singles Energy            =      -0.0000000000000000 [Eh]
	 Same-Spin Energy          =      -0.6233717202869956 [Eh]
	 Opposite-Spin Energy      =      -1.9541210546327632 [Eh]
	 Correlation Energy        =      -2.5774927749197589 [Eh]
	 Total Energy              =    -557.0061737986011394 [Eh]

	 ================> DF-SCS-MP2 Energies <==================
	-----------------------------------------------------------
	 SCS Same-Spin Scale       =       0.3333333333333333 [-]
	 SCS Opposite-Spin Scale   =       1.2000000000000000 [-]
	 SCS Same-Spin Energy      =      -0.2077905734289985 [Eh]
	 SCS Opposite-Spin Energy  =      -2.3449452655593159 [Eh]
	 SCS Correlation Energy    =      -2.5527358389883146 [Eh]
	 SCS Total Energy          =    -556.9814168626696755 [Eh]
	-----------------------------------------------------------

  Dipole Moment: [D]
     X:    -0.5624      Y:     0.6707      Z:    -0.2975     Total:     0.9244

*** Psi4 exiting successfully. Buy a developer a beer!
