                               Psi4 1.4a3.dev225

  ==> Input File <==

--------------------------------------------------------------------------
#psi4
#
memory 32 gb

molecule  {
0 1
  N        0.5479400     1.1907050     0.2959170
  C       -0.7486070     0.6692540     0.1554050
  C        1.7310100     0.4560470     0.0875670
  C       -3.4043000    -0.2987570    -0.0204040
  C       -1.1184250    -0.5206800     0.8026630
  C       -1.7211190     1.3742660    -0.5666580
  C       -2.4232850    -0.9959770     0.6985600
  C       -3.0306900     0.9005340    -0.6374610
  C        2.9509580     1.0658110     0.4223950
  C        1.7393230    -0.7551257    -0.3929756
  C       -4.8245050    -0.7978720    -0.0796260
  C        4.1550680     0.3942430     0.2262330
  C        2.9515180    -1.5184900    -0.6042170
  C        4.1638000    -0.9089480    -0.2775300
  H        0.6281830     2.1736720     0.0568290
  H       -0.3846330    -1.0553430     1.4003190
  H       -1.4458780     2.2938080    -1.0816330
  H       -2.6884880    -1.9242290     1.2030750
  H       -3.7690390     1.4656370    -1.2045950
  H        2.9440570     2.0709610     0.8408760
  H        0.8089320    -1.3225020    -0.7243660
  H       -5.3342430    -0.4266360    -0.9733710
  H       -4.8571770    -1.8911150    -0.1016080
  H       -5.3999470    -0.4674270     0.7922980
  H        5.0892700     0.8861500     0.4875790
  H        2.9428240    -2.5277610    -1.0100830
  H        5.1022700    -1.4382830    -0.4191710
units angstrom
no_reorient  #important for SAPT in psi4, default
symmetry c1  #important for SAPT in psi4, default
}

set PROPERTIES_ORIGIN ["COM"]
properties('MP2/aug-cc-pvtz', properties = ['dipole'])
--------------------------------------------------------------------------

    Molecular point group: c1
  Charge       = 0
  Multiplicity = 1
  Basis Set: AUG-CC-PVTZ
    Blend: AUG-CC-PVTZ
  Basis Set: (AUG-CC-PVTZ AUX)
    Blend: AUG-CC-PVTZ-JKFIT

    Orbital Energies [Eh]
    ---------------------

    Doubly Occupied:

       1A    -15.573541     2A    -11.275733     3A    -11.268964
       4A    -11.242949     5A    -11.238038     6A    -11.234730
       7A    -11.233387     8A    -11.232777     9A    -11.231785
      10A    -11.230993    11A    -11.228486    12A    -11.227155
      13A    -11.223035    14A    -11.222159    15A     -1.259128
      16A     -1.154437    17A     -1.128641    18A     -1.041428
      19A     -1.014986    20A     -1.007580    21A     -0.995732
      22A     -0.920903    23A     -0.845242    24A     -0.829750
      25A     -0.816928    26A     -0.782257    27A     -0.714341
      28A     -0.702698    29A     -0.663903    30A     -0.641299
      31A     -0.634926    32A     -0.618073    33A     -0.605906
      34A     -0.586642    35A     -0.582580    36A     -0.576880
      37A     -0.571531    38A     -0.545398    39A     -0.531485
      40A     -0.510537    41A     -0.504347    42A     -0.495207
      43A     -0.485651    44A     -0.480875    45A     -0.440804
      46A     -0.341412    47A     -0.336279    48A     -0.328684
      49A     -0.279440

  @DF-RHF Final Energy:  -554.47784334313826

   => Energetics <=

    Nuclear Repulsion Energy =            788.7582366915835337
    One-Electron Energy =               -2315.1928845203401579
    Two-Electron Energy =                 971.9568044856183633
    Total Energy =                       -554.4778433431382609
  Basis Set: (AUG-CC-PVTZ AUX)
    Blend: AUG-CC-PVTZ-RI
    Molecular point group: c1

    Geometry (in Angstrom), charge = 0, multiplicity = 1:

       Center              X                  Y                   Z               Mass
    ------------   -----------------  -----------------  -----------------  -----------------
         N            0.513489074029     1.172872590550     0.289518636625    14.003074004430
         C           -0.783057925971     0.651421590550     0.149006636625    12.000000000000
         C            1.696559074029     0.438214590550     0.081168636625    12.000000000000
         C           -3.438750925971    -0.316589409450    -0.026802363375    12.000000000000
         C           -1.152875925971    -0.538512409450     0.796264636625    12.000000000000
         C           -1.755569925971     1.356433590550    -0.573056363375    12.000000000000
         C           -2.457735925971    -1.013809409450     0.692161636625    12.000000000000
         C           -3.065140925971     0.882701590550    -0.643859363375    12.000000000000
         C            2.916507074029     1.047978590550     0.415996636625    12.000000000000
         C            1.704872074029    -0.772958109450    -0.399373963375    12.000000000000
         C           -4.858955925971    -0.815704409450    -0.086024363375    12.000000000000
         C            4.120617074029     0.376410590550     0.219834636625    12.000000000000
         C            2.917067074029    -1.536322409450    -0.610615363375    12.000000000000
         C            4.129349074029    -0.926780409450    -0.283928363375    12.000000000000
         H            0.593732074029     2.155839590550     0.050430636625     1.007825032230
         H           -0.419083925971    -1.073175409450     1.393920636625     1.007825032230
         H           -1.480328925971     2.275975590550    -1.088031363375     1.007825032230
         H           -2.722938925971    -1.942061409450     1.196676636625     1.007825032230
         H           -3.803489925971     1.447804590550    -1.210993363375     1.007825032230
         H            2.909606074029     2.053128590550     0.834477636625     1.007825032230
         H            0.774481074029    -1.340334409450    -0.730764363375     1.007825032230
         H           -5.368693925971    -0.444468409450    -0.979769363375     1.007825032230
         H           -4.891627925971    -1.908947409450    -0.108006363375     1.007825032230
         H           -5.434397925971    -0.485259409450     0.785899636625     1.007825032230
         H            5.054819074029     0.868317590550     0.481180636625     1.007825032230
         H            2.908373074029    -2.545593409450    -1.016481363375     1.007825032230
         H            5.067819074029    -1.456115409450    -0.425569363375     1.007825032230

  Basis Set: AUG-CC-PVTZ
    Blend: AUG-CC-PVTZ
  Basis Set: (AUG-CC-PVTZ AUX)
    Blend: AUG-CC-PVTZ-JKFIT
	 Reference Energy          =    -554.4778433431382609 [Eh]
	 Singles Energy            =      -0.0000000000000000 [Eh]
	 Same-Spin Energy          =      -0.6238031563346820 [Eh]
	 Opposite-Spin Energy      =      -1.9530703911773308 [Eh]
	 Correlation Energy        =      -2.5768735475120126 [Eh]
	 Total Energy              =    -557.0547168906502975 [Eh]

	 ================> DF-SCS-MP2 Energies <==================
	-----------------------------------------------------------
	 SCS Same-Spin Scale       =       0.3333333333333333 [-]
	 SCS Opposite-Spin Scale   =       1.2000000000000000 [-]
	 SCS Same-Spin Energy      =      -0.2079343854448940 [Eh]
	 SCS Opposite-Spin Energy  =      -2.3436844694127967 [Eh]
	 SCS Correlation Energy    =      -2.5516188548576908 [Eh]
	 SCS Total Energy          =    -557.0294621979959402 [Eh]
	-----------------------------------------------------------

  Dipole Moment: [D]
     X:    -0.3979      Y:     0.4974      Z:    -0.3661     Total:     0.7347

*** Psi4 exiting successfully. Buy a developer a beer!
