                               Psi4 1.4a3.dev225

  ==> Input File <==

--------------------------------------------------------------------------
#psi4
#
memory 32 gb

molecule  {
0 1
  N        0.5479400     1.1907050     0.2959170
  C       -0.7486070     0.6692540     0.1554050
  C        1.7310100     0.4560470     0.0875670
  C       -3.4043000    -0.2987570    -0.0204040
  C       -1.1184250    -0.5206800     0.8026630
  C       -1.7211190     1.3742660    -0.5666580
  C       -2.4232850    -0.9959770     0.6985600
  C       -3.0306900     0.9005340    -0.6374610
  C        2.9509580     1.0658110     0.4223950
  C        1.7399610    -0.8480750    -0.4298540
  C       -4.8245050    -0.7978720    -0.0796260
  C        4.1550680     0.3942430     0.2262330
  C        2.9515180    -1.5184900    -0.6042170
  C        4.1638000    -0.9089480    -0.2775300
  H        0.6281830     2.1736720     0.0568290
  H       -0.3846330    -1.0553430     1.4003190
  H       -1.4458780     2.2938080    -1.0816330
  H       -2.6884880    -1.9242290     1.2030750
  H       -3.7690390     1.4656370    -1.2045950
  H        2.9440570     2.0709610     0.8408760
  H        0.8089320    -1.3225020    -0.7243660
  H       -5.3342430    -0.4266360    -0.9733710
  H       -4.8577743    -1.9111020    -0.1020099
  H       -5.3999470    -0.4674270     0.7922980
  H        5.0892700     0.8861500     0.4875790
  H        2.9428240    -2.5277610    -1.0100830
  H        5.1022700    -1.4382830    -0.4191710
units angstrom
no_reorient  #important for SAPT in psi4, default
symmetry c1  #important for SAPT in psi4, default
}

set PROPERTIES_ORIGIN ["COM"]
properties('MP2/aug-cc-pvtz', properties = ['dipole'])
--------------------------------------------------------------------------

    Molecular point group: c1
  Charge       = 0
  Multiplicity = 1
  Basis Set: AUG-CC-PVTZ
    Blend: AUG-CC-PVTZ
  Basis Set: (AUG-CC-PVTZ AUX)
    Blend: AUG-CC-PVTZ-JKFIT

    Orbital Energies [Eh]
    ---------------------

    Doubly Occupied:

       1A    -15.577364     2A    -11.282660     3A    -11.277465
       4A    -11.237903     5A    -11.237198     6A    -11.236386
       7A    -11.234988     8A    -11.234327     9A    -11.232693
      10A    -11.230092    11A    -11.228625    12A    -11.226082
      13A    -11.225593    14A    -11.224469    15A     -1.258262
      16A     -1.151931    17A     -1.128287    18A     -1.040449
      19A     -1.015954    20A     -1.010753    21A     -0.989256
      22A     -0.920384    23A     -0.842760    24A     -0.829646
      25A     -0.816676    26A     -0.785182    27A     -0.713261
      28A     -0.704070    29A     -0.668509    30A     -0.640368
      31A     -0.634886    32A     -0.619080    33A     -0.597561
      34A     -0.587806    35A     -0.585218    36A     -0.582391
      37A     -0.572354    38A     -0.544819    39A     -0.529379
      40A     -0.513402    41A     -0.501391    42A     -0.494486
      43A     -0.489784    44A     -0.485997    45A     -0.441886
      46A     -0.340350    47A     -0.335764    48A     -0.330978
      49A     -0.275813

  @DF-RHF Final Energy:  -554.49033833661929

   => Energetics <=

    Nuclear Repulsion Energy =            787.2539841535158303
    One-Electron Energy =               -2312.1587725327349290
    Two-Electron Energy =                 970.4144500425998103
    Total Energy =                       -554.4903383366192884
  Basis Set: (AUG-CC-PVTZ AUX)
    Blend: AUG-CC-PVTZ-RI
    Molecular point group: c1

    Geometry (in Angstrom), charge = 0, multiplicity = 1:

       Center              X                  Y                   Z               Mass
    ------------   -----------------  -----------------  -----------------  -----------------
         N            0.513450549500     1.179074148360     0.291937720375    14.003074004430
         C           -0.783096450500     0.657623148360     0.151425720375    12.000000000000
         C            1.696520549500     0.444416148360     0.083587720375    12.000000000000
         C           -3.438789450500    -0.310387851640    -0.024383279625    12.000000000000
         C           -1.152914450500    -0.532310851640     0.798683720375    12.000000000000
         C           -1.755608450500     1.362635148360    -0.570637279625    12.000000000000
         C           -2.457774450500    -1.007607851640     0.694580720375    12.000000000000
         C           -3.065179450500     0.888903148360    -0.641440279625    12.000000000000
         C            2.916468549500     1.054180148360     0.418415720375    12.000000000000
         C            1.705471549500    -0.859705851640    -0.433833279625    12.000000000000
         C           -4.858994450500    -0.809502851640    -0.083605279625    12.000000000000
         C            4.120578549500     0.382612148360     0.222253720375    12.000000000000
         C            2.917028549500    -1.530120851640    -0.608196279625    12.000000000000
         C            4.129310549500    -0.920578851640    -0.281509279625    12.000000000000
         H            0.593693549500     2.162041148360     0.052849720375     1.007825032230
         H           -0.419122450500    -1.066973851640     1.396339720375     1.007825032230
         H           -1.480367450500     2.282177148360    -1.085612279625     1.007825032230
         H           -2.722977450500    -1.935859851640     1.199095720375     1.007825032230
         H           -3.803528450500     1.454006148360    -1.208574279625     1.007825032230
         H            2.909567549500     2.059330148360     0.836896720375     1.007825032230
         H            0.774442549500    -1.334132851640    -0.728345279625     1.007825032230
         H           -5.368732450500    -0.438266851640    -0.977350279625     1.007825032230
         H           -4.892263750500    -1.922732851640    -0.105989179625     1.007825032230
         H           -5.434436450500    -0.479057851640     0.788318720375     1.007825032230
         H            5.054780549500     0.874519148360     0.483599720375     1.007825032230
         H            2.908334549500    -2.539391851640    -1.014062279625     1.007825032230
         H            5.067780549500    -1.449913851640    -0.423150279625     1.007825032230

  Basis Set: AUG-CC-PVTZ
    Blend: AUG-CC-PVTZ
  Basis Set: (AUG-CC-PVTZ AUX)
    Blend: AUG-CC-PVTZ-JKFIT
	 Reference Energy          =    -554.4903383366192884 [Eh]
	 Singles Energy            =      -0.0000000000000000 [Eh]
	 Same-Spin Energy          =      -0.6239192321316209 [Eh]
	 Opposite-Spin Energy      =      -1.9527935301906625 [Eh]
	 Correlation Energy        =      -2.5767127623222832 [Eh]
	 Total Energy              =    -557.0670510989415334 [Eh]

	 ================> DF-SCS-MP2 Energies <==================
	-----------------------------------------------------------
	 SCS Same-Spin Scale       =       0.3333333333333333 [-]
	 SCS Opposite-Spin Scale   =       1.2000000000000000 [-]
	 SCS Same-Spin Energy      =      -0.2079730773772070 [Eh]
	 SCS Opposite-Spin Energy  =      -2.3433522362287951 [Eh]
	 SCS Correlation Energy    =      -2.5513253136060019 [Eh]
	 SCS Total Energy          =    -557.0416636502252459 [Eh]
	-----------------------------------------------------------

  Dipole Moment: [D]
     X:    -0.6263      Y:     0.5884      Z:    -0.3407     Total:     0.9244

*** Psi4 exiting successfully. Buy a developer a beer!
