                               Psi4 1.4a3.dev225

  ==> Input File <==

--------------------------------------------------------------------------
#psi4
#
memory 32 gb

molecule  {
0 1
  N        0.5479400     1.1907050     0.2959170
  C       -0.7403905     0.6473932     0.1628544
  C        1.7310100     0.4560470     0.0875670
  C       -3.4043000    -0.2987570    -0.0204040
  C       -1.1184250    -0.5206800     0.8026630
  C       -1.7211190     1.3742660    -0.5666580
  C       -2.4232850    -0.9959770     0.6985600
  C       -3.0306900     0.9005340    -0.6374610
  C        2.9509580     1.0658110     0.4223950
  C        1.7399610    -0.8480750    -0.4298540
  C       -4.8245050    -0.7978720    -0.0796260
  C        4.1550680     0.3942430     0.2262330
  C        2.9515180    -1.5184900    -0.6042170
  C        4.1638000    -0.9089480    -0.2775300
  H        0.6281830     2.1736720     0.0568290
  H       -0.3846330    -1.0553430     1.4003190
  H       -1.4458780     2.2938080    -1.0816330
  H       -2.6884880    -1.9242290     1.2030750
  H       -3.7690390     1.4656370    -1.2045950
  H        2.9440570     2.0709610     0.8408760
  H        0.8089320    -1.3225020    -0.7243660
  H       -5.3342430    -0.4266360    -0.9733710
  H       -4.8571770    -1.8911150    -0.1016080
  H       -5.3999470    -0.4674270     0.7922980
  H        5.0892700     0.8861500     0.4875790
  H        2.9428240    -2.5277610    -1.0100830
  H        5.1022700    -1.4382830    -0.4191710
units angstrom
no_reorient  #important for SAPT in psi4, default
symmetry c1  #important for SAPT in psi4, default
}

set PROPERTIES_ORIGIN ["COM"]
properties('MP2/aug-cc-pvtz', properties = ['dipole'])
--------------------------------------------------------------------------

    Molecular point group: c1
  Charge       = 0
  Multiplicity = 1
  Basis Set: AUG-CC-PVTZ
    Blend: AUG-CC-PVTZ
  Basis Set: (AUG-CC-PVTZ AUX)
    Blend: AUG-CC-PVTZ-JKFIT

    Orbital Energies [Eh]
    ---------------------

    Doubly Occupied:

       1A    -15.577347     2A    -11.282108     3A    -11.277354
       4A    -11.237748     5A    -11.237078     6A    -11.236310
       7A    -11.235434     8A    -11.234470     9A    -11.234137
      10A    -11.228365    11A    -11.227811    12A    -11.225895
      13A    -11.224318    14A    -11.223194    15A     -1.258289
      16A     -1.151730    17A     -1.128190    18A     -1.040640
      19A     -1.015839    20A     -1.010940    21A     -0.989121
      22A     -0.921623    23A     -0.842537    24A     -0.829857
      25A     -0.816612    26A     -0.784870    27A     -0.712642
      28A     -0.705122    29A     -0.668085    30A     -0.641266
      31A     -0.634454    32A     -0.618788    33A     -0.597299
      34A     -0.589889    35A     -0.585075    36A     -0.581352
      37A     -0.573325    38A     -0.545693    39A     -0.530185
      40A     -0.513198    41A     -0.501391    42A     -0.495077
      43A     -0.489598    44A     -0.485564    45A     -0.441506
      46A     -0.340837    47A     -0.336042    48A     -0.329912
      49A     -0.275716

  @DF-RHF Final Energy:  -554.49007722168653

   => Energetics <=

    Nuclear Repulsion Energy =            787.4405021021945004
    One-Electron Energy =               -2312.5334909244288610
    Two-Electron Energy =                 970.6029116005479409
    Total Energy =                       -554.4900772216865334
  Basis Set: (AUG-CC-PVTZ AUX)
    Blend: AUG-CC-PVTZ-RI
    Molecular point group: c1

    Geometry (in Angstrom), charge = 0, multiplicity = 1:

       Center              X                  Y                   Z               Mass
    ------------   -----------------  -----------------  -----------------  -----------------
         N            0.512908783395     1.180396812767     0.291447302619    14.003074004430
         C           -0.775421716605     0.637085012767     0.158384702619    12.000000000000
         C            1.695978783395     0.445738812767     0.083097302619    12.000000000000
         C           -3.439331216605    -0.309065187233    -0.024873697381    12.000000000000
         C           -1.153456216605    -0.530988187233     0.798193302619    12.000000000000
         C           -1.756150216605     1.363957812767    -0.571127697381    12.000000000000
         C           -2.458316216605    -1.006285187233     0.694090302619    12.000000000000
         C           -3.065721216605     0.890225812767    -0.641930697381    12.000000000000
         C            2.915926783395     1.055502812767     0.417925302619    12.000000000000
         C            1.704929783395    -0.858383187233    -0.434323697381    12.000000000000
         C           -4.859536216605    -0.808180187233    -0.084095697381    12.000000000000
         C            4.120036783395     0.383934812767     0.221763302619    12.000000000000
         C            2.916486783395    -1.528798187233    -0.608686697381    12.000000000000
         C            4.128768783395    -0.919256187233    -0.281999697381    12.000000000000
         H            0.593151783395     2.163363812767     0.052359302619     1.007825032230
         H           -0.419664216605    -1.065651187233     1.395849302619     1.007825032230
         H           -1.480909216605     2.283499812767    -1.086102697381     1.007825032230
         H           -2.723519216605    -1.934537187233     1.198605302619     1.007825032230
         H           -3.804070216605     1.455328812767    -1.209064697381     1.007825032230
         H            2.909025783395     2.060652812767     0.836406302619     1.007825032230
         H            0.773900783395    -1.332810187233    -0.728835697381     1.007825032230
         H           -5.369274216605    -0.436944187233    -0.977840697381     1.007825032230
         H           -4.892208216605    -1.901423187233    -0.106077697381     1.007825032230
         H           -5.434978216605    -0.477735187233     0.787828302619     1.007825032230
         H            5.054238783395     0.875841812767     0.483109302619     1.007825032230
         H            2.907792783395    -2.538069187233    -1.014552697381     1.007825032230
         H            5.067238783395    -1.448591187233    -0.423640697381     1.007825032230

  Basis Set: AUG-CC-PVTZ
    Blend: AUG-CC-PVTZ
  Basis Set: (AUG-CC-PVTZ AUX)
    Blend: AUG-CC-PVTZ-JKFIT
	 Reference Energy          =    -554.4900772216865334 [Eh]
	 Singles Energy            =      -0.0000000000000000 [Eh]
	 Same-Spin Energy          =      -0.6239594110726466 [Eh]
	 Opposite-Spin Energy      =      -1.9527248299269135 [Eh]
	 Correlation Energy        =      -2.5766842409995601 [Eh]
	 Total Energy              =    -557.0667614626861450 [Eh]

	 ================> DF-SCS-MP2 Energies <==================
	-----------------------------------------------------------
	 SCS Same-Spin Scale       =       0.3333333333333333 [-]
	 SCS Opposite-Spin Scale   =       1.2000000000000000 [-]
	 SCS Same-Spin Energy      =      -0.2079864703575489 [Eh]
	 SCS Opposite-Spin Energy  =      -2.3432697959122963 [Eh]
	 SCS Correlation Energy    =      -2.5512562662698453 [Eh]
	 SCS Total Energy          =    -557.0413334879564218 [Eh]
	-----------------------------------------------------------

  Dipole Moment: [D]
     X:    -0.6419      Y:     0.5842      Z:    -0.3367     Total:     0.9310

*** Psi4 exiting successfully. Buy a developer a beer!
