                               Psi4 1.4a3.dev225

  ==> Input File <==

--------------------------------------------------------------------------
#psi4
#
memory 32 gb

molecule  {
0 1
  N        0.5479400     1.1907050     0.2959170
  C       -0.7486070     0.6692540     0.1554050
  C        1.7310100     0.4560470     0.0875670
  C       -3.4673839    -0.3695925     0.0036388
  C       -1.1184250    -0.5206800     0.8026630
  C       -1.7211190     1.3742660    -0.5666580
  C       -2.4232850    -0.9959770     0.6985600
  C       -3.0306900     0.9005340    -0.6374610
  C        2.9509580     1.0658110     0.4223950
  C        1.7399610    -0.8480750    -0.4298540
  C       -4.8245050    -0.7978720    -0.0796260
  C        4.1550680     0.3942430     0.2262330
  C        2.9515180    -1.5184900    -0.6042170
  C        4.1638000    -0.9089480    -0.2775300
  H        0.6281830     2.1736720     0.0568290
  H       -0.3846330    -1.0553430     1.4003190
  H       -1.4458780     2.2938080    -1.0816330
  H       -2.6884880    -1.9242290     1.2030750
  H       -3.7690390     1.4656370    -1.2045950
  H        2.9440570     2.0709610     0.8408760
  H        0.8089320    -1.3225020    -0.7243660
  H       -5.3342430    -0.4266360    -0.9733710
  H       -4.8571770    -1.8911150    -0.1016080
  H       -5.3999470    -0.4674270     0.7922980
  H        5.0892700     0.8861500     0.4875790
  H        2.9428240    -2.5277610    -1.0100830
  H        5.1022700    -1.4382830    -0.4191710
units angstrom
no_reorient  #important for SAPT in psi4, default
symmetry c1  #important for SAPT in psi4, default
}

set PROPERTIES_ORIGIN ["COM"]
properties('MP2/aug-cc-pvtz', properties = ['dipole'])
--------------------------------------------------------------------------

    Molecular point group: c1
  Charge       = 0
  Multiplicity = 1
  Basis Set: AUG-CC-PVTZ
    Blend: AUG-CC-PVTZ
  Basis Set: (AUG-CC-PVTZ AUX)
    Blend: AUG-CC-PVTZ-JKFIT

    Orbital Energies [Eh]
    ---------------------

    Doubly Occupied:

       1A    -15.577737     2A    -11.282627     3A    -11.277938
       4A    -11.243700     5A    -11.241278     6A    -11.237767
       7A    -11.236997     8A    -11.234011     9A    -11.233690
      10A    -11.228791    11A    -11.228568    12A    -11.225829
      13A    -11.224364    14A    -11.221390    15A     -1.258282
      16A     -1.148573    17A     -1.126133    18A     -1.050464
      19A     -1.013982    20A     -1.009047    21A     -0.992785
      22A     -0.923429    23A     -0.839447    24A     -0.830595
      25A     -0.811818    26A     -0.784128    27A     -0.712249
      28A     -0.703138    29A     -0.668541    30A     -0.646936
      31A     -0.635536    32A     -0.617145    33A     -0.597739
      34A     -0.589265    35A     -0.583844    36A     -0.581614
      37A     -0.577040    38A     -0.546656    39A     -0.535464
      40A     -0.525635    41A     -0.506278    42A     -0.492287
      43A     -0.490377    44A     -0.468548    45A     -0.438065
      46A     -0.340062    47A     -0.335692    48A     -0.326495
      49A     -0.272557

  @DF-RHF Final Energy:  -554.47679450258306

   => Energetics <=

    Nuclear Repulsion Energy =            786.3929257633378711
    One-Electron Energy =               -2310.3903833151025538
    Two-Electron Energy =                 969.5206630491816213
    Total Energy =                       -554.4767945025830613
  Basis Set: (AUG-CC-PVTZ AUX)
    Blend: AUG-CC-PVTZ-RI
    Molecular point group: c1

    Geometry (in Angstrom), charge = 0, multiplicity = 1:

       Center              X                  Y                   Z               Mass
    ------------   -----------------  -----------------  -----------------  -----------------
         N            0.517581543491     1.183606430439     0.290359833581    14.003074004430
         C           -0.778965456509     0.662155430439     0.149847833581    12.000000000000
         C            1.700651543491     0.448948430439     0.082009833581    12.000000000000
         C           -3.497742356509    -0.376691069561    -0.001918366419    12.000000000000
         C           -1.148783456509    -0.527778569561     0.797105833581    12.000000000000
         C           -1.751477456509     1.367167430439    -0.572215166419    12.000000000000
         C           -2.453643456509    -1.003075569561     0.693002833581    12.000000000000
         C           -3.061048456509     0.893435430439    -0.643018166419    12.000000000000
         C            2.920599543491     1.058712430439     0.416837833581    12.000000000000
         C            1.709602543491    -0.855173569561    -0.435411166419    12.000000000000
         C           -4.854863456509    -0.804970569561    -0.085183166419    12.000000000000
         C            4.124709543491     0.387144430439     0.220675833581    12.000000000000
         C            2.921159543491    -1.525588569561    -0.609774166419    12.000000000000
         C            4.133441543491    -0.916046569561    -0.283087166419    12.000000000000
         H            0.597824543491     2.166573430439     0.051271833581     1.007825032230
         H           -0.414991456509    -1.062441569561     1.394761833581     1.007825032230
         H           -1.476236456509     2.286709430439    -1.087190166419     1.007825032230
         H           -2.718846456509    -1.931327569561     1.197517833581     1.007825032230
         H           -3.799397456509     1.458538430439    -1.210152166419     1.007825032230
         H            2.913698543491     2.063862430439     0.835318833581     1.007825032230
         H            0.778573543491    -1.329600569561    -0.729923166419     1.007825032230
         H           -5.364601456509    -0.433734569561    -0.978928166419     1.007825032230
         H           -4.887535456509    -1.898213569561    -0.107165166419     1.007825032230
         H           -5.430305456509    -0.474525569561     0.786740833581     1.007825032230
         H            5.058911543491     0.879051430439     0.482021833581     1.007825032230
         H            2.912465543491    -2.534859569561    -1.015640166419     1.007825032230
         H            5.071911543491    -1.445381569561    -0.424728166419     1.007825032230

  Basis Set: AUG-CC-PVTZ
    Blend: AUG-CC-PVTZ
  Basis Set: (AUG-CC-PVTZ AUX)
    Blend: AUG-CC-PVTZ-JKFIT
	 Reference Energy          =    -554.4767945025830613 [Eh]
	 Singles Energy            =      -0.0000000000000000 [Eh]
	 Same-Spin Energy          =      -0.6250186426532908 [Eh]
	 Opposite-Spin Energy      =      -1.9546248483806052 [Eh]
	 Correlation Energy        =      -2.5796434910338961 [Eh]
	 Total Energy              =    -557.0564379936170099 [Eh]

	 ================> DF-SCS-MP2 Energies <==================
	-----------------------------------------------------------
	 SCS Same-Spin Scale       =       0.3333333333333333 [-]
	 SCS Opposite-Spin Scale   =       1.2000000000000000 [-]
	 SCS Same-Spin Energy      =      -0.2083395475510969 [Eh]
	 SCS Opposite-Spin Energy  =      -2.3455498180567260 [Eh]
	 SCS Correlation Energy    =      -2.5538893656078230 [Eh]
	 SCS Total Energy          =    -557.0306838681908630 [Eh]
	-----------------------------------------------------------

  Dipole Moment: [D]
     X:    -0.7462      Y:     0.5718      Z:    -0.3619     Total:     1.0074

*** Psi4 exiting successfully. Buy a developer a beer!
