                               Psi4 1.4a3.dev225

  ==> Input File <==

--------------------------------------------------------------------------
#psi4
#
memory 32 gb

molecule  {
0 1
  N        0.5479400     1.1907050     0.2959170
  C       -0.7486070     0.6692540     0.1554050
  C        1.7310100     0.4560470     0.0875670
  C       -3.4043000    -0.2987570    -0.0204040
  C       -1.1184250    -0.5206800     0.8026630
  C       -1.7211190     1.3742660    -0.5666580
  C       -2.4232850    -0.9959770     0.6985600
  C       -3.0306900     0.9005340    -0.6374610
  C        2.9509580     1.0658110     0.4223950
  C        1.7399610    -0.8480750    -0.4298540
  C       -4.8245050    -0.7978720    -0.0796260
  C        4.1550680     0.3942430     0.2262330
  C        2.9515180    -1.5184900    -0.6042170
  C        4.1638000    -0.9089480    -0.2775300
  H        0.6281830     2.1736720     0.0568290
  H       -0.3846330    -1.0553430     1.4003190
  H       -1.4458780     2.2938080    -1.0816330
  H       -2.6884880    -1.9242290     1.2030750
  H       -3.7690390     1.4656370    -1.2045950
  H        2.9440570     2.0709610     0.8408760
  H        0.8089320    -1.3225020    -0.7243660
  H       -5.3342430    -0.4266360    -0.9733710
  H       -4.8571770    -1.8911150    -0.1016080
  H       -5.2949115    -0.5277432     0.6331456
  H        5.0892700     0.8861500     0.4875790
  H        2.9428240    -2.5277610    -1.0100830
  H        5.1022700    -1.4382830    -0.4191710
units angstrom
no_reorient  #important for SAPT in psi4, default
symmetry c1  #important for SAPT in psi4, default
}

set PROPERTIES_ORIGIN ["COM"]
properties('MP2/aug-cc-pvtz', properties = ['dipole'])
--------------------------------------------------------------------------

    Molecular point group: c1
  Charge       = 0
  Multiplicity = 1
  Basis Set: AUG-CC-PVTZ
    Blend: AUG-CC-PVTZ
  Basis Set: (AUG-CC-PVTZ AUX)
    Blend: AUG-CC-PVTZ-JKFIT

    Orbital Energies [Eh]
    ---------------------

    Doubly Occupied:

       1A    -15.576951     2A    -11.282383     3A    -11.276865
       4A    -11.237680     5A    -11.236966     6A    -11.235346
       7A    -11.234259     8A    -11.233585     9A    -11.232189
      10A    -11.229647    11A    -11.228372    12A    -11.225807
      13A    -11.224233    14A    -11.198532    15A     -1.257865
      16A     -1.151874    17A     -1.128468    18A     -1.046568
      19A     -1.015517    20A     -1.010710    21A     -0.993791
      22A     -0.935436    23A     -0.842439    24A     -0.831301
      25A     -0.817340    26A     -0.786609    27A     -0.713096
      28A     -0.703994    29A     -0.669475    30A     -0.643822
      31A     -0.635095    32A     -0.619761    33A     -0.608778
      34A     -0.596510    35A     -0.584966    36A     -0.584074
      37A     -0.582004    38A     -0.545974    39A     -0.529881
      40A     -0.513144    41A     -0.502645    42A     -0.494671
      43A     -0.489336    44A     -0.485896    45A     -0.442860
      46A     -0.339940    47A     -0.335451    48A     -0.331421
      49A     -0.275850

  @DF-RHF Final Energy:  -554.45731736518519

   => Energetics <=

    Nuclear Repulsion Energy =            788.3512207283412181
    One-Electron Energy =               -2314.2183311529502134
    Two-Electron Energy =                 971.4097930594239187
    Total Energy =                       -554.4573173651851903
  Basis Set: (AUG-CC-PVTZ AUX)
    Blend: AUG-CC-PVTZ-RI
    Molecular point group: c1

    Geometry (in Angstrom), charge = 0, multiplicity = 1:

       Center              X                  Y                   Z               Mass
    ------------   -----------------  -----------------  -----------------  -----------------
         N            0.512869137214     1.179296123848     0.292811497186    14.003074004430
         C           -0.783677862786     0.657845123848     0.152299497186    12.000000000000
         C            1.695939137214     0.444638123848     0.084461497186    12.000000000000
         C           -3.439370862786    -0.310165876152    -0.023509502814    12.000000000000
         C           -1.153495862786    -0.532088876152     0.799557497186    12.000000000000
         C           -1.756189862786     1.362857123848    -0.569763502814    12.000000000000
         C           -2.458355862786    -1.007385876152     0.695454497186    12.000000000000
         C           -3.065760862786     0.889125123848    -0.640566502814    12.000000000000
         C            2.915887137214     1.054402123848     0.419289497186    12.000000000000
         C            1.704890137214    -0.859483876152    -0.432959502814    12.000000000000
         C           -4.859575862786    -0.809280876152    -0.082731502814    12.000000000000
         C            4.119997137214     0.382834123848     0.223127497186    12.000000000000
         C            2.916447137214    -1.529898876152    -0.607322502814    12.000000000000
         C            4.128729137214    -0.920356876152    -0.280635502814    12.000000000000
         H            0.593112137214     2.162263123848     0.053723497186     1.007825032230
         H           -0.419703862786    -1.066751876152     1.397213497186     1.007825032230
         H           -1.480948862786     2.282399123848    -1.084738502814     1.007825032230
         H           -2.723558862786    -1.935637876152     1.199969497186     1.007825032230
         H           -3.804109862786     1.454228123848    -1.207700502814     1.007825032230
         H            2.908986137214     2.059552123848     0.837770497186     1.007825032230
         H            0.773861137214    -1.333910876152    -0.727471502814     1.007825032230
         H           -5.369313862786    -0.438044876152    -0.976476502814     1.007825032230
         H           -4.892247862786    -1.902523876152    -0.104713502814     1.007825032230
         H           -5.329982362786    -0.539152076152     0.630040097186     1.007825032230
         H            5.054199137214     0.874741123848     0.484473497186     1.007825032230
         H            2.907753137214    -2.539169876152    -1.013188502814     1.007825032230
         H            5.067199137214    -1.449691876152    -0.422276502814     1.007825032230

  Basis Set: AUG-CC-PVTZ
    Blend: AUG-CC-PVTZ
  Basis Set: (AUG-CC-PVTZ AUX)
    Blend: AUG-CC-PVTZ-JKFIT
	 Reference Energy          =    -554.4573173651851903 [Eh]
	 Singles Energy            =      -0.0000000000000000 [Eh]
	 Same-Spin Energy          =      -0.6240523603521695 [Eh]
	 Opposite-Spin Energy      =      -1.9520825952739473 [Eh]
	 Correlation Energy        =      -2.5761349556261166 [Eh]
	 Total Energy              =    -557.0334523208113069 [Eh]

	 ================> DF-SCS-MP2 Energies <==================
	-----------------------------------------------------------
	 SCS Same-Spin Scale       =       0.3333333333333333 [-]
	 SCS Opposite-Spin Scale   =       1.2000000000000000 [-]
	 SCS Same-Spin Energy      =      -0.2080174534507231 [Eh]
	 SCS Opposite-Spin Energy  =      -2.3424991143287368 [Eh]
	 SCS Correlation Energy    =      -2.5505165677794599 [Eh]
	 SCS Total Energy          =    -557.0078339329646724 [Eh]
	-----------------------------------------------------------

  Dipole Moment: [D]
     X:    -0.7105      Y:     0.5760      Z:    -0.3061     Total:     0.9645

*** Psi4 exiting successfully. Buy a developer a beer!
