                               Psi4 1.4a3.dev225

  ==> Input File <==

--------------------------------------------------------------------------
#psi4
#
memory 32 gb

molecule  {
0 1
  N        0.5479400     1.1907050     0.2959170
  C       -0.7486070     0.6692540     0.1554050
  C        1.7310100     0.4560470     0.0875670
  C       -3.4043000    -0.2987570    -0.0204040
  C       -1.1315937    -0.5630519     0.8257110
  C       -1.7211190     1.3742660    -0.5666580
  C       -2.4232850    -0.9959770     0.6985600
  C       -3.0306900     0.9005340    -0.6374610
  C        2.9509580     1.0658110     0.4223950
  C        1.7399610    -0.8480750    -0.4298540
  C       -4.8245050    -0.7978720    -0.0796260
  C        4.1550680     0.3942430     0.2262330
  C        2.9515180    -1.5184900    -0.6042170
  C        4.1638000    -0.9089480    -0.2775300
  H        0.6281830     2.1736720     0.0568290
  H       -0.3846330    -1.0553430     1.4003190
  H       -1.4458780     2.2938080    -1.0816330
  H       -2.6884880    -1.9242290     1.2030750
  H       -3.7690390     1.4656370    -1.2045950
  H        2.9440570     2.0709610     0.8408760
  H        0.8089320    -1.3225020    -0.7243660
  H       -5.3342430    -0.4266360    -0.9733710
  H       -4.8571770    -1.8911150    -0.1016080
  H       -5.3999470    -0.4674270     0.7922980
  H        5.0892700     0.8861500     0.4875790
  H        2.9428240    -2.5277610    -1.0100830
  H        5.1022700    -1.4382830    -0.4191710
units angstrom
no_reorient  #important for SAPT in psi4, default
symmetry c1  #important for SAPT in psi4, default
}

set PROPERTIES_ORIGIN ["COM"]
properties('MP2/aug-cc-pvtz', properties = ['dipole'])
--------------------------------------------------------------------------

    Molecular point group: c1
  Charge       = 0
  Multiplicity = 1
  Basis Set: AUG-CC-PVTZ
    Blend: AUG-CC-PVTZ
  Basis Set: (AUG-CC-PVTZ AUX)
    Blend: AUG-CC-PVTZ-JKFIT

    Orbital Energies [Eh]
    ---------------------

    Doubly Occupied:

       1A    -15.578708     2A    -11.283170     3A    -11.282524
       4A    -11.238415     5A    -11.237718     6A    -11.235460
       7A    -11.234257     8A    -11.232450     9A    -11.231151
      10A    -11.230875    11A    -11.229233    12A    -11.226709
      13A    -11.225057    14A    -11.222772    15A     -1.257765
      16A     -1.150691    17A     -1.128728    18A     -1.037838
      19A     -1.018508    20A     -1.011902    21A     -0.989671
      22A     -0.918970    23A     -0.841313    24A     -0.830634
      25A     -0.815978    26A     -0.786769    27A     -0.713413
      28A     -0.703266    29A     -0.669249    30A     -0.645855
      31A     -0.634276    32A     -0.618917    33A     -0.598136
      34A     -0.588772    35A     -0.583895    36A     -0.583059
      37A     -0.572641    38A     -0.544374    39A     -0.529881
      40A     -0.514646    41A     -0.502806    42A     -0.493358
      43A     -0.491571    44A     -0.481963    45A     -0.442235
      46A     -0.343247    47A     -0.336899    48A     -0.329160
      49A     -0.273537

  @DF-RHF Final Energy:  -554.48763621585317

   => Energetics <=

    Nuclear Repulsion Energy =            786.6704827580787196
    One-Electron Energy =               -2310.9713925870796629
    Two-Electron Energy =                 969.8132736131476577
    Total Energy =                       -554.4876362158531720
  Basis Set: (AUG-CC-PVTZ AUX)
    Blend: AUG-CC-PVTZ-RI
    Molecular point group: c1

    Geometry (in Angstrom), charge = 0, multiplicity = 1:

       Center              X                  Y                   Z               Mass
    ------------   -----------------  -----------------  -----------------  -----------------
         N            0.514310288986     1.181741033131     0.290425029033    14.003074004430
         C           -0.782236711014     0.660290033131     0.149913029033    12.000000000000
         C            1.697380288986     0.447083033131     0.082075029033    12.000000000000
         C           -3.437929711014    -0.307720966869    -0.025895970967    12.000000000000
         C           -1.165223411014    -0.572015866869     0.820219029033    12.000000000000
         C           -1.754748711014     1.365302033131    -0.572149970967    12.000000000000
         C           -2.456914711014    -1.004940966869     0.693068029033    12.000000000000
         C           -3.064319711014     0.891570033131    -0.642952970967    12.000000000000
         C            2.917328288986     1.056847033131     0.416903029033    12.000000000000
         C            1.706331288986    -0.857038966869    -0.435345970967    12.000000000000
         C           -4.858134711014    -0.806835966869    -0.085117970967    12.000000000000
         C            4.121438288986     0.385279033131     0.220741029033    12.000000000000
         C            2.917888288986    -1.527453966869    -0.609708970967    12.000000000000
         C            4.130170288986    -0.917911966869    -0.283021970967    12.000000000000
         H            0.594553288986     2.164708033131     0.051337029033     1.007825032230
         H           -0.418262711014    -1.064306966869     1.394827029033     1.007825032230
         H           -1.479507711014     2.284844033131    -1.087124970967     1.007825032230
         H           -2.722117711014    -1.933192966869     1.197583029033     1.007825032230
         H           -3.802668711014     1.456673033131    -1.210086970967     1.007825032230
         H            2.910427288986     2.061997033131     0.835384029033     1.007825032230
         H            0.775302288986    -1.331465966869    -0.729857970967     1.007825032230
         H           -5.367872711014    -0.435599966869    -0.978862970967     1.007825032230
         H           -4.890806711014    -1.900078966869    -0.107099970967     1.007825032230
         H           -5.433576711014    -0.476390966869     0.786806029033     1.007825032230
         H            5.055640288986     0.877186033131     0.482087029033     1.007825032230
         H            2.909194288986    -2.536724966869    -1.015574970967     1.007825032230
         H            5.068640288986    -1.447246966869    -0.424662970967     1.007825032230

  Basis Set: AUG-CC-PVTZ
    Blend: AUG-CC-PVTZ
  Basis Set: (AUG-CC-PVTZ AUX)
    Blend: AUG-CC-PVTZ-JKFIT
	 Reference Energy          =    -554.4876362158531720 [Eh]
	 Singles Energy            =      -0.0000000000000000 [Eh]
	 Same-Spin Energy          =      -0.6238125575027560 [Eh]
	 Opposite-Spin Energy      =      -1.9529074936930195 [Eh]
	 Correlation Energy        =      -2.5767200511957755 [Eh]
	 Total Energy              =    -557.0643562670489928 [Eh]

	 ================> DF-SCS-MP2 Energies <==================
	-----------------------------------------------------------
	 SCS Same-Spin Scale       =       0.3333333333333333 [-]
	 SCS Opposite-Spin Scale   =       1.2000000000000000 [-]
	 SCS Same-Spin Energy      =      -0.2079375191675853 [Eh]
	 SCS Opposite-Spin Energy  =      -2.3434889924316233 [Eh]
	 SCS Correlation Energy    =      -2.5514265115992085 [Eh]
	 SCS Total Energy          =    -557.0390627274523467 [Eh]
	-----------------------------------------------------------

  Dipole Moment: [D]
     X:    -0.5510      Y:     0.5876      Z:    -0.3358     Total:     0.8727

*** Psi4 exiting successfully. Buy a developer a beer!
