                               Psi4 1.4a3.dev225

  ==> Input File <==

--------------------------------------------------------------------------
#psi4
#
memory 32 gb

molecule  {
0 1
  N        0.5479400     1.1907050     0.2959170
  C       -0.7486070     0.6692540     0.1554050
  C        1.7310100     0.4560470     0.0875670
  C       -3.4043000    -0.2987570    -0.0204040
  C       -1.1184250    -0.5206800     0.8026630
  C       -1.7211190     1.3742660    -0.5666580
  C       -2.4232850    -0.9959770     0.6985600
  C       -3.0306900     0.9005340    -0.6374610
  C        2.9509580     1.0658110     0.4223950
  C        1.7399610    -0.8480750    -0.4298540
  C       -4.8245050    -0.7978720    -0.0796260
  C        4.1550680     0.3942430     0.2262330
  C        2.9515180    -1.5184900    -0.6042170
  C        4.1638000    -0.9089480    -0.2775300
  H        0.6281830     2.1736720     0.0568290
  H       -0.3846330    -1.0553430     1.4003190
  H       -1.4458780     2.2938080    -1.0816330
  H       -2.6884880    -1.9242290     1.2030750
  H       -3.7690390     1.4656370    -1.2045950
  H        2.9446908     1.9786444     0.8024412
  H        0.8089320    -1.3225020    -0.7243660
  H       -5.3342430    -0.4266360    -0.9733710
  H       -4.8571770    -1.8911150    -0.1016080
  H       -5.3999470    -0.4674270     0.7922980
  H        5.0892700     0.8861500     0.4875790
  H        2.9428240    -2.5277610    -1.0100830
  H        5.1022700    -1.4382830    -0.4191710
units angstrom
no_reorient  #important for SAPT in psi4, default
symmetry c1  #important for SAPT in psi4, default
}

set PROPERTIES_ORIGIN ["COM"]
properties('MP2/aug-cc-pvtz', properties = ['dipole'])
--------------------------------------------------------------------------

    Molecular point group: c1
  Charge       = 0
  Multiplicity = 1
  Basis Set: AUG-CC-PVTZ
    Blend: AUG-CC-PVTZ
  Basis Set: (AUG-CC-PVTZ AUX)
    Blend: AUG-CC-PVTZ-JKFIT

    Orbital Energies [Eh]
    ---------------------

    Doubly Occupied:

       1A    -15.577438     2A    -11.281669     3A    -11.277429
       4A    -11.236994     5A    -11.236804     6A    -11.236237
       7A    -11.234864     8A    -11.234247     9A    -11.232636
      10A    -11.230052    11A    -11.225318    12A    -11.223738
      13A    -11.223172    14A    -11.216448    15A     -1.258349
      16A     -1.152043    17A     -1.128193    18A     -1.040994
      19A     -1.016829    20A     -1.012411    21A     -0.990023
      22A     -0.921575    23A     -0.845166    24A     -0.830445
      25A     -0.820132    26A     -0.785074    27A     -0.715564
      28A     -0.705551    29A     -0.674453    30A     -0.641414
      31A     -0.636123    32A     -0.619326    33A     -0.599612
      34A     -0.589762    35A     -0.587061    36A     -0.583227
      37A     -0.573338    38A     -0.545913    39A     -0.530500
      40A     -0.513402    41A     -0.503238    42A     -0.494611
      43A     -0.490743    44A     -0.486097    45A     -0.441711
      46A     -0.340135    47A     -0.335385    48A     -0.330663
      49A     -0.275594

  @DF-RHF Final Energy:  -554.48514678470383

   => Energetics <=

    Nuclear Repulsion Energy =            787.8864319990428839
    One-Electron Energy =               -2313.3797551992706758
    Two-Electron Energy =                 971.0081764155238488
    Total Energy =                       -554.4851467847038293
  Basis Set: (AUG-CC-PVTZ AUX)
    Blend: AUG-CC-PVTZ-RI
    Molecular point group: c1

    Geometry (in Angstrom), charge = 0, multiplicity = 1:

       Center              X                  Y                   Z               Mass
    ------------   -----------------  -----------------  -----------------  -----------------
         N            0.513443773416     1.179472256884     0.292147056825    14.003074004430
         C           -0.783103226584     0.658021256884     0.151635056825    12.000000000000
         C            1.696513773416     0.444814256884     0.083797056825    12.000000000000
         C           -3.438796226584    -0.309989743116    -0.024173943175    12.000000000000
         C           -1.152921226584    -0.531912743116     0.798893056825    12.000000000000
         C           -1.755615226584     1.363033256884    -0.570427943175    12.000000000000
         C           -2.457781226584    -1.007209743116     0.694790056825    12.000000000000
         C           -3.065186226584     0.889301256884    -0.641230943175    12.000000000000
         C            2.916461773416     1.054578256884     0.418625056825    12.000000000000
         C            1.705464773416    -0.859307743116    -0.433623943175    12.000000000000
         C           -4.859001226584    -0.809104743116    -0.083395943175    12.000000000000
         C            4.120571773416     0.383010256884     0.222463056825    12.000000000000
         C            2.917021773416    -1.529722743116    -0.607986943175    12.000000000000
         C            4.129303773416    -0.920180743116    -0.281299943175    12.000000000000
         H            0.593686773416     2.162439256884     0.053059056825     1.007825032230
         H           -0.419129226584    -1.066575743116     1.396549056825     1.007825032230
         H           -1.480374226584     2.282575256884    -1.085402943175     1.007825032230
         H           -2.722984226584    -1.935461743116     1.199305056825     1.007825032230
         H           -3.803535226584     1.454404256884    -1.208364943175     1.007825032230
         H            2.910194573416     1.967411656884     0.798671256825     1.007825032230
         H            0.774435773416    -1.333734743116    -0.728135943175     1.007825032230
         H           -5.368739226584    -0.437868743116    -0.977140943175     1.007825032230
         H           -4.891673226584    -1.902347743116    -0.105377943175     1.007825032230
         H           -5.434443226584    -0.478659743116     0.788528056825     1.007825032230
         H            5.054773773416     0.874917256884     0.483809056825     1.007825032230
         H            2.908327773416    -2.538993743116    -1.013852943175     1.007825032230
         H            5.067773773416    -1.449515743116    -0.422940943175     1.007825032230

  Basis Set: AUG-CC-PVTZ
    Blend: AUG-CC-PVTZ
  Basis Set: (AUG-CC-PVTZ AUX)
    Blend: AUG-CC-PVTZ-JKFIT
	 Reference Energy          =    -554.4851467847038293 [Eh]
	 Singles Energy            =      -0.0000000000000000 [Eh]
	 Same-Spin Energy          =      -0.6237391261934176 [Eh]
	 Opposite-Spin Energy      =      -1.9521728530385587 [Eh]
	 Correlation Energy        =      -2.5759119792319765 [Eh]
	 Total Energy              =    -557.0610587639357618 [Eh]

	 ================> DF-SCS-MP2 Energies <==================
	-----------------------------------------------------------
	 SCS Same-Spin Scale       =       0.3333333333333333 [-]
	 SCS Opposite-Spin Scale   =       1.2000000000000000 [-]
	 SCS Same-Spin Energy      =      -0.2079130420644725 [Eh]
	 SCS Opposite-Spin Energy  =      -2.3426074236462702 [Eh]
	 SCS Correlation Energy    =      -2.5505204657107425 [Eh]
	 SCS Total Energy          =    -557.0356672504145763 [Eh]
	-----------------------------------------------------------

  Dipole Moment: [D]
     X:    -0.6395      Y:     0.6051      Z:    -0.3320     Total:     0.9409

*** Psi4 exiting successfully. Buy a developer a beer!
