                               Psi4 1.4a3.dev225

  ==> Input File <==

--------------------------------------------------------------------------
#psi4
#
memory 32 gb

molecule  {
0 1
  N        0.5479400     1.1907050     0.2959170
  C       -0.7486070     0.6692540     0.1554050
  C        1.7310100     0.4560470     0.0875670
  C       -3.4043000    -0.2987570    -0.0204040
  C       -1.1184250    -0.5206800     0.8026630
  C       -1.7211190     1.3742660    -0.5666580
  C       -2.4232850    -0.9959770     0.6985600
  C       -3.0306900     0.9005340    -0.6374610
  C        2.9509580     1.0658110     0.4223950
  C        1.7399610    -0.8480750    -0.4298540
  C       -4.8245050    -0.7978720    -0.0796260
  C        4.1550680     0.3942430     0.2262330
  C        2.9515180    -1.5184900    -0.6042170
  C        4.1638000    -0.9089480    -0.2775300
  H        0.6281830     2.1736720     0.0568290
  H       -0.3846330    -1.0553430     1.4003190
  H       -1.4458780     2.2938080    -1.0816330
  H       -2.6884880    -1.9242290     1.2030750
  H       -3.7554801     1.4552596    -1.1941803
  H        2.9440570     2.0709610     0.8408760
  H        0.8089320    -1.3225020    -0.7243660
  H       -5.3342430    -0.4266360    -0.9733710
  H       -4.8571770    -1.8911150    -0.1016080
  H       -5.3999470    -0.4674270     0.7922980
  H        5.0892700     0.8861500     0.4875790
  H        2.9428240    -2.5277610    -1.0100830
  H        5.1022700    -1.4382830    -0.4191710
units angstrom
no_reorient  #important for SAPT in psi4, default
symmetry c1  #important for SAPT in psi4, default
}

set PROPERTIES_ORIGIN ["COM"]
properties('MP2/aug-cc-pvtz', properties = ['dipole'])
--------------------------------------------------------------------------

    Molecular point group: c1
  Charge       = 0
  Multiplicity = 1
  Basis Set: AUG-CC-PVTZ
    Blend: AUG-CC-PVTZ
  Basis Set: (AUG-CC-PVTZ AUX)
    Blend: AUG-CC-PVTZ-JKFIT

    Orbital Energies [Eh]
    ---------------------

    Doubly Occupied:

       1A    -15.577230     2A    -11.282580     3A    -11.277244
       4A    -11.237843     5A    -11.237138     6A    -11.235890
       7A    -11.234205     8A    -11.233078     9A    -11.231861
      10A    -11.229972    11A    -11.228553    12A    -11.226008
      13A    -11.224405    14A    -11.223190    15A     -1.258133
      16A     -1.151887    17A     -1.128275    18A     -1.040692
      19A     -1.016192    20A     -1.010838    21A     -0.989497
      22A     -0.921516    23A     -0.843310    24A     -0.829777
      25A     -0.816838    26A     -0.785774    27A     -0.713797
      28A     -0.704243    29A     -0.668581    30A     -0.640587
      31A     -0.635111    32A     -0.619792    33A     -0.597537
      34A     -0.588861    35A     -0.585527    36A     -0.582452
      37A     -0.573417    38A     -0.545654    39A     -0.530814
      40A     -0.513346    41A     -0.501287    42A     -0.494748
      43A     -0.489805    44A     -0.486338    45A     -0.441835
      46A     -0.340213    47A     -0.335667    48A     -0.330870
      49A     -0.275690

  @DF-RHF Final Energy:  -554.49100551490085

   => Energetics <=

    Nuclear Repulsion Energy =            787.4471895621209114
    One-Electron Energy =               -2312.5402038105862630
    Two-Electron Energy =                 970.6020087335645030
    Total Energy =                       -554.4910055149008485
  Basis Set: (AUG-CC-PVTZ AUX)
    Blend: AUG-CC-PVTZ-RI
    Molecular point group: c1

    Geometry (in Angstrom), charge = 0, multiplicity = 1:

       Center              X                  Y                   Z               Mass
    ------------   -----------------  -----------------  -----------------  -----------------
         N            0.513372632521     1.179021256270     0.291878184851    14.003074004430
         C           -0.783174367479     0.657570256270     0.151366184851    12.000000000000
         C            1.696442632521     0.444363256270     0.083528184851    12.000000000000
         C           -3.438867367479    -0.310440743730    -0.024442815149    12.000000000000
         C           -1.152992367479    -0.532363743730     0.798624184851    12.000000000000
         C           -1.755686367479     1.362582256270    -0.570696815149    12.000000000000
         C           -2.457852367479    -1.007660743730     0.694521184851    12.000000000000
         C           -3.065257367479     0.888850256270    -0.641499815149    12.000000000000
         C            2.916390632521     1.054127256270     0.418356184851    12.000000000000
         C            1.705393632521    -0.859758743730    -0.433892815149    12.000000000000
         C           -4.859072367479    -0.809555743730    -0.083664815149    12.000000000000
         C            4.120500632521     0.382559256270     0.222194184851    12.000000000000
         C            2.916950632521    -1.530173743730    -0.608255815149    12.000000000000
         C            4.129232632521    -0.920631743730    -0.281568815149    12.000000000000
         H            0.593615632521     2.161988256270     0.052790184851     1.007825032230
         H           -0.419200367479    -1.067026743730     1.396280184851     1.007825032230
         H           -1.480445367479     2.282124256270    -1.085671815149     1.007825032230
         H           -2.723055367479    -1.935912743730     1.199036184851     1.007825032230
         H           -3.790047467479     1.443575856270    -1.198219115149     1.007825032230
         H            2.909489632521     2.059277256270     0.836837184851     1.007825032230
         H            0.774364632521    -1.334185743730    -0.728404815149     1.007825032230
         H           -5.368810367479    -0.438319743730    -0.977409815149     1.007825032230
         H           -4.891744367479    -1.902798743730    -0.105646815149     1.007825032230
         H           -5.434514367479    -0.479110743730     0.788259184851     1.007825032230
         H            5.054702632521     0.874466256270     0.483540184851     1.007825032230
         H            2.908256632521    -2.539444743730    -1.014121815149     1.007825032230
         H            5.067702632521    -1.449966743730    -0.423209815149     1.007825032230

  Basis Set: AUG-CC-PVTZ
    Blend: AUG-CC-PVTZ
  Basis Set: (AUG-CC-PVTZ AUX)
    Blend: AUG-CC-PVTZ-JKFIT
	 Reference Energy          =    -554.4910055149008485 [Eh]
	 Singles Energy            =      -0.0000000000000000 [Eh]
	 Same-Spin Energy          =      -0.6238768503832463 [Eh]
	 Opposite-Spin Energy      =      -1.9525190748289123 [Eh]
	 Correlation Energy        =      -2.5763959252121587 [Eh]
	 Total Energy              =    -557.0674014401130307 [Eh]

	 ================> DF-SCS-MP2 Energies <==================
	-----------------------------------------------------------
	 SCS Same-Spin Scale       =       0.3333333333333333 [-]
	 SCS Opposite-Spin Scale   =       1.2000000000000000 [-]
	 SCS Same-Spin Energy      =      -0.2079589501277487 [Eh]
	 SCS Opposite-Spin Energy  =      -2.3430228897946948 [Eh]
	 SCS Correlation Energy    =      -2.5509818399224433 [Eh]
	 SCS Total Energy          =    -557.0419873548232772 [Eh]
	-----------------------------------------------------------

  Dipole Moment: [D]
     X:    -0.6425      Y:     0.5821      Z:    -0.3451     Total:     0.9331

*** Psi4 exiting successfully. Buy a developer a beer!
