                               Psi4 1.4a3.dev225

  ==> Input File <==

--------------------------------------------------------------------------
#psi4
#
memory 32 gb

molecule  {
0 1
  N        0.5479400     1.1907050     0.2959170
  C       -0.7486070     0.6692540     0.1554050
  C        1.7310100     0.4560470     0.0875670
  C       -3.4043000    -0.2987570    -0.0204040
  C       -1.1184250    -0.5206800     0.8026630
  C       -1.7211190     1.3742660    -0.5666580
  C       -2.4232850    -0.9959770     0.6985600
  C       -3.0306900     0.9005340    -0.6374610
  C        2.9509580     1.0658110     0.4223950
  C        1.7521058    -0.8288266    -0.4211763
  C       -4.8245050    -0.7978720    -0.0796260
  C        4.1550680     0.3942430     0.2262330
  C        2.9515180    -1.5184900    -0.6042170
  C        4.1638000    -0.9089480    -0.2775300
  H        0.6281830     2.1736720     0.0568290
  H       -0.3846330    -1.0553430     1.4003190
  H       -1.4458780     2.2938080    -1.0816330
  H       -2.6884880    -1.9242290     1.2030750
  H       -3.7690390     1.4656370    -1.2045950
  H        2.9440570     2.0709610     0.8408760
  H        0.8089320    -1.3225020    -0.7243660
  H       -5.3342430    -0.4266360    -0.9733710
  H       -4.8571770    -1.8911150    -0.1016080
  H       -5.3999470    -0.4674270     0.7922980
  H        5.0892700     0.8861500     0.4875790
  H        2.9428240    -2.5277610    -1.0100830
  H        5.1022700    -1.4382830    -0.4191710
units angstrom
no_reorient  #important for SAPT in psi4, default
symmetry c1  #important for SAPT in psi4, default
}

set PROPERTIES_ORIGIN ["COM"]
properties('MP2/aug-cc-pvtz', properties = ['dipole'])
--------------------------------------------------------------------------

    Molecular point group: c1
  Charge       = 0
  Multiplicity = 1
  Basis Set: AUG-CC-PVTZ
    Blend: AUG-CC-PVTZ
  Basis Set: (AUG-CC-PVTZ AUX)
    Blend: AUG-CC-PVTZ-JKFIT

    Orbital Energies [Eh]
    ---------------------

    Doubly Occupied:

       1A    -15.576996     2A    -11.279972     3A    -11.277138
       4A    -11.237495     5A    -11.237146     6A    -11.235984
       7A    -11.234617     8A    -11.234001     9A    -11.232353
      10A    -11.229810    11A    -11.229066    12A    -11.225443
      13A    -11.224826    14A    -11.223002    15A     -1.258422
      16A     -1.152699    17A     -1.129033    18A     -1.040815
      19A     -1.015704    20A     -1.010414    21A     -0.991051
      22A     -0.921350    23A     -0.842998    24A     -0.828943
      25A     -0.817807    26A     -0.784800    27A     -0.713568
      28A     -0.704069    29A     -0.666823    30A     -0.640483
      31A     -0.634925    32A     -0.618760    33A     -0.599281
      34A     -0.587547    35A     -0.584529    36A     -0.581329
      37A     -0.573025    38A     -0.545603    39A     -0.530876
      40A     -0.512523    41A     -0.502268    42A     -0.495222
      43A     -0.487615    44A     -0.485995    45A     -0.441922
      46A     -0.340121    47A     -0.335459    48A     -0.331740
      49A     -0.276510

  @DF-RHF Final Energy:  -554.49029979110037

   => Energetics <=

    Nuclear Repulsion Energy =            787.6753024544283335
    One-Electron Energy =               -2313.0070427513096547
    Two-Electron Energy =                 970.8414405057810654
    Total Energy =                       -554.4902997911003695
  Basis Set: (AUG-CC-PVTZ AUX)
    Blend: AUG-CC-PVTZ-RI
    Molecular point group: c1

    Geometry (in Angstrom), charge = 0, multiplicity = 1:

       Center              X                  Y                   Z               Mass
    ------------   -----------------  -----------------  -----------------  -----------------
         N            0.512651337385     1.177702670388     0.291366804456    14.003074004430
         C           -0.783895662615     0.656251670388     0.150854804456    12.000000000000
         C            1.695721337385     0.443044670388     0.083016804456    12.000000000000
         C           -3.439588662615    -0.311759329612    -0.024954195544    12.000000000000
         C           -1.153713662615    -0.533682329612     0.798112804456    12.000000000000
         C           -1.756407662615     1.361263670388    -0.571208195544    12.000000000000
         C           -2.458573662615    -1.008979329612     0.694009804456    12.000000000000
         C           -3.065978662615     0.887531670388    -0.642011195544    12.000000000000
         C            2.915669337385     1.052808670388     0.417844804456    12.000000000000
         C            1.716817137385    -0.841828929612    -0.425726495544    12.000000000000
         C           -4.859793662615    -0.810874329612    -0.084176195544    12.000000000000
         C            4.119779337385     0.381240670388     0.221682804456    12.000000000000
         C            2.916229337385    -1.531492329612    -0.608767195544    12.000000000000
         C            4.128511337385    -0.921950329612    -0.282080195544    12.000000000000
         H            0.592894337385     2.160669670388     0.052278804456     1.007825032230
         H           -0.419921662615    -1.068345329612     1.395768804456     1.007825032230
         H           -1.481166662615     2.280805670388    -1.086183195544     1.007825032230
         H           -2.723776662615    -1.937231329612     1.198524804456     1.007825032230
         H           -3.804327662615     1.452634670388    -1.209145195544     1.007825032230
         H            2.908768337385     2.057958670388     0.836325804456     1.007825032230
         H            0.773643337385    -1.335504329612    -0.728916195544     1.007825032230
         H           -5.369531662615    -0.439638329612    -0.977921195544     1.007825032230
         H           -4.892465662615    -1.904117329612    -0.106158195544     1.007825032230
         H           -5.435235662615    -0.480429329612     0.787747804456     1.007825032230
         H            5.053981337385     0.873147670388     0.483028804456     1.007825032230
         H            2.907535337385    -2.540763329612    -1.014633195544     1.007825032230
         H            5.066981337385    -1.451285329612    -0.423721195544     1.007825032230

  Basis Set: AUG-CC-PVTZ
    Blend: AUG-CC-PVTZ
  Basis Set: (AUG-CC-PVTZ AUX)
    Blend: AUG-CC-PVTZ-JKFIT
	 Reference Energy          =    -554.4902997911003695 [Eh]
	 Singles Energy            =      -0.0000000000000000 [Eh]
	 Same-Spin Energy          =      -0.6239595830349104 [Eh]
	 Opposite-Spin Energy      =      -1.9526372070581342 [Eh]
	 Correlation Energy        =      -2.5765967900930447 [Eh]
	 Total Energy              =    -557.0668965811934186 [Eh]

	 ================> DF-SCS-MP2 Energies <==================
	-----------------------------------------------------------
	 SCS Same-Spin Scale       =       0.3333333333333333 [-]
	 SCS Opposite-Spin Scale   =       1.2000000000000000 [-]
	 SCS Same-Spin Energy      =      -0.2079865276783034 [Eh]
	 SCS Opposite-Spin Energy  =      -2.3431646484697608 [Eh]
	 SCS Correlation Energy    =      -2.5511511761480641 [Eh]
	 SCS Total Energy          =    -557.0414509672484655 [Eh]
	-----------------------------------------------------------

  Dipole Moment: [D]
     X:    -0.6005      Y:     0.5626      Z:    -0.3457     Total:     0.8926

*** Psi4 exiting successfully. Buy a developer a beer!
