                               Psi4 1.4a3.dev225

  ==> Input File <==

--------------------------------------------------------------------------
#psi4
#
memory 32 gb

molecule  {
0 1
  N        0.5479400     1.1907050     0.2959170
  C       -0.7486070     0.6692540     0.1554050
  C        1.7310100     0.4560470     0.0875670
  C       -3.3008153    -0.1989760    -0.0498687
  C       -1.1184250    -0.5206800     0.8026630
  C       -1.7211190     1.3742660    -0.5666580
  C       -2.4232850    -0.9959770     0.6985600
  C       -3.0306900     0.9005340    -0.6374610
  C        2.9509580     1.0658110     0.4223950
  C        1.7399610    -0.8480750    -0.4298540
  C       -4.8245050    -0.7978720    -0.0796260
  C        4.1550680     0.3942430     0.2262330
  C        2.9515180    -1.5184900    -0.6042170
  C        4.1638000    -0.9089480    -0.2775300
  H        0.6281830     2.1736720     0.0568290
  H       -0.3846330    -1.0553430     1.4003190
  H       -1.4458780     2.2938080    -1.0816330
  H       -2.6884880    -1.9242290     1.2030750
  H       -3.7690390     1.4656370    -1.2045950
  H        2.9440570     2.0709610     0.8408760
  H        0.8089320    -1.3225020    -0.7243660
  H       -5.3342430    -0.4266360    -0.9733710
  H       -4.8571770    -1.8911150    -0.1016080
  H       -5.3999470    -0.4674270     0.7922980
  H        5.0892700     0.8861500     0.4875790
  H        2.9428240    -2.5277610    -1.0100830
  H        5.1022700    -1.4382830    -0.4191710
units angstrom
no_reorient  #important for SAPT in psi4, default
symmetry c1  #important for SAPT in psi4, default
}

set PROPERTIES_ORIGIN ["COM"]
properties('MP2/aug-cc-pvtz', properties = ['dipole'])
--------------------------------------------------------------------------

    Molecular point group: c1
  Charge       = 0
  Multiplicity = 1
  Basis Set: AUG-CC-PVTZ
    Blend: AUG-CC-PVTZ
  Basis Set: (AUG-CC-PVTZ AUX)
    Blend: AUG-CC-PVTZ-JKFIT

    Orbital Energies [Eh]
    ---------------------

    Doubly Occupied:

       1A    -15.576806     2A    -11.282660     3A    -11.276500
       4A    -11.238066     5A    -11.237456     6A    -11.236780
       7A    -11.232318     8A    -11.231788     9A    -11.228664
      10A    -11.228274    11A    -11.226414    12A    -11.224582
      13A    -11.224194    14A    -11.219319    15A     -1.258338
      16A     -1.162322    17A     -1.132200    18A     -1.036189
      19A     -1.021080    20A     -1.012101    21A     -0.982472
      22A     -0.916399    23A     -0.850770    24A     -0.828073
      25A     -0.821437    26A     -0.785730    27A     -0.715528
      28A     -0.705113    29A     -0.669621    30A     -0.637288
      31A     -0.632225    32A     -0.622406    33A     -0.600891
      34A     -0.596244    35A     -0.585522    36A     -0.582667
      37A     -0.564631    38A     -0.542879    39A     -0.529503
      40A     -0.511391    41A     -0.506162    42A     -0.500675
      43A     -0.490987    44A     -0.455749    45A     -0.446819
      46A     -0.347936    47A     -0.337468    48A     -0.331627
      49A     -0.279116

  @DF-RHF Final Energy:  -554.46614559695831

   => Energetics <=

    Nuclear Repulsion Energy =            789.0952003114497302
    One-Electron Energy =               -2315.7959324050648320
    Two-Electron Energy =                 972.2345864966566751
    Total Energy =                       -554.4661455969583130
  Basis Set: (AUG-CC-PVTZ AUX)
    Blend: AUG-CC-PVTZ-RI
    Molecular point group: c1

    Geometry (in Angstrom), charge = 0, multiplicity = 1:

       Center              X                  Y                   Z               Mass
    ------------   -----------------  -----------------  -----------------  -----------------
         N            0.506665263817     1.172424866622     0.293866513920    14.003074004430
         C           -0.789881736183     0.650973866622     0.153354513920    12.000000000000
         C            1.689735263817     0.437766866622     0.085516513920    12.000000000000
         C           -3.342090036183    -0.217256133378    -0.051919186080    12.000000000000
         C           -1.159699736183    -0.538960133378     0.800612513920    12.000000000000
         C           -1.762393736183     1.355985866622    -0.568708486080    12.000000000000
         C           -2.464559736183    -1.014257133378     0.696509513920    12.000000000000
         C           -3.071964736183     0.882253866622    -0.639511486080    12.000000000000
         C            2.909683263817     1.047530866622     0.420344513920    12.000000000000
         C            1.698686263817    -0.866355133378    -0.431904486080    12.000000000000
         C           -4.865779736183    -0.816152133378    -0.081676486080    12.000000000000
         C            4.113793263817     0.375962866622     0.224182513920    12.000000000000
         C            2.910243263817    -1.536770133378    -0.606267486080    12.000000000000
         C            4.122525263817    -0.927228133378    -0.279580486080    12.000000000000
         H            0.586908263817     2.155391866622     0.054778513920     1.007825032230
         H           -0.425907736183    -1.073623133378     1.398268513920     1.007825032230
         H           -1.487152736183     2.275527866622    -1.083683486080     1.007825032230
         H           -2.729762736183    -1.942509133378     1.201024513920     1.007825032230
         H           -3.810313736183     1.447356866622    -1.206645486080     1.007825032230
         H            2.902782263817     2.052680866622     0.838825513920     1.007825032230
         H            0.767657263817    -1.340782133378    -0.726416486080     1.007825032230
         H           -5.375517736183    -0.444916133378    -0.975421486080     1.007825032230
         H           -4.898451736183    -1.909395133378    -0.103658486080     1.007825032230
         H           -5.441221736183    -0.485707133378     0.790247513920     1.007825032230
         H            5.047995263817     0.867869866622     0.485528513920     1.007825032230
         H            2.901549263817    -2.546041133378    -1.012133486080     1.007825032230
         H            5.060995263817    -1.456563133378    -0.421221486080     1.007825032230

  Basis Set: AUG-CC-PVTZ
    Blend: AUG-CC-PVTZ
  Basis Set: (AUG-CC-PVTZ AUX)
    Blend: AUG-CC-PVTZ-JKFIT
	 Reference Energy          =    -554.4661455969583130 [Eh]
	 Singles Energy            =      -0.0000000000000000 [Eh]
	 Same-Spin Energy          =      -0.6232982915079049 [Eh]
	 Opposite-Spin Energy      =      -1.9525053196548809 [Eh]
	 Correlation Energy        =      -2.5758036111627858 [Eh]
	 Total Energy              =    -557.0419492081210819 [Eh]

	 ================> DF-SCS-MP2 Energies <==================
	-----------------------------------------------------------
	 SCS Same-Spin Scale       =       0.3333333333333333 [-]
	 SCS Opposite-Spin Scale   =       1.2000000000000000 [-]
	 SCS Same-Spin Energy      =      -0.2077660971693016 [Eh]
	 SCS Opposite-Spin Energy  =      -2.3430063835858572 [Eh]
	 SCS Correlation Energy    =      -2.5507724807551591 [Eh]
	 SCS Total Energy          =    -557.0169180777135125 [Eh]
	-----------------------------------------------------------

  Dipole Moment: [D]
     X:    -0.4664      Y:     0.5931      Z:    -0.3090     Total:     0.8153

*** Psi4 exiting successfully. Buy a developer a beer!
