                               Psi4 1.4a3.dev225

  ==> Input File <==

--------------------------------------------------------------------------
#psi4
#
memory 32 gb

molecule  {
0 1
  N        0.5479400     1.1907050     0.2959170
  C       -0.7486070     0.6692540     0.1554050
  C        1.7310100     0.4560470     0.0875670
  C       -3.4043000    -0.2987570    -0.0204040
  C       -1.1447624    -0.6054238     0.8487589
  C       -1.7211190     1.3742660    -0.5666580
  C       -2.4232850    -0.9959770     0.6985600
  C       -3.0306900     0.9005340    -0.6374610
  C        2.9509580     1.0658110     0.4223950
  C        1.7399610    -0.8480750    -0.4298540
  C       -4.8245050    -0.7978720    -0.0796260
  C        4.1550680     0.3942430     0.2262330
  C        2.9515180    -1.5184900    -0.6042170
  C        4.1638000    -0.9089480    -0.2775300
  H        0.6281830     2.1736720     0.0568290
  H       -0.3846330    -1.0553430     1.4003190
  H       -1.4458780     2.2938080    -1.0816330
  H       -2.6884880    -1.9242290     1.2030750
  H       -3.7690390     1.4656370    -1.2045950
  H        2.9440570     2.0709610     0.8408760
  H        0.8089320    -1.3225020    -0.7243660
  H       -5.3342430    -0.4266360    -0.9733710
  H       -4.8571770    -1.8911150    -0.1016080
  H       -5.3999470    -0.4674270     0.7922980
  H        5.0892700     0.8861500     0.4875790
  H        2.9428240    -2.5277610    -1.0100830
  H        5.1022700    -1.4382830    -0.4191710
units angstrom
no_reorient  #important for SAPT in psi4, default
symmetry c1  #important for SAPT in psi4, default
}

set PROPERTIES_ORIGIN ["COM"]
properties('MP2/aug-cc-pvtz', properties = ['dipole'])
--------------------------------------------------------------------------

    Molecular point group: c1
  Charge       = 0
  Multiplicity = 1
  Basis Set: AUG-CC-PVTZ
    Blend: AUG-CC-PVTZ
  Basis Set: (AUG-CC-PVTZ AUX)
    Blend: AUG-CC-PVTZ-JKFIT

    Orbital Energies [Eh]
    ---------------------

    Doubly Occupied:

       1A    -15.579943     2A    -11.286742     3A    -11.283659
       4A    -11.238905     5A    -11.238219     6A    -11.234994
       7A    -11.233782     8A    -11.232532     9A    -11.229812
      10A    -11.229745    11A    -11.229686    12A    -11.227323
      13A    -11.225621    14A    -11.222409    15A     -1.257412
      16A     -1.149765    17A     -1.129190    18A     -1.035570
      19A     -1.021615    20A     -1.012755    21A     -0.989781
      22A     -0.916702    23A     -0.840396    24A     -0.831800
      25A     -0.815111    26A     -0.787569    27A     -0.713622
      28A     -0.702326    29A     -0.670261    30A     -0.652694
      31A     -0.633583    32A     -0.618810    33A     -0.598906
      34A     -0.591124    35A     -0.584519    36A     -0.579212
      37A     -0.571763    38A     -0.543255    39A     -0.529263
      40A     -0.515934    41A     -0.504534    42A     -0.492770
      43A     -0.492115    44A     -0.475841    45A     -0.442356
      46A     -0.347237    47A     -0.337775    48A     -0.327340
      49A     -0.271389

  @DF-RHF Final Energy:  -554.47919652299663

   => Energetics <=

    Nuclear Repulsion Energy =            786.0282977787652499
    One-Electron Energy =               -2309.6596567775281983
    Two-Electron Energy =                 969.1521624757664313
    Total Energy =                       -554.4791965229966308
  Basis Set: (AUG-CC-PVTZ AUX)
    Blend: AUG-CC-PVTZ-RI
    Molecular point group: c1

    Geometry (in Angstrom), charge = 0, multiplicity = 1:

       Center              X                  Y                   Z               Mass
    ------------   -----------------  -----------------  -----------------  -----------------
         N            0.515173316064     1.184517928120     0.288914556337    14.003074004430
         C           -0.781373683936     0.663066928120     0.148402556337    12.000000000000
         C            1.698243316064     0.449859928120     0.080564556337    12.000000000000
         C           -3.437066683936    -0.304944071880    -0.027406443663    12.000000000000
         C           -1.177529083936    -0.611610871880     0.841756456337    12.000000000000
         C           -1.753885683936     1.368078928120    -0.573660443663    12.000000000000
         C           -2.456051683936    -1.002164071880     0.691557556337    12.000000000000
         C           -3.063456683936     0.894346928120    -0.644463443663    12.000000000000
         C            2.918191316064     1.059623928120     0.415392556337    12.000000000000
         C            1.707194316064    -0.854262071880    -0.436856443663    12.000000000000
         C           -4.857271683936    -0.804059071880    -0.086628443663    12.000000000000
         C            4.122301316064     0.388055928120     0.219230556337    12.000000000000
         C            2.918751316064    -1.524677071880    -0.611219443663    12.000000000000
         C            4.131033316064    -0.915135071880    -0.284532443663    12.000000000000
         H            0.595416316064     2.167484928120     0.049826556337     1.007825032230
         H           -0.417399683936    -1.061530071880     1.393316556337     1.007825032230
         H           -1.478644683936     2.287620928120    -1.088635443663     1.007825032230
         H           -2.721254683936    -1.930416071880     1.196072556337     1.007825032230
         H           -3.801805683936     1.459449928120    -1.211597443663     1.007825032230
         H            2.911290316064     2.064773928120     0.833873556337     1.007825032230
         H            0.776165316064    -1.328689071880    -0.731368443663     1.007825032230
         H           -5.367009683936    -0.432823071880    -0.980373443663     1.007825032230
         H           -4.889943683936    -1.897302071880    -0.108610443663     1.007825032230
         H           -5.432713683936    -0.473614071880     0.785295556337     1.007825032230
         H            5.056503316064     0.879962928120     0.480576556337     1.007825032230
         H            2.910057316064    -2.533948071880    -1.017085443663     1.007825032230
         H            5.069503316064    -1.444470071880    -0.426173443663     1.007825032230

  Basis Set: AUG-CC-PVTZ
    Blend: AUG-CC-PVTZ
  Basis Set: (AUG-CC-PVTZ AUX)
    Blend: AUG-CC-PVTZ-JKFIT
	 Reference Energy          =    -554.4791965229966308 [Eh]
	 Singles Energy            =      -0.0000000000000000 [Eh]
	 Same-Spin Energy          =      -0.6236502455859493 [Eh]
	 Opposite-Spin Energy      =      -1.9533948614199288 [Eh]
	 Correlation Energy        =      -2.5770451070058780 [Eh]
	 Total Energy              =    -557.0562416300025461 [Eh]

	 ================> DF-SCS-MP2 Energies <==================
	-----------------------------------------------------------
	 SCS Same-Spin Scale       =       0.3333333333333333 [-]
	 SCS Opposite-Spin Scale   =       1.2000000000000000 [-]
	 SCS Same-Spin Energy      =      -0.2078834151953164 [Eh]
	 SCS Opposite-Spin Energy  =      -2.3440738337039146 [Eh]
	 SCS Correlation Energy    =      -2.5519572488992313 [Eh]
	 SCS Total Energy          =    -557.0311537718959016 [Eh]
	-----------------------------------------------------------

  Dipole Moment: [D]
     X:    -0.4798      Y:     0.5939      Z:    -0.3298     Total:     0.8317

*** Psi4 exiting successfully. Buy a developer a beer!
