                               Psi4 1.4a3.dev225

  ==> Input File <==

--------------------------------------------------------------------------
#psi4
#
memory 32 gb

molecule  {
0 1
  N        0.5479400     1.1907050     0.2959170
  C       -0.7486070     0.6692540     0.1554050
  C        1.7310100     0.4560470     0.0875670
  C       -3.4043000    -0.2987570    -0.0204040
  C       -1.1184250    -0.5206800     0.8026630
  C       -1.7211190     1.3742660    -0.5666580
  C       -2.4232850    -0.9959770     0.6985600
  C       -3.0306900     0.9005340    -0.6374610
  C        2.9509580     1.0658110     0.4223950
  C        1.7400886    -0.8666649    -0.4372297
  C       -4.8245050    -0.7978720    -0.0796260
  C        4.1550680     0.3942430     0.2262330
  C        2.9515180    -1.5184900    -0.6042170
  C        4.1638000    -0.9089480    -0.2775300
  H        0.6281830     2.1736720     0.0568290
  H       -0.3846330    -1.0553430     1.4003190
  H       -1.4458780     2.2938080    -1.0816330
  H       -2.6884880    -1.9242290     1.2030750
  H       -3.7690390     1.4656370    -1.2045950
  H        2.9440570     2.0709610     0.8408760
  H        0.8089320    -1.3225020    -0.7243660
  H       -5.3342430    -0.4266360    -0.9733710
  H       -4.8571770    -1.8911150    -0.1016080
  H       -5.3999470    -0.4674270     0.7922980
  H        5.0892700     0.8861500     0.4875790
  H        2.9428240    -2.5277610    -1.0100830
  H        5.1022700    -1.4382830    -0.4191710
units angstrom
no_reorient  #important for SAPT in psi4, default
symmetry c1  #important for SAPT in psi4, default
}

set PROPERTIES_ORIGIN ["COM"]
properties('MP2/aug-cc-pvtz', properties = ['dipole'])
--------------------------------------------------------------------------

    Molecular point group: c1
  Charge       = 0
  Multiplicity = 1
  Basis Set: AUG-CC-PVTZ
    Blend: AUG-CC-PVTZ
  Basis Set: (AUG-CC-PVTZ AUX)
    Blend: AUG-CC-PVTZ-JKFIT

    Orbital Energies [Eh]
    ---------------------

    Doubly Occupied:

       1A    -15.578008     2A    -11.284926     3A    -11.277694
       4A    -11.237901     5A    -11.236514     6A    -11.236041
       7A    -11.235142     8A    -11.234529     9A    -11.232918
      10A    -11.230349    11A    -11.227960    12A    -11.226522
      13A    -11.223944    14A    -11.223363    15A     -1.258129
      16A     -1.151568    17A     -1.128187    18A     -1.040816
      19A     -1.016274    20A     -1.011616    21A     -0.988029
      22A     -0.921507    23A     -0.842585    24A     -0.830117
      25A     -0.815999    26A     -0.785698    27A     -0.713074
      28A     -0.704163    29A     -0.669841    30A     -0.640475
      31A     -0.635130    32A     -0.619534    33A     -0.595626
      34A     -0.588243    35A     -0.585889    36A     -0.583010
      37A     -0.573613    38A     -0.545685    39A     -0.530575
      40A     -0.514732    41A     -0.500792    42A     -0.494739
      43A     -0.489538    44A     -0.485765    45A     -0.442048
      46A     -0.340874    47A     -0.336807    48A     -0.329934
      49A     -0.274984

  @DF-RHF Final Energy:  -554.49026678311850

   => Energetics <=

    Nuclear Repulsion Energy =            787.0714150725556237
    One-Electron Energy =               -2311.7805427705402508
    Two-Electron Energy =                 970.2188609148660134
    Total Energy =                       -554.4902667831184999
  Basis Set: (AUG-CC-PVTZ AUX)
    Blend: AUG-CC-PVTZ-RI
    Molecular point group: c1

    Geometry (in Angstrom), charge = 0, multiplicity = 1:

       Center              X                  Y                   Z               Mass
    ------------   -----------------  -----------------  -----------------  -----------------
         N            0.513438899484     1.180182450281     0.292418883924    14.003074004430
         C           -0.783108100516     0.658731450281     0.151906883924    12.000000000000
         C            1.696508899484     0.445524450281     0.084068883924    12.000000000000
         C           -3.438801100516    -0.309279549719    -0.023902116076    12.000000000000
         C           -1.152926100516    -0.531202549719     0.799164883924    12.000000000000
         C           -1.755620100516     1.363743450281    -0.570156116076    12.000000000000
         C           -2.457786100516    -1.006499549719     0.695061883924    12.000000000000
         C           -3.065191100516     0.890011450281    -0.640959116076    12.000000000000
         C            2.916456899484     1.055288450281     0.418896883924    12.000000000000
         C            1.705587499484    -0.877187449719    -0.440727816076    12.000000000000
         C           -4.859006100516    -0.808394549719    -0.083124116076    12.000000000000
         C            4.120566899484     0.383720450281     0.222734883924    12.000000000000
         C            2.917016899484    -1.529012549719    -0.607715116076    12.000000000000
         C            4.129298899484    -0.919470549719    -0.281028116076    12.000000000000
         H            0.593681899484     2.163149450281     0.053330883924     1.007825032230
         H           -0.419134100516    -1.065865549719     1.396820883924     1.007825032230
         H           -1.480379100516     2.283285450281    -1.085131116076     1.007825032230
         H           -2.722989100516    -1.934751549719     1.199576883924     1.007825032230
         H           -3.803540100516     1.455114450281    -1.208093116076     1.007825032230
         H            2.909555899484     2.060438450281     0.837377883924     1.007825032230
         H            0.774430899484    -1.333024549719    -0.727864116076     1.007825032230
         H           -5.368744100516    -0.437158549719    -0.976869116076     1.007825032230
         H           -4.891678100516    -1.901637549719    -0.105106116076     1.007825032230
         H           -5.434448100516    -0.477949549719     0.788799883924     1.007825032230
         H            5.054768899484     0.875627450281     0.484080883924     1.007825032230
         H            2.908322899484    -2.538283549719    -1.013581116076     1.007825032230
         H            5.067768899484    -1.448805549719    -0.422669116076     1.007825032230

  Basis Set: AUG-CC-PVTZ
    Blend: AUG-CC-PVTZ
  Basis Set: (AUG-CC-PVTZ AUX)
    Blend: AUG-CC-PVTZ-JKFIT
	 Reference Energy          =    -554.4902667831184999 [Eh]
	 Singles Energy            =      -0.0000000000000000 [Eh]
	 Same-Spin Energy          =      -0.6238995716051524 [Eh]
	 Opposite-Spin Energy      =      -1.9526965548497603 [Eh]
	 Correlation Energy        =      -2.5765961264549126 [Eh]
	 Total Energy              =    -557.0668629095733877 [Eh]

	 ================> DF-SCS-MP2 Energies <==================
	-----------------------------------------------------------
	 SCS Same-Spin Scale       =       0.3333333333333333 [-]
	 SCS Opposite-Spin Scale   =       1.2000000000000000 [-]
	 SCS Same-Spin Energy      =      -0.2079665238683841 [Eh]
	 SCS Opposite-Spin Energy  =      -2.3432358658197123 [Eh]
	 SCS Correlation Energy    =      -2.5512023896880964 [Eh]
	 SCS Total Energy          =    -557.0414691728066146 [Eh]
	-----------------------------------------------------------

  Dipole Moment: [D]
     X:    -0.6749      Y:     0.5913      Z:    -0.3368     Total:     0.9584

*** Psi4 exiting successfully. Buy a developer a beer!
