                               Psi4 1.4a3.dev225

  ==> Input File <==

--------------------------------------------------------------------------
#psi4
#
memory 32 gb

molecule  {
0 1
  N        0.5479400     1.1907050     0.2959170
  C       -0.7486070     0.6692540     0.1554050
  C        1.7310100     0.4560470     0.0875670
  C       -3.4043000    -0.2987570    -0.0204040
  C       -1.1184250    -0.5206800     0.8026630
  C       -1.7211190     1.3742660    -0.5666580
  C       -2.4232850    -0.9959770     0.6985600
  C       -3.0306900     0.9005340    -0.6374610
  C        2.9509580     1.0658110     0.4223950
  C        1.7399610    -0.8480750    -0.4298540
  C       -4.8245050    -0.7978720    -0.0796260
  C        4.1550680     0.3942430     0.2262330
  C        2.9515180    -1.5184900    -0.6042170
  C        4.1638000    -0.9089480    -0.2775300
  H        0.6281830     2.1736720     0.0568290
  H       -0.3846330    -1.0553430     1.4003190
  H       -1.4458780     2.2938080    -1.0816330
  H       -2.6884880    -1.9242290     1.2030750
  H       -3.7351418     1.4396935    -1.1785582
  H        2.9440570     2.0709610     0.8408760
  H        0.8089320    -1.3225020    -0.7243660
  H       -5.3342430    -0.4266360    -0.9733710
  H       -4.8571770    -1.8911150    -0.1016080
  H       -5.3999470    -0.4674270     0.7922980
  H        5.0892700     0.8861500     0.4875790
  H        2.9428240    -2.5277610    -1.0100830
  H        5.1022700    -1.4382830    -0.4191710
units angstrom
no_reorient  #important for SAPT in psi4, default
symmetry c1  #important for SAPT in psi4, default
}

set PROPERTIES_ORIGIN ["COM"]
properties('MP2/aug-cc-pvtz', properties = ['dipole'])
--------------------------------------------------------------------------

    Molecular point group: c1
  Charge       = 0
  Multiplicity = 1
  Basis Set: AUG-CC-PVTZ
    Blend: AUG-CC-PVTZ
  Basis Set: (AUG-CC-PVTZ AUX)
    Blend: AUG-CC-PVTZ-JKFIT

    Orbital Energies [Eh]
    ---------------------

    Doubly Occupied:

       1A    -15.577114     2A    -11.282513     3A    -11.277046
       4A    -11.237794     5A    -11.237088     6A    -11.235582
       7A    -11.233957     8A    -11.232447     9A    -11.229870
      10A    -11.228682    11A    -11.228494    12A    -11.225948
      13A    -11.224352    14A    -11.223221    15A     -1.258024
      16A     -1.151909    17A     -1.128310    18A     -1.040658
      19A     -1.016745    20A     -1.011006    21A     -0.989493
      22A     -0.921703    23A     -0.844317    24A     -0.829887
      25A     -0.816963    26A     -0.786616    27A     -0.714763
      28A     -0.704544    29A     -0.668570    30A     -0.641031
      31A     -0.635017    32A     -0.620967    33A     -0.597469
      34A     -0.590842    35A     -0.585664    36A     -0.582484
      37A     -0.573506    38A     -0.545775    39A     -0.531076
      40A     -0.513372    41A     -0.501282    42A     -0.494646
      43A     -0.489949    44A     -0.486762    45A     -0.441771
      46A     -0.340102    47A     -0.335588    48A     -0.330753
      49A     -0.275579

  @DF-RHF Final Energy:  -554.49012862025870

   => Energetics <=

    Nuclear Repulsion Energy =            787.6147390433909550
    One-Electron Energy =               -2312.8672323261016572
    Two-Electron Energy =                 970.7623646624520006
    Total Energy =                       -554.4901286202587016
  Basis Set: (AUG-CC-PVTZ AUX)
    Blend: AUG-CC-PVTZ-RI
    Molecular point group: c1

    Geometry (in Angstrom), charge = 0, multiplicity = 1:

       Center              X                  Y                   Z               Mass
    ------------   -----------------  -----------------  -----------------  -----------------
         N            0.513260688717     1.179106933463     0.291792199429    14.003074004430
         C           -0.783286311283     0.657655933463     0.151280199429    12.000000000000
         C            1.696330688717     0.444448933463     0.083442199429    12.000000000000
         C           -3.438979311283    -0.310355066537    -0.024528800571    12.000000000000
         C           -1.153104311283    -0.532278066537     0.798538199429    12.000000000000
         C           -1.755798311283     1.362667933463    -0.570782800571    12.000000000000
         C           -2.457964311283    -1.007575066537     0.694435199429    12.000000000000
         C           -3.065369311283     0.888935933463    -0.641585800571    12.000000000000
         C            2.916278688717     1.054212933463     0.418270199429    12.000000000000
         C            1.705281688717    -0.859673066537    -0.433978800571    12.000000000000
         C           -4.859184311283    -0.809470066537    -0.083750800571    12.000000000000
         C            4.120388688717     0.382644933463     0.222108199429    12.000000000000
         C            2.916838688717    -1.530088066537    -0.608341800571    12.000000000000
         C            4.129120688717    -0.920546066537    -0.281654800571    12.000000000000
         H            0.593503688717     2.162073933463     0.052704199429     1.007825032230
         H           -0.419312311283    -1.066941066537     1.396194199429     1.007825032230
         H           -1.480557311283     2.282209933463    -1.085757800571     1.007825032230
         H           -2.723167311283    -1.935827066537     1.198950199429     1.007825032230
         H           -3.769821111283     1.428095433463    -1.182683000571     1.007825032230
         H            2.909377688717     2.059362933463     0.836751199429     1.007825032230
         H            0.774252688717    -1.334100066537    -0.728490800571     1.007825032230
         H           -5.368922311283    -0.438234066537    -0.977495800571     1.007825032230
         H           -4.891856311283    -1.902713066537    -0.105732800571     1.007825032230
         H           -5.434626311283    -0.479025066537     0.788173199429     1.007825032230
         H            5.054590688717     0.874551933463     0.483454199429     1.007825032230
         H            2.908144688717    -2.539359066537    -1.014207800571     1.007825032230
         H            5.067590688717    -1.449881066537    -0.423295800571     1.007825032230

  Basis Set: AUG-CC-PVTZ
    Blend: AUG-CC-PVTZ
  Basis Set: (AUG-CC-PVTZ AUX)
    Blend: AUG-CC-PVTZ-JKFIT
	 Reference Energy          =    -554.4901286202587016 [Eh]
	 Singles Energy            =      -0.0000000000000000 [Eh]
	 Same-Spin Energy          =      -0.6238198463979864 [Eh]
	 Opposite-Spin Energy      =      -1.9523375099437827 [Eh]
	 Correlation Energy        =      -2.5761573563417692 [Eh]
	 Total Energy              =    -557.0662859766005113 [Eh]

	 ================> DF-SCS-MP2 Energies <==================
	-----------------------------------------------------------
	 SCS Same-Spin Scale       =       0.3333333333333333 [-]
	 SCS Opposite-Spin Scale   =       1.2000000000000000 [-]
	 SCS Same-Spin Energy      =      -0.2079399487993288 [Eh]
	 SCS Opposite-Spin Energy  =      -2.3428050119325392 [Eh]
	 SCS Correlation Energy    =      -2.5507449607318682 [Eh]
	 SCS Total Energy          =    -557.0408735809905920 [Eh]
	-----------------------------------------------------------

  Dipole Moment: [D]
     X:    -0.6542      Y:     0.5878      Z:    -0.3506     Total:     0.9468

*** Psi4 exiting successfully. Buy a developer a beer!
