                               Psi4 1.4a3.dev225

  ==> Input File <==

--------------------------------------------------------------------------
#psi4
#
memory 32 gb

molecule  {
0 1
  N        0.5479400     1.1907050     0.2959170
  C       -0.7486070     0.6692540     0.1554050
  C        1.7310100     0.4560470     0.0875670
  C       -3.3933933    -0.3515789     0.0698633
  C       -1.1184250    -0.5206800     0.8026630
  C       -1.7211190     1.3742660    -0.5666580
  C       -2.4232850    -0.9959770     0.6985600
  C       -3.0306900     0.9005340    -0.6374610
  C        2.9509580     1.0658110     0.4223950
  C        1.7399610    -0.8480750    -0.4298540
  C       -4.8245050    -0.7978720    -0.0796260
  C        4.1550680     0.3942430     0.2262330
  C        2.9515180    -1.5184900    -0.6042170
  C        4.1638000    -0.9089480    -0.2775300
  H        0.6281830     2.1736720     0.0568290
  H       -0.3846330    -1.0553430     1.4003190
  H       -1.4458780     2.2938080    -1.0816330
  H       -2.6884880    -1.9242290     1.2030750
  H       -3.7690390     1.4656370    -1.2045950
  H        2.9440570     2.0709610     0.8408760
  H        0.8089320    -1.3225020    -0.7243660
  H       -5.3342430    -0.4266360    -0.9733710
  H       -4.8571770    -1.8911150    -0.1016080
  H       -5.3999470    -0.4674270     0.7922980
  H        5.0892700     0.8861500     0.4875790
  H        2.9428240    -2.5277610    -1.0100830
  H        5.1022700    -1.4382830    -0.4191710
units angstrom
no_reorient  #important for SAPT in psi4, default
symmetry c1  #important for SAPT in psi4, default
}

set PROPERTIES_ORIGIN ["COM"]
properties('MP2/aug-cc-pvtz', properties = ['dipole'])
--------------------------------------------------------------------------

    Molecular point group: c1
  Charge       = 0
  Multiplicity = 1
  Basis Set: AUG-CC-PVTZ
    Blend: AUG-CC-PVTZ
  Basis Set: (AUG-CC-PVTZ AUX)
    Blend: AUG-CC-PVTZ-JKFIT

    Orbital Energies [Eh]
    ---------------------

    Doubly Occupied:

       1A    -15.577211     2A    -11.282404     3A    -11.277101
       4A    -11.243740     5A    -11.237553     6A    -11.236772
       7A    -11.235466     8A    -11.234673     9A    -11.228296
      10A    -11.227918    11A    -11.225475    12A    -11.224095
      13A    -11.223895    14A    -11.223798    15A     -1.258055
      16A     -1.152253    17A     -1.128717    18A     -1.043208
      19A     -1.014764    20A     -1.009127    21A     -0.989707
      22A     -0.923246    23A     -0.843393    24A     -0.831970
      25A     -0.811279    26A     -0.785794    27A     -0.712627
      28A     -0.704931    29A     -0.667117    30A     -0.641314
      31A     -0.633689    32A     -0.618440    33A     -0.597160
      34A     -0.590443    35A     -0.583444    36A     -0.582858
      37A     -0.574241    38A     -0.544298    39A     -0.533315
      40A     -0.518112    41A     -0.503543    42A     -0.494512
      43A     -0.490740    44A     -0.471282    45A     -0.442072
      46A     -0.344420    47A     -0.336523    48A     -0.327869
      49A     -0.274632

  @DF-RHF Final Energy:  -554.47934590466537

   => Energetics <=

    Nuclear Repulsion Energy =            787.3758356858583056
    One-Electron Energy =               -2312.3953781761319988
    Two-Electron Energy =                 970.5401965856082143
    Total Energy =                       -554.4793459046653652
  Basis Set: (AUG-CC-PVTZ AUX)
    Blend: AUG-CC-PVTZ-RI
    Molecular point group: c1

    Geometry (in Angstrom), charge = 0, multiplicity = 1:

       Center              X                  Y                   Z               Mass
    ------------   -----------------  -----------------  -----------------  -----------------
         N            0.512732477804     1.182425886834     0.286019728885    14.003074004430
         C           -0.783814522196     0.660974886834     0.145507728885    12.000000000000
         C            1.695802477804     0.447767886834     0.077669728885    12.000000000000
         C           -3.428600822196    -0.359858013166     0.059966028885    12.000000000000
         C           -1.153632522196    -0.528959113166     0.792765728885    12.000000000000
         C           -1.756326522196     1.365986886834    -0.576555271115    12.000000000000
         C           -2.458492522196    -1.004256113166     0.688662728885    12.000000000000
         C           -3.065897522196     0.892254886834    -0.647358271115    12.000000000000
         C            2.915750477804     1.057531886834     0.412497728885    12.000000000000
         C            1.704753477804    -0.856354113166    -0.439751271115    12.000000000000
         C           -4.859712522196    -0.806151113166    -0.089523271115    12.000000000000
         C            4.119860477804     0.385963886834     0.216335728885    12.000000000000
         C            2.916310477804    -1.526769113166    -0.614114271115    12.000000000000
         C            4.128592477804    -0.917227113166    -0.287427271115    12.000000000000
         H            0.592975477804     2.165392886834     0.046931728885     1.007825032230
         H           -0.419840522196    -1.063622113166     1.390421728885     1.007825032230
         H           -1.481085522196     2.285528886834    -1.091530271115     1.007825032230
         H           -2.723695522196    -1.932508113166     1.193177728885     1.007825032230
         H           -3.804246522196     1.457357886834    -1.214492271115     1.007825032230
         H            2.908849477804     2.062681886834     0.830978728885     1.007825032230
         H            0.773724477804    -1.330781113166    -0.734263271115     1.007825032230
         H           -5.369450522196    -0.434915113166    -0.983268271115     1.007825032230
         H           -4.892384522196    -1.899394113166    -0.111505271115     1.007825032230
         H           -5.435154522196    -0.475706113166     0.782400728885     1.007825032230
         H            5.054062477804     0.877870886834     0.477681728885     1.007825032230
         H            2.907616477804    -2.536040113166    -1.019980271115     1.007825032230
         H            5.067062477804    -1.446562113166    -0.429068271115     1.007825032230

  Basis Set: AUG-CC-PVTZ
    Blend: AUG-CC-PVTZ
  Basis Set: (AUG-CC-PVTZ AUX)
    Blend: AUG-CC-PVTZ-JKFIT
	 Reference Energy          =    -554.4793459046653652 [Eh]
	 Singles Energy            =      -0.0000000000000000 [Eh]
	 Same-Spin Energy          =      -0.6238091394371600 [Eh]
	 Opposite-Spin Energy      =      -1.9532643302402679 [Eh]
	 Correlation Energy        =      -2.5770734696774280 [Eh]
	 Total Energy              =    -557.0564193743427950 [Eh]

	 ================> DF-SCS-MP2 Energies <==================
	-----------------------------------------------------------
	 SCS Same-Spin Scale       =       0.3333333333333333 [-]
	 SCS Opposite-Spin Scale   =       1.2000000000000000 [-]
	 SCS Same-Spin Energy      =      -0.2079363798123867 [Eh]
	 SCS Opposite-Spin Energy  =      -2.3439171962883214 [Eh]
	 SCS Correlation Energy    =      -2.5518535761007080 [Eh]
	 SCS Total Energy          =    -557.0311994807660767 [Eh]
	-----------------------------------------------------------

  Dipole Moment: [D]
     X:    -0.6851      Y:     0.6148      Z:    -0.3979     Total:     1.0028

*** Psi4 exiting successfully. Buy a developer a beer!
