                               Psi4 1.4a3.dev225

  ==> Input File <==

--------------------------------------------------------------------------
#psi4
#
memory 32 gb

molecule  {
0 1
  N        0.5479400     1.1907050     0.2959170
  C       -0.6562948     0.7063805     0.1654092
  C        1.7310100     0.4560470     0.0875670
  C       -3.4043000    -0.2987570    -0.0204040
  C       -1.1184250    -0.5206800     0.8026630
  C       -1.7211190     1.3742660    -0.5666580
  C       -2.4232850    -0.9959770     0.6985600
  C       -3.0306900     0.9005340    -0.6374610
  C        2.9509580     1.0658110     0.4223950
  C        1.7399610    -0.8480750    -0.4298540
  C       -4.8245050    -0.7978720    -0.0796260
  C        4.1550680     0.3942430     0.2262330
  C        2.9515180    -1.5184900    -0.6042170
  C        4.1638000    -0.9089480    -0.2775300
  H        0.6281830     2.1736720     0.0568290
  H       -0.3846330    -1.0553430     1.4003190
  H       -1.4458780     2.2938080    -1.0816330
  H       -2.6884880    -1.9242290     1.2030750
  H       -3.7690390     1.4656370    -1.2045950
  H        2.9440570     2.0709610     0.8408760
  H        0.8089320    -1.3225020    -0.7243660
  H       -5.3342430    -0.4266360    -0.9733710
  H       -4.8571770    -1.8911150    -0.1016080
  H       -5.3999470    -0.4674270     0.7922980
  H        5.0892700     0.8861500     0.4875790
  H        2.9428240    -2.5277610    -1.0100830
  H        5.1022700    -1.4382830    -0.4191710
units angstrom
no_reorient  #important for SAPT in psi4, default
symmetry c1  #important for SAPT in psi4, default
}

set PROPERTIES_ORIGIN ["COM"]
properties('MP2/aug-cc-pvtz', properties = ['dipole'])
--------------------------------------------------------------------------

    Molecular point group: c1
  Charge       = 0
  Multiplicity = 1
  Basis Set: AUG-CC-PVTZ
    Blend: AUG-CC-PVTZ
  Basis Set: (AUG-CC-PVTZ AUX)
    Blend: AUG-CC-PVTZ-JKFIT

    Orbital Energies [Eh]
    ---------------------

    Doubly Occupied:

       1A    -15.585950     2A    -11.288248     3A    -11.282912
       4A    -11.242115     5A    -11.241199     6A    -11.234839
       7A    -11.232141     8A    -11.231700     9A    -11.231414
      10A    -11.230928    11A    -11.230010    12A    -11.229132
      13A    -11.228725    14A    -11.219202    15A     -1.291398
      16A     -1.149810    17A     -1.127823    18A     -1.036350
      19A     -1.017599    20A     -1.004686    21A     -0.994182
      22A     -0.917558    23A     -0.844166    24A     -0.837714
      25A     -0.816635    26A     -0.783643    27A     -0.722239
      28A     -0.716539    29A     -0.673071    30A     -0.639230
      31A     -0.635002    32A     -0.620890    33A     -0.601871
      34A     -0.592861    35A     -0.588579    36A     -0.571112
      37A     -0.569652    38A     -0.554544    39A     -0.527054
      40A     -0.516654    41A     -0.501878    42A     -0.495711
      43A     -0.493221    44A     -0.470460    45A     -0.442023
      46A     -0.341940    47A     -0.334022    48A     -0.331202
      49A     -0.267064

  @DF-RHF Final Energy:  -554.47463741195770

   => Energetics <=

    Nuclear Repulsion Energy =            787.4287054606376159
    One-Electron Energy =               -2312.3328917593462393
    Two-Electron Energy =                 970.4295488867510358
    Total Energy =                       -554.4746374119577013
  Basis Set: (AUG-CC-PVTZ AUX)
    Blend: AUG-CC-PVTZ-RI
    Molecular point group: c1

    Geometry (in Angstrom), charge = 0, multiplicity = 1:

       Center              X                  Y                   Z               Mass
    ------------   -----------------  -----------------  -----------------  -----------------
         N            0.507397467454     1.176531006944     0.291279870634    14.003074004430
         C           -0.696837332546     0.692206506944     0.160772070634    12.000000000000
         C            1.690467467454     0.441873006944     0.082929870634    12.000000000000
         C           -3.444842532546    -0.312930993056    -0.025041129366    12.000000000000
         C           -1.158967532546    -0.534853993056     0.798025870634    12.000000000000
         C           -1.761661532546     1.360092006944    -0.571295129366    12.000000000000
         C           -2.463827532546    -1.010150993056     0.693922870634    12.000000000000
         C           -3.071232532546     0.886360006944    -0.642098129366    12.000000000000
         C            2.910415467454     1.051637006944     0.417757870634    12.000000000000
         C            1.699418467454    -0.862248993056    -0.434491129366    12.000000000000
         C           -4.865047532546    -0.812045993056    -0.084263129366    12.000000000000
         C            4.114525467454     0.380069006944     0.221595870634    12.000000000000
         C            2.910975467454    -1.532663993056    -0.608854129366    12.000000000000
         C            4.123257467454    -0.923121993056    -0.282167129366    12.000000000000
         H            0.587640467454     2.159498006944     0.052191870634     1.007825032230
         H           -0.425175532546    -1.069516993056     1.395681870634     1.007825032230
         H           -1.486420532546     2.279634006944    -1.086270129366     1.007825032230
         H           -2.729030532546    -1.938402993056     1.198437870634     1.007825032230
         H           -3.809581532546     1.451463006944    -1.209232129366     1.007825032230
         H            2.903514467454     2.056787006944     0.836238870634     1.007825032230
         H            0.768389467454    -1.336675993056    -0.729003129366     1.007825032230
         H           -5.374785532546    -0.440809993056    -0.978008129366     1.007825032230
         H           -4.897719532546    -1.905288993056    -0.106245129366     1.007825032230
         H           -5.440489532546    -0.481600993056     0.787660870634     1.007825032230
         H            5.048727467454     0.871976006944     0.482941870634     1.007825032230
         H            2.902281467454    -2.541934993056    -1.014720129366     1.007825032230
         H            5.061727467454    -1.452456993056    -0.423808129366     1.007825032230

  Basis Set: AUG-CC-PVTZ
    Blend: AUG-CC-PVTZ
  Basis Set: (AUG-CC-PVTZ AUX)
    Blend: AUG-CC-PVTZ-JKFIT
	 Reference Energy          =    -554.4746374119577013 [Eh]
	 Singles Energy            =      -0.0000000000000000 [Eh]
	 Same-Spin Energy          =      -0.6253840819839134 [Eh]
	 Opposite-Spin Energy      =      -1.9547332524898433 [Eh]
	 Correlation Energy        =      -2.5801173344737567 [Eh]
	 Total Energy              =    -557.0547547464315130 [Eh]

	 ================> DF-SCS-MP2 Energies <==================
	-----------------------------------------------------------
	 SCS Same-Spin Scale       =       0.3333333333333333 [-]
	 SCS Opposite-Spin Scale   =       1.2000000000000000 [-]
	 SCS Same-Spin Energy      =      -0.2084613606613044 [Eh]
	 SCS Opposite-Spin Energy  =      -2.3456799029878117 [Eh]
	 SCS Correlation Energy    =      -2.5541412636491163 [Eh]
	 SCS Total Energy          =    -557.0287786756068726 [Eh]
	-----------------------------------------------------------

  Dipole Moment: [D]
     X:     0.2270      Y:     0.6573      Z:    -0.3045     Total:     0.7591

*** Psi4 exiting successfully. Buy a developer a beer!
