                               Psi4 1.4a3.dev225

  ==> Input File <==

--------------------------------------------------------------------------
#psi4
#
memory 32 gb

molecule  {
0 1
  N        0.5479400     1.1907050     0.2959170
  C       -0.9332313     0.5950010     0.1353965
  C        1.7310100     0.4560470     0.0875670
  C       -3.4043000    -0.2987570    -0.0204040
  C       -1.1184250    -0.5206800     0.8026630
  C       -1.7211190     1.3742660    -0.5666580
  C       -2.4232850    -0.9959770     0.6985600
  C       -3.0306900     0.9005340    -0.6374610
  C        2.9509580     1.0658110     0.4223950
  C        1.7399610    -0.8480750    -0.4298540
  C       -4.8245050    -0.7978720    -0.0796260
  C        4.1550680     0.3942430     0.2262330
  C        2.9515180    -1.5184900    -0.6042170
  C        4.1638000    -0.9089480    -0.2775300
  H        0.6281830     2.1736720     0.0568290
  H       -0.3846330    -1.0553430     1.4003190
  H       -1.4458780     2.2938080    -1.0816330
  H       -2.6884880    -1.9242290     1.2030750
  H       -3.7690390     1.4656370    -1.2045950
  H        2.9440570     2.0709610     0.8408760
  H        0.8089320    -1.3225020    -0.7243660
  H       -5.3342430    -0.4266360    -0.9733710
  H       -4.8571770    -1.8911150    -0.1016080
  H       -5.3999470    -0.4674270     0.7922980
  H        5.0892700     0.8861500     0.4875790
  H        2.9428240    -2.5277610    -1.0100830
  H        5.1022700    -1.4382830    -0.4191710
units angstrom
no_reorient  #important for SAPT in psi4, default
symmetry c1  #important for SAPT in psi4, default
}

set PROPERTIES_ORIGIN ["COM"]
properties('MP2/aug-cc-pvtz', properties = ['dipole'])
--------------------------------------------------------------------------

    Molecular point group: c1
  Charge       = 0
  Multiplicity = 1
  Basis Set: AUG-CC-PVTZ
    Blend: AUG-CC-PVTZ
  Basis Set: (AUG-CC-PVTZ AUX)
    Blend: AUG-CC-PVTZ-JKFIT

    Orbital Energies [Eh]
    ---------------------

    Doubly Occupied:

       1A    -15.559196     2A    -11.273940     3A    -11.272714
       4A    -11.244320     5A    -11.242379     6A    -11.241878
       7A    -11.234359     8A    -11.231346     9A    -11.230833
      10A    -11.230616    11A    -11.228924    12A    -11.218513
      13A    -11.217178    14A    -11.215655    15A     -1.222236
      16A     -1.170364    17A     -1.116117    18A     -1.053023
      19A     -1.037491    20A     -1.004355    21A     -0.975710
      22A     -0.926741    23A     -0.854135    24A     -0.820674
      25A     -0.808033    26A     -0.790499    27A     -0.700436
      28A     -0.690810    29A     -0.665177    30A     -0.646871
      31A     -0.637879    32A     -0.614670    33A     -0.611455
      34A     -0.589416    35A     -0.581873    36A     -0.575701
      37A     -0.561825    38A     -0.545688    39A     -0.529967
      40A     -0.509738    41A     -0.507525    42A     -0.503008
      43A     -0.489421    44A     -0.470880    45A     -0.428129
      46A     -0.349858    47A     -0.339088    48A     -0.330059
      49A     -0.278524

  @DF-RHF Final Energy:  -554.44958015763802

   => Energetics <=

    Nuclear Repulsion Energy =            787.7412958627402304
    One-Electron Energy =               -2313.2232936813043125
    Two-Electron Energy =                 971.0324176609261713
    Total Energy =                       -554.4495801576380245
  Basis Set: (AUG-CC-PVTZ AUX)
    Blend: AUG-CC-PVTZ-RI
    Molecular point group: c1

    Geometry (in Angstrom), charge = 0, multiplicity = 1:

       Center              X                  Y                   Z               Mass
    ------------   -----------------  -----------------  -----------------  -----------------
         N            0.525546844262     1.183830400538     0.293246790131    14.003074004430
         C           -0.955624455738     0.588126400538     0.132726290131    12.000000000000
         C            1.708616844262     0.449172400538     0.084896790131    12.000000000000
         C           -3.426693155738    -0.305631599462    -0.023074209869    12.000000000000
         C           -1.140818155738    -0.527554599462     0.799992790131    12.000000000000
         C           -1.743512155738     1.367391400538    -0.569328209869    12.000000000000
         C           -2.445678155738    -1.002851599462     0.695889790131    12.000000000000
         C           -3.053083155738     0.893659400538    -0.640131209869    12.000000000000
         C            2.928564844262     1.058936400538     0.419724790131    12.000000000000
         C            1.717567844262    -0.854949599462    -0.432524209869    12.000000000000
         C           -4.846898155738    -0.804746599462    -0.082296209869    12.000000000000
         C            4.132674844262     0.387368400538     0.223562790131    12.000000000000
         C            2.929124844262    -1.525364599462    -0.606887209869    12.000000000000
         C            4.141406844262    -0.915822599462    -0.280200209869    12.000000000000
         H            0.605789844262     2.166797400538     0.054158790131     1.007825032230
         H           -0.407026155738    -1.062217599462     1.397648790131     1.007825032230
         H           -1.468271155738     2.286933400538    -1.084303209869     1.007825032230
         H           -2.710881155738    -1.931103599462     1.200404790131     1.007825032230
         H           -3.791432155738     1.458762400538    -1.207265209869     1.007825032230
         H            2.921663844262     2.064086400538     0.838205790131     1.007825032230
         H            0.786538844262    -1.329376599462    -0.727036209869     1.007825032230
         H           -5.356636155738    -0.433510599462    -0.976041209869     1.007825032230
         H           -4.879570155738    -1.897989599462    -0.104278209869     1.007825032230
         H           -5.422340155738    -0.474301599462     0.789627790131     1.007825032230
         H            5.066876844262     0.879275400538     0.484908790131     1.007825032230
         H            2.920430844262    -2.534635599462    -1.012753209869     1.007825032230
         H            5.079876844262    -1.445157599462    -0.421841209869     1.007825032230

  Basis Set: AUG-CC-PVTZ
    Blend: AUG-CC-PVTZ
  Basis Set: (AUG-CC-PVTZ AUX)
    Blend: AUG-CC-PVTZ-JKFIT
	 Reference Energy          =    -554.4495801576380245 [Eh]
	 Singles Energy            =      -0.0000000000000000 [Eh]
	 Same-Spin Energy          =      -0.6239848420484595 [Eh]
	 Opposite-Spin Energy      =      -1.9537794403429256 [Eh]
	 Correlation Energy        =      -2.5777642823913851 [Eh]
	 Total Energy              =    -557.0273444400294238 [Eh]

	 ================> DF-SCS-MP2 Energies <==================
	-----------------------------------------------------------
	 SCS Same-Spin Scale       =       0.3333333333333333 [-]
	 SCS Opposite-Spin Scale   =       1.2000000000000000 [-]
	 SCS Same-Spin Energy      =      -0.2079949473494865 [Eh]
	 SCS Opposite-Spin Energy  =      -2.3445353284115105 [Eh]
	 SCS Correlation Energy    =      -2.5525302757609971 [Eh]
	 SCS Total Energy          =    -557.0021104333990252 [Eh]
	-----------------------------------------------------------

  Dipole Moment: [D]
     X:    -2.0754      Y:     0.4393      Z:    -0.3952     Total:     2.1579

*** Psi4 exiting successfully. Buy a developer a beer!
