                               Psi4 1.4a3.dev225

  ==> Input File <==

--------------------------------------------------------------------------
#psi4
#
memory 32 gb

molecule  {
0 1
  N        0.5479400     1.1907050     0.2959170
  C       -0.7301446     0.6766793     0.1574058
  C        1.7310100     0.4560470     0.0875670
  C       -3.4043000    -0.2987570    -0.0204040
  C       -1.1184250    -0.5206800     0.8026630
  C       -1.7211190     1.3742660    -0.5666580
  C       -2.4232850    -0.9959770     0.6985600
  C       -3.0306900     0.9005340    -0.6374610
  C        2.9509580     1.0658110     0.4223950
  C        1.7399610    -0.8480750    -0.4298540
  C       -4.8245050    -0.7978720    -0.0796260
  C        4.1550680     0.3942430     0.2262330
  C        2.9515180    -1.5184900    -0.6042170
  C        4.1638000    -0.9089480    -0.2775300
  H        0.6281830     2.1736720     0.0568290
  H       -0.3846330    -1.0553430     1.4003190
  H       -1.4458780     2.2938080    -1.0816330
  H       -2.6884880    -1.9242290     1.2030750
  H       -3.7690390     1.4656370    -1.2045950
  H        2.9440570     2.0709610     0.8408760
  H        0.8089320    -1.3225020    -0.7243660
  H       -5.3342430    -0.4266360    -0.9733710
  H       -4.8571770    -1.8911150    -0.1016080
  H       -5.3999470    -0.4674270     0.7922980
  H        5.0892700     0.8861500     0.4875790
  H        2.9428240    -2.5277610    -1.0100830
  H        5.1022700    -1.4382830    -0.4191710
units angstrom
no_reorient  #important for SAPT in psi4, default
symmetry c1  #important for SAPT in psi4, default
}

set PROPERTIES_ORIGIN ["COM"]
properties('MP2/aug-cc-pvtz', properties = ['dipole'])
--------------------------------------------------------------------------

    Molecular point group: c1
  Charge       = 0
  Multiplicity = 1
  Basis Set: AUG-CC-PVTZ
    Blend: AUG-CC-PVTZ
  Basis Set: (AUG-CC-PVTZ AUX)
    Blend: AUG-CC-PVTZ-JKFIT

    Orbital Energies [Eh]
    ---------------------

    Doubly Occupied:

       1A    -15.578955     2A    -11.283673     3A    -11.278360
       4A    -11.238656     5A    -11.237910     6A    -11.235247
       7A    -11.234197     8A    -11.233489     9A    -11.232408
      10A    -11.229942    11A    -11.229734    12A    -11.227077
      13A    -11.225455    14A    -11.222472    15A     -1.263924
      16A     -1.150678    17A     -1.128883    18A     -1.039569
      19A     -1.015245    20A     -1.010341    21A     -0.990741
      22A     -0.920694    23A     -0.842501    24A     -0.830997
      25A     -0.817184    26A     -0.784770    27A     -0.714959
      28A     -0.706373    29A     -0.669328    30A     -0.640230
      31A     -0.634820    32A     -0.619400    33A     -0.598350
      34A     -0.589254    35A     -0.585073    36A     -0.580768
      37A     -0.572730    38A     -0.546825    39A     -0.530284
      40A     -0.513848    41A     -0.501626    42A     -0.494337
      43A     -0.490792    44A     -0.483230    45A     -0.442430
      46A     -0.340040    47A     -0.335799    48A     -0.330782
      49A     -0.274444

  @DF-RHF Final Energy:  -554.48993194354659

   => Energetics <=

    Nuclear Repulsion Energy =            787.3377900771990880
    One-Electron Energy =               -2312.2977962262957590
    Two-Electron Energy =                 970.4700742055500768
    Total Energy =                       -554.4899319435465941
  Basis Set: (AUG-CC-PVTZ AUX)
    Blend: AUG-CC-PVTZ-RI
    Molecular point group: c1

    Geometry (in Angstrom), charge = 0, multiplicity = 1:

       Center              X                  Y                   Z               Mass
    ------------   -----------------  -----------------  -----------------  -----------------
         N            0.512237305638     1.178477511902     0.291804383374    14.003074004430
         C           -0.765847294362     0.664451811902     0.153293183374    12.000000000000
         C            1.695307305638     0.443819511902     0.083454383374    12.000000000000
         C           -3.440002694362    -0.310984488098    -0.024516616626    12.000000000000
         C           -1.154127694362    -0.532907488098     0.798550383374    12.000000000000
         C           -1.756821694362     1.362038511902    -0.570770616626    12.000000000000
         C           -2.458987694362    -1.008204488098     0.694447383374    12.000000000000
         C           -3.066392694362     0.888306511902    -0.641573616626    12.000000000000
         C            2.915255305638     1.053583511902     0.418282383374    12.000000000000
         C            1.704258305638    -0.860302488098    -0.433966616626    12.000000000000
         C           -4.860207694362    -0.810099488098    -0.083738616626    12.000000000000
         C            4.119365305638     0.382015511902     0.222120383374    12.000000000000
         C            2.915815305638    -1.530717488098    -0.608329616626    12.000000000000
         C            4.128097305638    -0.921175488098    -0.281642616626    12.000000000000
         H            0.592480305638     2.161444511902     0.052716383374     1.007825032230
         H           -0.420335694362    -1.067570488098     1.396206383374     1.007825032230
         H           -1.481580694362     2.281580511902    -1.085745616626     1.007825032230
         H           -2.724190694362    -1.936456488098     1.198962383374     1.007825032230
         H           -3.804741694362     1.453409511902    -1.208707616626     1.007825032230
         H            2.908354305638     2.058733511902     0.836763383374     1.007825032230
         H            0.773229305638    -1.334729488098    -0.728478616626     1.007825032230
         H           -5.369945694362    -0.438863488098    -0.977483616626     1.007825032230
         H           -4.892879694362    -1.903342488098    -0.105720616626     1.007825032230
         H           -5.435649694362    -0.479654488098     0.788185383374     1.007825032230
         H            5.053567305638     0.873922511902     0.483466383374     1.007825032230
         H            2.907121305638    -2.539988488098    -1.014195616626     1.007825032230
         H            5.066567305638    -1.450510488098    -0.423283616626     1.007825032230

  Basis Set: AUG-CC-PVTZ
    Blend: AUG-CC-PVTZ
  Basis Set: (AUG-CC-PVTZ AUX)
    Blend: AUG-CC-PVTZ-JKFIT
	 Reference Energy          =    -554.4899319435465941 [Eh]
	 Singles Energy            =      -0.0000000000000000 [Eh]
	 Same-Spin Energy          =      -0.6241402169000629 [Eh]
	 Opposite-Spin Energy      =      -1.9529424126122794 [Eh]
	 Correlation Energy        =      -2.5770826295123426 [Eh]
	 Total Energy              =    -557.0670145730589411 [Eh]

	 ================> DF-SCS-MP2 Energies <==================
	-----------------------------------------------------------
	 SCS Same-Spin Scale       =       0.3333333333333333 [-]
	 SCS Opposite-Spin Scale   =       1.2000000000000000 [-]
	 SCS Same-Spin Energy      =      -0.2080467389666876 [Eh]
	 SCS Opposite-Spin Energy  =      -2.3435308951347351 [Eh]
	 SCS Correlation Energy    =      -2.5515776341014229 [Eh]
	 SCS Total Energy          =    -557.0415095776480712 [Eh]
	-----------------------------------------------------------

  Dipole Moment: [D]
     X:    -0.4712      Y:     0.5930      Z:    -0.3342     Total:     0.8279

*** Psi4 exiting successfully. Buy a developer a beer!
