                               Psi4 1.4a3.dev225

  ==> Input File <==

--------------------------------------------------------------------------
#psi4
#
memory 32 gb

molecule  {
0 1
  N        0.5479400     1.1907050     0.2959170
  C       -0.7486070     0.6692540     0.1554050
  C        1.7310100     0.4560470     0.0875670
  C       -3.4043000    -0.2987570    -0.0204040
  C       -1.1184250    -0.5206800     0.8026630
  C       -1.7211190     1.3742660    -0.5666580
  C       -2.4232850    -0.9959770     0.6985600
  C       -3.0306900     0.9005340    -0.6374610
  C        2.9509580     1.0658110     0.4223950
  C        1.7399610    -0.8480750    -0.4298540
  C       -4.8245050    -0.7978720    -0.0796260
  C        4.1550680     0.3942430     0.2262330
  C        2.9515180    -1.5184900    -0.6042170
  C        4.1638000    -0.9089480    -0.2775300
  H        0.6281830     2.1736720     0.0568290
  H       -0.3846330    -1.0553430     1.4003190
  H       -1.4458780     2.2938080    -1.0816330
  H       -2.6884880    -1.9242290     1.2030750
  H       -3.6334503     1.3618628    -1.1004478
  H        2.9440570     2.0709610     0.8408760
  H        0.8089320    -1.3225020    -0.7243660
  H       -5.3342430    -0.4266360    -0.9733710
  H       -4.8571770    -1.8911150    -0.1016080
  H       -5.3999470    -0.4674270     0.7922980
  H        5.0892700     0.8861500     0.4875790
  H        2.9428240    -2.5277610    -1.0100830
  H        5.1022700    -1.4382830    -0.4191710
units angstrom
no_reorient  #important for SAPT in psi4, default
symmetry c1  #important for SAPT in psi4, default
}

set PROPERTIES_ORIGIN ["COM"]
properties('MP2/aug-cc-pvtz', properties = ['dipole'])
--------------------------------------------------------------------------

    Molecular point group: c1
  Charge       = 0
  Multiplicity = 1
  Basis Set: AUG-CC-PVTZ
    Blend: AUG-CC-PVTZ
  Basis Set: (AUG-CC-PVTZ AUX)
    Blend: AUG-CC-PVTZ-JKFIT

    Orbital Energies [Eh]
    ---------------------

    Doubly Occupied:

       1A    -15.576671     2A    -11.282268     3A    -11.276266
       4A    -11.237618     5A    -11.236913     6A    -11.234648
       7A    -11.233073     8A    -11.231505     9A    -11.229604
      10A    -11.228279    11A    -11.225731    12A    -11.224162
      13A    -11.223411    14A    -11.210544    15A     -1.257621
      16A     -1.152641    17A     -1.128927    18A     -1.040974
      19A     -1.021929    20A     -1.011568    21A     -0.989641
      22A     -0.923439    23A     -0.852876    24A     -0.830510
      25A     -0.817891    26A     -0.791432    27A     -0.721604
      28A     -0.705499    29A     -0.668733    30A     -0.645438
      31A     -0.634814    32A     -0.627077    33A     -0.598512
      34A     -0.597216    35A     -0.585456    36A     -0.582319
      37A     -0.573768    38A     -0.546264    39A     -0.532034
      40A     -0.513506    41A     -0.501420    42A     -0.494344
      43A     -0.490928    44A     -0.487553    45A     -0.441559
      46A     -0.339789    47A     -0.335350    48A     -0.330319
      49A     -0.275172

  @DF-RHF Final Energy:  -554.45671450042232

   => Energetics <=

    Nuclear Repulsion Energy =            788.5536116638485282
    One-Electron Energy =               -2314.6230115089515493
    Two-Electron Energy =                 971.6126853446805853
    Total Energy =                       -554.4567145004223221
  Basis Set: (AUG-CC-PVTZ AUX)
    Blend: AUG-CC-PVTZ-RI
    Molecular point group: c1

    Geometry (in Angstrom), charge = 0, multiplicity = 1:

       Center              X                  Y                   Z               Mass
    ------------   -----------------  -----------------  -----------------  -----------------
         N            0.512700969695     1.179535320529     0.291362272870    14.003074004430
         C           -0.783846030305     0.658084320529     0.150850272870    12.000000000000
         C            1.695770969695     0.444877320529     0.083012272870    12.000000000000
         C           -3.439539030305    -0.309926679471    -0.024958727130    12.000000000000
         C           -1.153664030305    -0.531849679471     0.798108272870    12.000000000000
         C           -1.756358030305     1.363096320529    -0.571212727130    12.000000000000
         C           -2.458524030305    -1.007146679471     0.694005272870    12.000000000000
         C           -3.065929030305     0.889364320529    -0.642015727130    12.000000000000
         C            2.915718969695     1.054641320529     0.417840272870    12.000000000000
         C            1.704721969695    -0.859244679471    -0.434408727130    12.000000000000
         C           -4.859744030305    -0.809041679471    -0.084180727130    12.000000000000
         C            4.119828969695     0.383073320529     0.221678272870    12.000000000000
         C            2.916278969695    -1.529659679471    -0.608771727130    12.000000000000
         C            4.128560969695    -0.920117679471    -0.282084727130    12.000000000000
         H            0.592943969695     2.162502320529     0.052274272870     1.007825032230
         H           -0.419872030305    -1.066512679471     1.395764272870     1.007825032230
         H           -1.481117030305     2.282638320529    -1.086187727130     1.007825032230
         H           -2.723727030305    -1.935398679471     1.198520272870     1.007825032230
         H           -3.668689330305     1.350693120529    -1.105002527130     1.007825032230
         H            2.908817969695     2.059791320529     0.836321272870     1.007825032230
         H            0.773692969695    -1.333671679471    -0.728920727130     1.007825032230
         H           -5.369482030305    -0.437805679471    -0.977925727130     1.007825032230
         H           -4.892416030305    -1.902284679471    -0.106162727130     1.007825032230
         H           -5.435186030305    -0.478596679471     0.787743272870     1.007825032230
         H            5.054030969695     0.874980320529     0.483024272870     1.007825032230
         H            2.907584969695    -2.538930679471    -1.014637727130     1.007825032230
         H            5.067030969695    -1.449452679471    -0.423725727130     1.007825032230

  Basis Set: AUG-CC-PVTZ
    Blend: AUG-CC-PVTZ
  Basis Set: (AUG-CC-PVTZ AUX)
    Blend: AUG-CC-PVTZ-JKFIT
	 Reference Energy          =    -554.4567145004223221 [Eh]
	 Singles Energy            =      -0.0000000000000000 [Eh]
	 Same-Spin Energy          =      -0.6236814479509365 [Eh]
	 Opposite-Spin Energy      =      -1.9520774814376418 [Eh]
	 Correlation Energy        =      -2.5757589293885781 [Eh]
	 Total Energy              =    -557.0324734298109206 [Eh]

	 ================> DF-SCS-MP2 Energies <==================
	-----------------------------------------------------------
	 SCS Same-Spin Scale       =       0.3333333333333333 [-]
	 SCS Opposite-Spin Scale   =       1.2000000000000000 [-]
	 SCS Same-Spin Energy      =      -0.2078938159836455 [Eh]
	 SCS Opposite-Spin Energy  =      -2.3424929777251702 [Eh]
	 SCS Correlation Energy    =      -2.5503867937088156 [Eh]
	 SCS Total Energy          =    -557.0071012941311892 [Eh]
	-----------------------------------------------------------

  Dipole Moment: [D]
     X:    -0.6935      Y:     0.6039      Z:    -0.3672     Total:     0.9902

*** Psi4 exiting successfully. Buy a developer a beer!
