                               Psi4 1.4a3.dev225

  ==> Input File <==

--------------------------------------------------------------------------
#psi4
#
memory 32 gb

molecule  {
0 1
  N        0.5479400     1.1907050     0.2959170
  C       -0.7486070     0.6692540     0.1554050
  C        1.7310100     0.4560470     0.0875670
  C       -3.4043000    -0.2987570    -0.0204040
  C       -1.1184250    -0.5206800     0.8026630
  C       -1.7211190     1.3742660    -0.5666580
  C       -2.4232850    -0.9959770     0.6985600
  C       -3.0306900     0.9005340    -0.6374610
  C        2.9509580     1.0658110     0.4223950
  C        1.7399610    -0.8480750    -0.4298540
  C       -4.8245050    -0.7978720    -0.0796260
  C        4.2415322     0.3460193     0.2121471
  C        2.9515180    -1.5184900    -0.6042170
  C        4.1638000    -0.9089480    -0.2775300
  H        0.6281830     2.1736720     0.0568290
  H       -0.3846330    -1.0553430     1.4003190
  H       -1.4458780     2.2938080    -1.0816330
  H       -2.6884880    -1.9242290     1.2030750
  H       -3.7690390     1.4656370    -1.2045950
  H        2.9440570     2.0709610     0.8408760
  H        0.8089320    -1.3225020    -0.7243660
  H       -5.3342430    -0.4266360    -0.9733710
  H       -4.8571770    -1.8911150    -0.1016080
  H       -5.3999470    -0.4674270     0.7922980
  H        5.0892700     0.8861500     0.4875790
  H        2.9428240    -2.5277610    -1.0100830
  H        5.1022700    -1.4382830    -0.4191710
units angstrom
no_reorient  #important for SAPT in psi4, default
symmetry c1  #important for SAPT in psi4, default
}

set PROPERTIES_ORIGIN ["COM"]
properties('MP2/aug-cc-pvtz', properties = ['dipole'])
--------------------------------------------------------------------------

    Molecular point group: c1
  Charge       = 0
  Multiplicity = 1
  Basis Set: AUG-CC-PVTZ
    Blend: AUG-CC-PVTZ
  Basis Set: (AUG-CC-PVTZ AUX)
    Blend: AUG-CC-PVTZ-JKFIT

    Orbital Energies [Eh]
    ---------------------

    Doubly Occupied:

       1A    -15.575934     2A    -11.281528     3A    -11.277189
       4A    -11.238768     5A    -11.238721     6A    -11.236002
       7A    -11.235083     8A    -11.234751     9A    -11.234135
      10A    -11.232255    11A    -11.229877    12A    -11.229849
      13A    -11.223029    14A    -11.222071    15A     -1.257157
      16A     -1.150292    17A     -1.126955    18A     -1.041968
      19A     -1.015451    20A     -1.007006    21A     -0.989522
      22A     -0.920115    23A     -0.845857    24A     -0.831393
      25A     -0.814211    26A     -0.785562    27A     -0.714761
      28A     -0.703311    29A     -0.668382    30A     -0.640225
      31A     -0.639583    32A     -0.616530    33A     -0.608298
      34A     -0.587852    35A     -0.583934    36A     -0.578163
      37A     -0.572942    38A     -0.544068    39A     -0.529605
      40A     -0.509954    41A     -0.501877    42A     -0.493960
      43A     -0.489243    44A     -0.484274    45A     -0.442887
      46A     -0.339979    47A     -0.335774    48A     -0.326060
      49A     -0.277262

  @DF-RHF Final Energy:  -554.47886506978625

   => Energetics <=

    Nuclear Repulsion Energy =            786.1449310479525820
    One-Electron Energy =               -2309.9203791125664793
    Two-Electron Energy =                 969.2965829948277587
    Total Energy =                       -554.4788650697862522
  Basis Set: (AUG-CC-PVTZ AUX)
    Blend: AUG-CC-PVTZ-RI
    Molecular point group: c1

    Geometry (in Angstrom), charge = 0, multiplicity = 1:

       Center              X                  Y                   Z               Mass
    ------------   -----------------  -----------------  -----------------  -----------------
         N            0.507780723383     1.182124538097     0.292858645199    14.003074004430
         C           -0.788766276617     0.660673538097     0.152346645199    12.000000000000
         C            1.690850723383     0.447466538097     0.084508645199    12.000000000000
         C           -3.444459276617    -0.307337461903    -0.023462354801    12.000000000000
         C           -1.158584276617    -0.529260461903     0.799604645199    12.000000000000
         C           -1.761278276617     1.365685538097    -0.569716354801    12.000000000000
         C           -2.463444276617    -1.004557461903     0.695501645199    12.000000000000
         C           -3.070849276617     0.891953538097    -0.640519354801    12.000000000000
         C            2.910798723383     1.057230538097     0.419336645199    12.000000000000
         C            1.699801723383    -0.856655461903    -0.432912354801    12.000000000000
         C           -4.864664276617    -0.806452461903    -0.082684354801    12.000000000000
         C            4.201372923383     0.337438838097     0.209088745199    12.000000000000
         C            2.911358723383    -1.527070461903    -0.607275354801    12.000000000000
         C            4.123640723383    -0.917528461903    -0.280588354801    12.000000000000
         H            0.588023723383     2.165091538097     0.053770645199     1.007825032230
         H           -0.424792276617    -1.063923461903     1.397260645199     1.007825032230
         H           -1.486037276617     2.285227538097    -1.084691354801     1.007825032230
         H           -2.728647276617    -1.932809461903     1.200016645199     1.007825032230
         H           -3.809198276617     1.457056538097    -1.207653354801     1.007825032230
         H            2.903897723383     2.062380538097     0.837817645199     1.007825032230
         H            0.768772723383    -1.331082461903    -0.727424354801     1.007825032230
         H           -5.374402276617    -0.435216461903    -0.976429354801     1.007825032230
         H           -4.897336276617    -1.899695461903    -0.104666354801     1.007825032230
         H           -5.440106276617    -0.476007461903     0.789239645199     1.007825032230
         H            5.049110723383     0.877569538097     0.484520645199     1.007825032230
         H            2.902664723383    -2.536341461903    -1.013141354801     1.007825032230
         H            5.062110723383    -1.446863461903    -0.422229354801     1.007825032230

  Basis Set: AUG-CC-PVTZ
    Blend: AUG-CC-PVTZ
  Basis Set: (AUG-CC-PVTZ AUX)
    Blend: AUG-CC-PVTZ-JKFIT
	 Reference Energy          =    -554.4788650697862522 [Eh]
	 Singles Energy            =      -0.0000000000000000 [Eh]
	 Same-Spin Energy          =      -0.6238827620136321 [Eh]
	 Opposite-Spin Energy      =      -1.9536172268485821 [Eh]
	 Correlation Energy        =      -2.5774999888622143 [Eh]
	 Total Energy              =    -557.0563650586484528 [Eh]

	 ================> DF-SCS-MP2 Energies <==================
	-----------------------------------------------------------
	 SCS Same-Spin Scale       =       0.3333333333333333 [-]
	 SCS Opposite-Spin Scale   =       1.2000000000000000 [-]
	 SCS Same-Spin Energy      =      -0.2079609206712107 [Eh]
	 SCS Opposite-Spin Energy  =      -2.3443406722182982 [Eh]
	 SCS Correlation Energy    =      -2.5523015928895090 [Eh]
	 SCS Total Energy          =    -557.0311666626757869 [Eh]
	-----------------------------------------------------------

  Dipole Moment: [D]
     X:    -0.5862      Y:     0.5443      Z:    -0.3543     Total:     0.8748

*** Psi4 exiting successfully. Buy a developer a beer!
