                               Psi4 1.4a3.dev225

  ==> Input File <==

--------------------------------------------------------------------------
#psi4
#
memory 32 gb

molecule  {
0 1
  N        0.5479400     1.1907050     0.2959170
  C       -0.7486070     0.6692540     0.1554050
  C        1.7310100     0.4560470     0.0875670
  C       -3.4043000    -0.2987570    -0.0204040
  C       -1.1184250    -0.5206800     0.8026630
  C       -1.7211190     1.3742660    -0.5666580
  C       -2.4232850    -0.9959770     0.6985600
  C       -3.0306900     0.9005340    -0.6374610
  C        2.9509580     1.0658110     0.4223950
  C        1.7281853    -0.8675276    -0.4385848
  C       -4.8245050    -0.7978720    -0.0796260
  C        4.1550680     0.3942430     0.2262330
  C        2.9515180    -1.5184900    -0.6042170
  C        4.1638000    -0.9089480    -0.2775300
  H        0.6281830     2.1736720     0.0568290
  H       -0.3846330    -1.0553430     1.4003190
  H       -1.4458780     2.2938080    -1.0816330
  H       -2.6884880    -1.9242290     1.2030750
  H       -3.7690390     1.4656370    -1.2045950
  H        2.9440570     2.0709610     0.8408760
  H        0.8089320    -1.3225020    -0.7243660
  H       -5.3342430    -0.4266360    -0.9733710
  H       -4.8571770    -1.8911150    -0.1016080
  H       -5.3999470    -0.4674270     0.7922980
  H        5.0892700     0.8861500     0.4875790
  H        2.9428240    -2.5277610    -1.0100830
  H        5.1022700    -1.4382830    -0.4191710
units angstrom
no_reorient  #important for SAPT in psi4, default
symmetry c1  #important for SAPT in psi4, default
}

set PROPERTIES_ORIGIN ["COM"]
properties('MP2/aug-cc-pvtz', properties = ['dipole'])
--------------------------------------------------------------------------

    Molecular point group: c1
  Charge       = 0
  Multiplicity = 1
  Basis Set: AUG-CC-PVTZ
    Blend: AUG-CC-PVTZ
  Basis Set: (AUG-CC-PVTZ AUX)
    Blend: AUG-CC-PVTZ-JKFIT

    Orbital Energies [Eh]
    ---------------------

    Doubly Occupied:

       1A    -15.577647     2A    -11.285217     3A    -11.277623
       4A    -11.238290     5A    -11.237282     6A    -11.236469
       7A    -11.235098     8A    -11.234489     9A    -11.232868
      10A    -11.230283    11A    -11.228146    12A    -11.226697
      13A    -11.224092    14A    -11.223335    15A     -1.258029
      16A     -1.151215    17A     -1.127483    18A     -1.040686
      19A     -1.016110    20A     -1.011053    21A     -0.988037
      22A     -0.921491    23A     -0.842568    24A     -0.830701
      25A     -0.815611    26A     -0.785632    27A     -0.713015
      28A     -0.703910    29A     -0.670704    30A     -0.640395
      31A     -0.635388    32A     -0.619542    33A     -0.596136
      34A     -0.587867    35A     -0.585830    36A     -0.583037
      37A     -0.573616    38A     -0.545558    39A     -0.530439
      40A     -0.514596    41A     -0.500389    42A     -0.494426
      43A     -0.490795    44A     -0.485788    45A     -0.441816
      46A     -0.340551    47A     -0.336161    48A     -0.330033
      49A     -0.275025

  @DF-RHF Final Energy:  -554.48986482224893

   => Energetics <=

    Nuclear Repulsion Energy =            787.0041367971451791
    One-Electron Energy =               -2311.6456665855830579
    Two-Electron Energy =                 970.1516649661888323
    Total Energy =                       -554.4898648222489328
  Basis Set: (AUG-CC-PVTZ AUX)
    Blend: AUG-CC-PVTZ-RI
    Molecular point group: c1

    Geometry (in Angstrom), charge = 0, multiplicity = 1:

       Center              X                  Y                   Z               Mass
    ------------   -----------------  -----------------  -----------------  -----------------
         N            0.514218997004     1.180238988395     0.292507692082    14.003074004430
         C           -0.782328002996     0.658787988395     0.151995692082    12.000000000000
         C            1.697288997004     0.445580988395     0.084157692082    12.000000000000
         C           -3.438021002996    -0.309223011605    -0.023813307918    12.000000000000
         C           -1.152146002996    -0.531146011605     0.799253692082    12.000000000000
         C           -1.754840002996     1.363799988395    -0.570067307918    12.000000000000
         C           -2.457006002996    -1.006443011605     0.695150692082    12.000000000000
         C           -3.064411002996     0.890067988395    -0.640870307918    12.000000000000
         C            2.917236997004     1.055344988395     0.418985692082    12.000000000000
         C            1.694464297004    -0.877993611605    -0.441994107918    12.000000000000
         C           -4.858226002996    -0.808338011605    -0.083035307918    12.000000000000
         C            4.121346997004     0.383776988395     0.222823692082    12.000000000000
         C            2.917796997004    -1.528956011605    -0.607626307918    12.000000000000
         C            4.130078997004    -0.919414011605    -0.280939307918    12.000000000000
         H            0.594461997004     2.163205988395     0.053419692082     1.007825032230
         H           -0.418354002996    -1.065809011605     1.396909692082     1.007825032230
         H           -1.479599002996     2.283341988395    -1.085042307918     1.007825032230
         H           -2.722209002996    -1.934695011605     1.199665692082     1.007825032230
         H           -3.802760002996     1.455170988395    -1.208004307918     1.007825032230
         H            2.910335997004     2.060494988395     0.837466692082     1.007825032230
         H            0.775210997004    -1.332968011605    -0.727775307918     1.007825032230
         H           -5.367964002996    -0.437102011605    -0.976780307918     1.007825032230
         H           -4.890898002996    -1.901581011605    -0.105017307918     1.007825032230
         H           -5.433668002996    -0.477893011605     0.788888692082     1.007825032230
         H            5.055548997004     0.875683988395     0.484169692082     1.007825032230
         H            2.909102997004    -2.538227011605    -1.013492307918     1.007825032230
         H            5.068548997004    -1.448749011605    -0.422580307918     1.007825032230

  Basis Set: AUG-CC-PVTZ
    Blend: AUG-CC-PVTZ
  Basis Set: (AUG-CC-PVTZ AUX)
    Blend: AUG-CC-PVTZ-JKFIT
	 Reference Energy          =    -554.4898648222489328 [Eh]
	 Singles Energy            =      -0.0000000000000000 [Eh]
	 Same-Spin Energy          =      -0.6238928506851261 [Eh]
	 Opposite-Spin Energy      =      -1.9527764277256656 [Eh]
	 Correlation Energy        =      -2.5766692784107916 [Eh]
	 Total Energy              =    -557.0665341006597373 [Eh]

	 ================> DF-SCS-MP2 Energies <==================
	-----------------------------------------------------------
	 SCS Same-Spin Scale       =       0.3333333333333333 [-]
	 SCS Opposite-Spin Scale   =       1.2000000000000000 [-]
	 SCS Same-Spin Energy      =      -0.2079642835617087 [Eh]
	 SCS Opposite-Spin Energy  =      -2.3433317132707985 [Eh]
	 SCS Correlation Energy    =      -2.5512959968325073 [Eh]
	 SCS Total Energy          =    -557.0411608190814832 [Eh]
	-----------------------------------------------------------

  Dipole Moment: [D]
     X:    -0.6655      Y:     0.5933      Z:    -0.3359     Total:     0.9528

*** Psi4 exiting successfully. Buy a developer a beer!
