                               Psi4 1.4a3.dev225

  ==> Input File <==

--------------------------------------------------------------------------
#psi4
#
memory 32 gb

molecule  {
0 1
  N        0.5479400     1.1907050     0.2959170
  C       -0.7486070     0.6692540     0.1554050
  C        1.7310100     0.4560470     0.0875670
  C       -3.4043000    -0.2987570    -0.0204040
  C       -1.1184250    -0.5206800     0.8026630
  C       -1.7211190     1.3742660    -0.5666580
  C       -2.4232850    -0.9959770     0.6985600
  C       -3.0306900     0.9005340    -0.6374610
  C        2.9509580     1.0658110     0.4223950
  C        1.7399610    -0.8480750    -0.4298540
  C       -4.8245050    -0.7978720    -0.0796260
  C        4.1550680     0.3942430     0.2262330
  C        2.9515180    -1.5184900    -0.6042170
  C        4.1638000    -0.9089480    -0.2775300
  H        0.6281830     2.1736720     0.0568290
  H       -0.3846330    -1.0553430     1.4003190
  H       -1.4458780     2.2938080    -1.0816330
  H       -2.6884880    -1.9242290     1.2030750
  H       -3.7690390     1.4656370    -1.2045950
  H        2.9440570     2.0709610     0.8408760
  H        0.8089320    -1.3225020    -0.7243660
  H       -5.3342430    -0.4266360    -0.9733710
  H       -4.8571770    -1.8911150    -0.1016080
  H       -5.3999470    -0.4674270     0.7922980
  H        5.0892700     0.8861500     0.4875790
  H        2.9428240    -2.5277610    -1.0100830
  H        5.0159128    -1.3895741    -0.4061373
units angstrom
no_reorient  #important for SAPT in psi4, default
symmetry c1  #important for SAPT in psi4, default
}

set PROPERTIES_ORIGIN ["COM"]
properties('MP2/aug-cc-pvtz', properties = ['dipole'])
--------------------------------------------------------------------------

    Molecular point group: c1
  Charge       = 0
  Multiplicity = 1
  Basis Set: AUG-CC-PVTZ
    Blend: AUG-CC-PVTZ
  Basis Set: (AUG-CC-PVTZ AUX)
    Blend: AUG-CC-PVTZ-JKFIT

    Orbital Energies [Eh]
    ---------------------

    Doubly Occupied:

       1A    -15.577106     2A    -11.282332     3A    -11.277223
       4A    -11.237039     5A    -11.236349     6A    -11.236094
       7A    -11.234726     8A    -11.234112     9A    -11.232466
      10A    -11.229894    11A    -11.227965    12A    -11.225424
      13A    -11.223073    14A    -11.212334    15A     -1.257976
      16A     -1.151810    17A     -1.128577    18A     -1.041303
      19A     -1.015699    20A     -1.010230    21A     -0.992464
      22A     -0.922042    23A     -0.843327    24A     -0.831296
      25A     -0.819059    26A     -0.786020    27A     -0.714437
      28A     -0.704110    29A     -0.680259    30A     -0.641184
      31A     -0.635429    32A     -0.618707    33A     -0.599178
      34A     -0.587764    35A     -0.584875    36A     -0.582124
      37A     -0.573268    38A     -0.545490    39A     -0.530442
      40A     -0.520344    41A     -0.502056    42A     -0.494545
      43A     -0.489328    44A     -0.485832    45A     -0.441550
      46A     -0.340025    47A     -0.335282    48A     -0.330692
      49A     -0.275541

  @DF-RHF Final Energy:  -554.48497890769374

   => Energetics <=

    Nuclear Repulsion Energy =            787.8958274373360382
    One-Electron Energy =               -2313.4048068027409499
    Two-Electron Energy =                 971.0240004577111677
    Total Energy =                       -554.4849789076937441
  Basis Set: (AUG-CC-PVTZ AUX)
    Blend: AUG-CC-PVTZ-RI
    Molecular point group: c1

    Geometry (in Angstrom), charge = 0, multiplicity = 1:

       Center              X                  Y                   Z               Mass
    ------------   -----------------  -----------------  -----------------  -----------------
         N            0.513922579585     1.178696040042     0.291863769643    14.003074004430
         C           -0.782624420415     0.657245040042     0.151351769643    12.000000000000
         C            1.696992579585     0.444038040042     0.083513769643    12.000000000000
         C           -3.438317420415    -0.310765959958    -0.024457230357    12.000000000000
         C           -1.152442420415    -0.532688959958     0.798609769643    12.000000000000
         C           -1.755136420415     1.362257040042    -0.570711230357    12.000000000000
         C           -2.457302420415    -1.007985959958     0.694506769643    12.000000000000
         C           -3.064707420415     0.888525040042    -0.641514230357    12.000000000000
         C            2.916940579585     1.053802040042     0.418341769643    12.000000000000
         C            1.705943579585    -0.860083959958    -0.433907230357    12.000000000000
         C           -4.858522420415    -0.809880959958    -0.083679230357    12.000000000000
         C            4.121050579585     0.382234040042     0.222179769643    12.000000000000
         C            2.917500579585    -1.530498959958    -0.608270230357    12.000000000000
         C            4.129782579585    -0.920956959958    -0.281583230357    12.000000000000
         H            0.594165579585     2.161663040042     0.052775769643     1.007825032230
         H           -0.418650420415    -1.067351959958     1.396265769643     1.007825032230
         H           -1.479895420415     2.281799040042    -1.085686230357     1.007825032230
         H           -2.722505420415    -1.936237959958     1.199021769643     1.007825032230
         H           -3.803056420415     1.453628040042    -1.208648230357     1.007825032230
         H            2.910039579585     2.058952040042     0.836822769643     1.007825032230
         H            0.774914579585    -1.334510959958    -0.728419230357     1.007825032230
         H           -5.368260420415    -0.438644959958    -0.977424230357     1.007825032230
         H           -4.891194420415    -1.903123959958    -0.105661230357     1.007825032230
         H           -5.433964420415    -0.479435959958     0.788244769643     1.007825032230
         H            5.055252579585     0.874141040042     0.483525769643     1.007825032230
         H            2.908806579585    -2.539769959958    -1.014136230357     1.007825032230
         H            4.981895379585    -1.401583059958    -0.410190530357     1.007825032230

  Basis Set: AUG-CC-PVTZ
    Blend: AUG-CC-PVTZ
  Basis Set: (AUG-CC-PVTZ AUX)
    Blend: AUG-CC-PVTZ-JKFIT
	 Reference Energy          =    -554.4849789076937441 [Eh]
	 Singles Energy            =      -0.0000000000000000 [Eh]
	 Same-Spin Energy          =      -0.6237966004103378 [Eh]
	 Opposite-Spin Energy      =      -1.9521901415719287 [Eh]
	 Correlation Energy        =      -2.5759867419822666 [Eh]
	 Total Energy              =    -557.0609656496760635 [Eh]

	 ================> DF-SCS-MP2 Energies <==================
	-----------------------------------------------------------
	 SCS Same-Spin Scale       =       0.3333333333333333 [-]
	 SCS Opposite-Spin Scale   =       1.2000000000000000 [-]
	 SCS Same-Spin Energy      =      -0.2079322001367793 [Eh]
	 SCS Opposite-Spin Energy  =      -2.3426281698863143 [Eh]
	 SCS Correlation Energy    =      -2.5505603700230934 [Eh]
	 SCS Total Energy          =    -557.0355392777167935 [Eh]
	-----------------------------------------------------------

  Dipole Moment: [D]
     X:    -0.6009      Y:     0.5620      Z:    -0.3452     Total:     0.8923

*** Psi4 exiting successfully. Buy a developer a beer!
