                               Psi4 1.4a3.dev225

  ==> Input File <==

--------------------------------------------------------------------------
#psi4
#
memory 32 gb

molecule  {
0 1
  N        0.5479400     1.1907050     0.2959170
  C       -0.7486070     0.6692540     0.1554050
  C        1.7310100     0.4560470     0.0875670
  C       -3.4043000    -0.2987570    -0.0204040
  C       -1.1184250    -0.5206800     0.8026630
  C       -1.7211190     1.3742660    -0.5666580
  C       -2.4232850    -0.9959770     0.6985600
  C       -3.0306900     0.9005340    -0.6374610
  C        2.9509580     1.0658110     0.4223950
  C        1.7399610    -0.8480750    -0.4298540
  C       -4.8245050    -0.7978720    -0.0796260
  C        4.1550680     0.3942430     0.2262330
  C        2.9515180    -1.5184900    -0.6042170
  C        4.1638000    -0.9089480    -0.2775300
  H        0.6297644     2.1930446     0.0521170
  H       -0.3846330    -1.0553430     1.4003190
  H       -1.4458780     2.2938080    -1.0816330
  H       -2.6884880    -1.9242290     1.2030750
  H       -3.7690390     1.4656370    -1.2045950
  H        2.9440570     2.0709610     0.8408760
  H        0.8089320    -1.3225020    -0.7243660
  H       -5.3342430    -0.4266360    -0.9733710
  H       -4.8571770    -1.8911150    -0.1016080
  H       -5.3999470    -0.4674270     0.7922980
  H        5.0892700     0.8861500     0.4875790
  H        2.9428240    -2.5277610    -1.0100830
  H        5.1022700    -1.4382830    -0.4191710
units angstrom
no_reorient  #important for SAPT in psi4, default
symmetry c1  #important for SAPT in psi4, default
}

set PROPERTIES_ORIGIN ["COM"]
properties('MP2/aug-cc-pvtz', properties = ['dipole'])
--------------------------------------------------------------------------

    Molecular point group: c1
  Charge       = 0
  Multiplicity = 1
  Basis Set: AUG-CC-PVTZ
    Blend: AUG-CC-PVTZ
  Basis Set: (AUG-CC-PVTZ AUX)
    Blend: AUG-CC-PVTZ-JKFIT

    Orbital Energies [Eh]
    ---------------------

    Doubly Occupied:

       1A    -15.579218     2A    -11.282638     3A    -11.277423
       4A    -11.237830     5A    -11.237139     6A    -11.236176
       7A    -11.234822     8A    -11.234219     9A    -11.232538
      10A    -11.230045    11A    -11.228518    12A    -11.226026
      13A    -11.224385    14A    -11.223137    15A     -1.256380
      16A     -1.151838    17A     -1.127817    18A     -1.040586
      19A     -1.015793    20A     -1.010677    21A     -0.988962
      22A     -0.920898    23A     -0.842270    24A     -0.829627
      25A     -0.816645    26A     -0.784429    27A     -0.713087
      28A     -0.701252    29A     -0.668359    30A     -0.640295
      31A     -0.634978    32A     -0.618879    33A     -0.597083
      34A     -0.586996    35A     -0.585146    36A     -0.582309
      37A     -0.573297    38A     -0.545403    39A     -0.530525
      40A     -0.513272    41A     -0.501243    42A     -0.494715
      43A     -0.489659    44A     -0.485848    45A     -0.441724
      46A     -0.340265    47A     -0.335687    48A     -0.330830
      49A     -0.275600

  @DF-RHF Final Energy:  -554.48972205029827

   => Energetics <=

    Nuclear Repulsion Energy =            787.2130808156009607
    One-Electron Energy =               -2312.0926301890053765
    Two-Electron Energy =                 970.3898273231061467
    Total Energy =                       -554.4897220502982691
  Basis Set: (AUG-CC-PVTZ AUX)
    Blend: AUG-CC-PVTZ-RI
    Molecular point group: c1

    Geometry (in Angstrom), charge = 0, multiplicity = 1:

       Center              X                  Y                   Z               Mass
    ------------   -----------------  -----------------  -----------------  -----------------
         N            0.513438557742     1.178857509636     0.291961443547    14.003074004430
         C           -0.783108442258     0.657406509636     0.151449443547    12.000000000000
         C            1.696508557742     0.444199509636     0.083611443547    12.000000000000
         C           -3.438801442258    -0.310604490364    -0.024359556453    12.000000000000
         C           -1.152926442258    -0.532527490364     0.798707443547    12.000000000000
         C           -1.755620442258     1.362418509636    -0.570613556453    12.000000000000
         C           -2.457786442258    -1.007824490364     0.694604443547    12.000000000000
         C           -3.065191442258     0.888686509636    -0.641416556453    12.000000000000
         C            2.916456557742     1.053963509636     0.418439443547    12.000000000000
         C            1.705459557742    -0.859922490364    -0.433809556453    12.000000000000
         C           -4.859006442258    -0.809719490364    -0.083581556453    12.000000000000
         C            4.120566557742     0.382395509636     0.222277443547    12.000000000000
         C            2.917016557742    -1.530337490364    -0.608172556453    12.000000000000
         C            4.129298557742    -0.920795490364    -0.281485556453    12.000000000000
         H            0.595262957742     2.181197109636     0.048161443547     1.007825032230
         H           -0.419134442258    -1.067190490364     1.396363443547     1.007825032230
         H           -1.480379442258     2.281960509636    -1.085588556453     1.007825032230
         H           -2.722989442258    -1.936076490364     1.199119443547     1.007825032230
         H           -3.803540442258     1.453789509636    -1.208550556453     1.007825032230
         H            2.909555557742     2.059113509636     0.836920443547     1.007825032230
         H            0.774430557742    -1.334349490364    -0.728321556453     1.007825032230
         H           -5.368744442258    -0.438483490364    -0.977326556453     1.007825032230
         H           -4.891678442258    -1.902962490364    -0.105563556453     1.007825032230
         H           -5.434448442258    -0.479274490364     0.788342443547     1.007825032230
         H            5.054768557742     0.874302509636     0.483623443547     1.007825032230
         H            2.908322557742    -2.539608490364    -1.014038556453     1.007825032230
         H            5.067768557742    -1.450130490364    -0.423126556453     1.007825032230

  Basis Set: AUG-CC-PVTZ
    Blend: AUG-CC-PVTZ
  Basis Set: (AUG-CC-PVTZ AUX)
    Blend: AUG-CC-PVTZ-JKFIT
	 Reference Energy          =    -554.4897220502982691 [Eh]
	 Singles Energy            =      -0.0000000000000000 [Eh]
	 Same-Spin Energy          =      -0.6240926350722221 [Eh]
	 Opposite-Spin Energy      =      -1.9530750540449118 [Eh]
	 Correlation Energy        =      -2.5771676891171338 [Eh]
	 Total Energy              =    -557.0668897394153873 [Eh]

	 ================> DF-SCS-MP2 Energies <==================
	-----------------------------------------------------------
	 SCS Same-Spin Scale       =       0.3333333333333333 [-]
	 SCS Opposite-Spin Scale   =       1.2000000000000000 [-]
	 SCS Same-Spin Energy      =      -0.2080308783574074 [Eh]
	 SCS Opposite-Spin Energy  =      -2.3436900648538939 [Eh]
	 SCS Correlation Energy    =      -2.5517209432113011 [Eh]
	 SCS Total Energy          =    -557.0414429935095768 [Eh]
	-----------------------------------------------------------

  Dipole Moment: [D]
     X:    -0.6325      Y:     0.5915      Z:    -0.3434     Total:     0.9316

*** Psi4 exiting successfully. Buy a developer a beer!
