                               Psi4 1.4a3.dev225

  ==> Input File <==

--------------------------------------------------------------------------
#psi4
#
memory 32 gb

molecule  {
0 1
  N        0.5479400     1.1907050     0.2959170
  C       -0.7486070     0.6692540     0.1554050
  C        1.7310100     0.4560470     0.0875670
  C       -3.4043000    -0.2987570    -0.0204040
  C       -1.1184250    -0.5206800     0.8026630
  C       -1.7211190     1.3742660    -0.5666580
  C       -2.4232850    -0.9959770     0.6985600
  C       -3.0306900     0.9005340    -0.6374610
  C        2.9509580     1.0658110     0.4223950
  C        1.7399610    -0.8480750    -0.4298540
  C       -4.8245050    -0.7978720    -0.0796260
  C        4.1377752     0.4038877     0.2290502
  C        2.9515180    -1.5184900    -0.6042170
  C        4.1638000    -0.9089480    -0.2775300
  H        0.6281830     2.1736720     0.0568290
  H       -0.3846330    -1.0553430     1.4003190
  H       -1.4458780     2.2938080    -1.0816330
  H       -2.6884880    -1.9242290     1.2030750
  H       -3.7690390     1.4656370    -1.2045950
  H        2.9440570     2.0709610     0.8408760
  H        0.8089320    -1.3225020    -0.7243660
  H       -5.3342430    -0.4266360    -0.9733710
  H       -4.8571770    -1.8911150    -0.1016080
  H       -5.3999470    -0.4674270     0.7922980
  H        5.0892700     0.8861500     0.4875790
  H        2.9428240    -2.5277610    -1.0100830
  H        5.1022700    -1.4382830    -0.4191710
units angstrom
no_reorient  #important for SAPT in psi4, default
symmetry c1  #important for SAPT in psi4, default
}

set PROPERTIES_ORIGIN ["COM"]
properties('MP2/aug-cc-pvtz', properties = ['dipole'])
--------------------------------------------------------------------------

    Molecular point group: c1
  Charge       = 0
  Multiplicity = 1
  Basis Set: AUG-CC-PVTZ
    Blend: AUG-CC-PVTZ
  Basis Set: (AUG-CC-PVTZ AUX)
    Blend: AUG-CC-PVTZ-JKFIT

    Orbital Energies [Eh]
    ---------------------

    Doubly Occupied:

       1A    -15.577617     2A    -11.282852     3A    -11.277431
       4A    -11.237570     5A    -11.236848     6A    -11.236284
       7A    -11.234892     8A    -11.234278     9A    -11.232693
      10A    -11.230099    11A    -11.226947    12A    -11.225309
      13A    -11.224962    14A    -11.223205    15A     -1.258450
      16A     -1.152366    17A     -1.128729    18A     -1.040538
      19A     -1.016559    20A     -1.012076    21A     -0.988666
      22A     -0.921654    23A     -0.842295    24A     -0.829531
      25A     -0.816929    26A     -0.785212    27A     -0.712998
      28A     -0.704205    29A     -0.668731    30A     -0.640482
      31A     -0.634707    32A     -0.619682    33A     -0.595459
      34A     -0.588140    35A     -0.585544    36A     -0.582560
      37A     -0.573383    38A     -0.545945    39A     -0.530881
      40A     -0.515212    41A     -0.501175    42A     -0.495169
      43A     -0.487597    44A     -0.485601    45A     -0.441746
      46A     -0.341313    47A     -0.337169    48A     -0.330125
      49A     -0.275337

  @DF-RHF Final Energy:  -554.49049563628569

   => Energetics <=

    Nuclear Repulsion Energy =            787.5927256434164292
    One-Electron Energy =               -2312.8321399270062102
    Two-Electron Energy =                 970.7489186473039808
    Total Energy =                       -554.4904956362856865
  Basis Set: (AUG-CC-PVTZ AUX)
    Blend: AUG-CC-PVTZ-RI
    Molecular point group: c1

    Geometry (in Angstrom), charge = 0, multiplicity = 1:

       Center              X                  Y                   Z               Mass
    ------------   -----------------  -----------------  -----------------  -----------------
         N            0.514580566991     1.178332060772     0.291750879588    14.003074004430
         C           -0.781966433009     0.656881060772     0.151238879588    12.000000000000
         C            1.697650566991     0.443674060772     0.083400879588    12.000000000000
         C           -3.437659433009    -0.311129939228    -0.024570120412    12.000000000000
         C           -1.151784433009    -0.533052939228     0.798496879588    12.000000000000
         C           -1.754478433009     1.361893060772    -0.570824120412    12.000000000000
         C           -2.456644433009    -1.008349939228     0.694393879588    12.000000000000
         C           -3.064049433009     0.888161060772    -0.641627120412    12.000000000000
         C            2.917598566991     1.053438060772     0.418228879588    12.000000000000
         C            1.706601566991    -0.860447939228    -0.434020120412    12.000000000000
         C           -4.857864433009    -0.810244939228    -0.083792120412    12.000000000000
         C            4.104415766991     0.391514760772     0.224884079588    12.000000000000
         C            2.918158566991    -1.530862939228    -0.608383120412    12.000000000000
         C            4.130440566991    -0.921320939228    -0.281696120412    12.000000000000
         H            0.594823566991     2.161299060772     0.052662879588     1.007825032230
         H           -0.417992433009    -1.067715939228     1.396152879588     1.007825032230
         H           -1.479237433009     2.281435060772    -1.085799120412     1.007825032230
         H           -2.721847433009    -1.936601939228     1.198908879588     1.007825032230
         H           -3.802398433009     1.453264060772    -1.208761120412     1.007825032230
         H            2.910697566991     2.058588060772     0.836709879588     1.007825032230
         H            0.775572566991    -1.334874939228    -0.728532120412     1.007825032230
         H           -5.367602433009    -0.439008939228    -0.977537120412     1.007825032230
         H           -4.890536433009    -1.903487939228    -0.105774120412     1.007825032230
         H           -5.433306433009    -0.479799939228     0.788131879588     1.007825032230
         H            5.055910566991     0.873777060772     0.483412879588     1.007825032230
         H            2.909464566991    -2.540133939228    -1.014249120412     1.007825032230
         H            5.068910566991    -1.450655939228    -0.423337120412     1.007825032230

  Basis Set: AUG-CC-PVTZ
    Blend: AUG-CC-PVTZ
  Basis Set: (AUG-CC-PVTZ AUX)
    Blend: AUG-CC-PVTZ-JKFIT
	 Reference Energy          =    -554.4904956362856865 [Eh]
	 Singles Energy            =      -0.0000000000000000 [Eh]
	 Same-Spin Energy          =      -0.6238949287967667 [Eh]
	 Opposite-Spin Energy      =      -1.9526095195680107 [Eh]
	 Correlation Energy        =      -2.5765044483647772 [Eh]
	 Total Energy              =    -557.0670000846504308 [Eh]

	 ================> DF-SCS-MP2 Energies <==================
	-----------------------------------------------------------
	 SCS Same-Spin Scale       =       0.3333333333333333 [-]
	 SCS Opposite-Spin Scale   =       1.2000000000000000 [-]
	 SCS Same-Spin Energy      =      -0.2079649762655889 [Eh]
	 SCS Opposite-Spin Energy  =      -2.3431314234816125 [Eh]
	 SCS Correlation Energy    =      -2.5510963997472014 [Eh]
	 SCS Total Energy          =    -557.0415920360328528 [Eh]
	-----------------------------------------------------------

  Dipole Moment: [D]
     X:    -0.6442      Y:     0.5841      Z:    -0.3385     Total:     0.9331

*** Psi4 exiting successfully. Buy a developer a beer!
