                               Psi4 1.4a3.dev225

  ==> Input File <==

--------------------------------------------------------------------------
#psi4
#
memory 32 gb

molecule  {
0 1
  N        0.5479400     1.1907050     0.2959170
  C       -0.7486070     0.6692540     0.1554050
  C        1.7310100     0.4560470     0.0875670
  C       -3.4043000    -0.2987570    -0.0204040
  C       -1.1184250    -0.5206800     0.8026630
  C       -1.7211190     1.3742660    -0.5666580
  C       -2.4232850    -0.9959770     0.6985600
  C       -3.0306900     0.9005340    -0.6374610
  C        2.9509580     1.0658110     0.4223950
  C        1.7399610    -0.8480750    -0.4298540
  C       -4.8245050    -0.7978720    -0.0796260
  C        4.1550680     0.3942430     0.2262330
  C        2.9515180    -1.5184900    -0.6042170
  C        4.1638000    -0.9089480    -0.2775300
  H        0.6321366     2.2221034     0.0450490
  H       -0.3846330    -1.0553430     1.4003190
  H       -1.4458780     2.2938080    -1.0816330
  H       -2.6884880    -1.9242290     1.2030750
  H       -3.7690390     1.4656370    -1.2045950
  H        2.9440570     2.0709610     0.8408760
  H        0.8089320    -1.3225020    -0.7243660
  H       -5.3342430    -0.4266360    -0.9733710
  H       -4.8571770    -1.8911150    -0.1016080
  H       -5.3999470    -0.4674270     0.7922980
  H        5.0892700     0.8861500     0.4875790
  H        2.9428240    -2.5277610    -1.0100830
  H        5.1022700    -1.4382830    -0.4191710
units angstrom
no_reorient  #important for SAPT in psi4, default
symmetry c1  #important for SAPT in psi4, default
}

set PROPERTIES_ORIGIN ["COM"]
properties('MP2/aug-cc-pvtz', properties = ['dipole'])
--------------------------------------------------------------------------

    Molecular point group: c1
  Charge       = 0
  Multiplicity = 1
  Basis Set: AUG-CC-PVTZ
    Blend: AUG-CC-PVTZ
  Basis Set: (AUG-CC-PVTZ AUX)
    Blend: AUG-CC-PVTZ-JKFIT

    Orbital Energies [Eh]
    ---------------------

    Doubly Occupied:

       1A    -15.581960     2A    -11.282656     3A    -11.277486
       4A    -11.237760     5A    -11.237092     6A    -11.236097
       7A    -11.234765     8A    -11.234174     9A    -11.232427
      10A    -11.230046    11A    -11.228409    12A    -11.225998
      13A    -11.224309    14A    -11.223087    15A     -1.253877
      16A     -1.151763    17A     -1.127187    18A     -1.040389
      19A     -1.015649    20A     -1.010615    21A     -0.988208
      22A     -0.920180    23A     -0.841622    24A     -0.829508
      25A     -0.816477    26A     -0.783308    27A     -0.712914
      28A     -0.697184    29A     -0.667944    30A     -0.640213
      31A     -0.634667    32A     -0.618586    33A     -0.596392
      34A     -0.585703    35A     -0.584997    36A     -0.582242
      37A     -0.573234    38A     -0.545153    39A     -0.530382
      40A     -0.513188    41A     -0.501163    42A     -0.494555
      43A     -0.489548    44A     -0.485648    45A     -0.441501
      46A     -0.340221    47A     -0.335632    48A     -0.330647
      49A     -0.275359

  @DF-RHF Final Energy:  -554.48696019773479

   => Energetics <=

    Nuclear Repulsion Energy =            787.0301264483377963
    One-Electron Energy =               -2311.7499363304018516
    Two-Electron Energy =                 970.2328496843292669
    Total Energy =                       -554.4869601977347884
  Basis Set: (AUG-CC-PVTZ AUX)
    Blend: AUG-CC-PVTZ-RI
    Molecular point group: c1

    Geometry (in Angstrom), charge = 0, multiplicity = 1:

       Center              X                  Y                   Z               Mass
    ------------   -----------------  -----------------  -----------------  -----------------
         N            0.513425500943     1.178697567427     0.292000346445    14.003074004430
         C           -0.783121499057     0.657246567427     0.151488346445    12.000000000000
         C            1.696495500943     0.444039567427     0.083650346445    12.000000000000
         C           -3.438814499057    -0.310764432573    -0.024320653555    12.000000000000
         C           -1.152939499057    -0.532687432573     0.798746346445    12.000000000000
         C           -1.755633499057     1.362258567427    -0.570574653555    12.000000000000
         C           -2.457799499057    -1.007984432573     0.694643346445    12.000000000000
         C           -3.065204499057     0.888526567427    -0.641377653555    12.000000000000
         C            2.916443500943     1.053803567427     0.418478346445    12.000000000000
         C            1.705446500943    -0.860082432573    -0.433770653555    12.000000000000
         C           -4.859019499057    -0.809879432573    -0.083542653555    12.000000000000
         C            4.120553500943     0.382235567427     0.222316346445    12.000000000000
         C            2.917003500943    -1.530497432573    -0.608133653555    12.000000000000
         C            4.129285500943    -0.920955432573    -0.281446653555    12.000000000000
         H            0.597622100943     2.210095967427     0.041132346445     1.007825032230
         H           -0.419147499057    -1.067350432573     1.396402346445     1.007825032230
         H           -1.480392499057     2.281800567427    -1.085549653555     1.007825032230
         H           -2.723002499057    -1.936236432573     1.199158346445     1.007825032230
         H           -3.803553499057     1.453629567427    -1.208511653555     1.007825032230
         H            2.909542500943     2.058953567427     0.836959346445     1.007825032230
         H            0.774417500943    -1.334509432573    -0.728282653555     1.007825032230
         H           -5.368757499057    -0.438643432573    -0.977287653555     1.007825032230
         H           -4.891691499057    -1.903122432573    -0.105524653555     1.007825032230
         H           -5.434461499057    -0.479434432573     0.788381346445     1.007825032230
         H            5.054755500943     0.874142567427     0.483662346445     1.007825032230
         H            2.908309500943    -2.539768432573    -1.013999653555     1.007825032230
         H            5.067755500943    -1.450290432573    -0.423087653555     1.007825032230

  Basis Set: AUG-CC-PVTZ
    Blend: AUG-CC-PVTZ
  Basis Set: (AUG-CC-PVTZ AUX)
    Blend: AUG-CC-PVTZ-JKFIT
	 Reference Energy          =    -554.4869601977347884 [Eh]
	 Singles Energy            =      -0.0000000000000000 [Eh]
	 Same-Spin Energy          =      -0.6243561403278651 [Eh]
	 Opposite-Spin Energy      =      -1.9537163300411948 [Eh]
	 Correlation Energy        =      -2.5780724703690598 [Eh]
	 Total Energy              =    -557.0650326681038678 [Eh]

	 ================> DF-SCS-MP2 Energies <==================
	-----------------------------------------------------------
	 SCS Same-Spin Scale       =       0.3333333333333333 [-]
	 SCS Opposite-Spin Scale   =       1.2000000000000000 [-]
	 SCS Same-Spin Energy      =      -0.2081187134426217 [Eh]
	 SCS Opposite-Spin Energy  =      -2.3444595960494339 [Eh]
	 SCS Correlation Energy    =      -2.5525783094920556 [Eh]
	 SCS Total Energy          =    -557.0395385072268937 [Eh]
	-----------------------------------------------------------

  Dipole Moment: [D]
     X:    -0.6297      Y:     0.6112      Z:    -0.3471     Total:     0.9437

*** Psi4 exiting successfully. Buy a developer a beer!
