                               Psi4 1.4a3.dev225

  ==> Input File <==

--------------------------------------------------------------------------
#psi4
#
memory 32 gb

molecule  {
0 1
  N        0.5479400     1.1907050     0.2959170
  C       -0.7486070     0.6692540     0.1554050
  C        1.7310100     0.4560470     0.0875670
  C       -3.4043000    -0.2987570    -0.0204040
  C       -1.1184250    -0.5206800     0.8026630
  C       -1.7211190     1.3742660    -0.5666580
  C       -2.4232850    -0.9959770     0.6985600
  C       -3.0306900     0.9005340    -0.6374610
  C        2.9509580     1.0658110     0.4223950
  C        1.6749639    -0.9676442    -0.4829417
  C       -4.8245050    -0.7978720    -0.0796260
  C        4.1550680     0.3942430     0.2262330
  C        2.9515180    -1.5184900    -0.6042170
  C        4.1638000    -0.9089480    -0.2775300
  H        0.6281830     2.1736720     0.0568290
  H       -0.3846330    -1.0553430     1.4003190
  H       -1.4458780     2.2938080    -1.0816330
  H       -2.6884880    -1.9242290     1.2030750
  H       -3.7690390     1.4656370    -1.2045950
  H        2.9440570     2.0709610     0.8408760
  H        0.8089320    -1.3225020    -0.7243660
  H       -5.3342430    -0.4266360    -0.9733710
  H       -4.8571770    -1.8911150    -0.1016080
  H       -5.3999470    -0.4674270     0.7922980
  H        5.0892700     0.8861500     0.4875790
  H        2.9428240    -2.5277610    -1.0100830
  H        5.1022700    -1.4382830    -0.4191710
units angstrom
no_reorient  #important for SAPT in psi4, default
symmetry c1  #important for SAPT in psi4, default
}

set PROPERTIES_ORIGIN ["COM"]
properties('MP2/aug-cc-pvtz', properties = ['dipole'])
--------------------------------------------------------------------------

    Molecular point group: c1
  Charge       = 0
  Multiplicity = 1
  Basis Set: AUG-CC-PVTZ
    Blend: AUG-CC-PVTZ
  Basis Set: (AUG-CC-PVTZ AUX)
    Blend: AUG-CC-PVTZ-JKFIT

    Orbital Energies [Eh]
    ---------------------

    Doubly Occupied:

       1A    -15.579501     2A    -11.296589     3A    -11.278640
       4A    -11.240734     5A    -11.239151     6A    -11.237563
       7A    -11.236136     8A    -11.235536     9A    -11.234045
      10A    -11.231333    11A    -11.230520    12A    -11.226097
      13A    -11.224069    14A    -11.222802    15A     -1.257394
      16A     -1.149251    17A     -1.123705    18A     -1.040944
      19A     -1.017448    20A     -1.012978    21A     -0.982164
      22A     -0.922117    23A     -0.842844    24A     -0.837706
      25A     -0.810771    26A     -0.786202    27A     -0.713482
      28A     -0.702446    29A     -0.685674    30A     -0.642643
      31A     -0.635811    32A     -0.623301    33A     -0.595577
      34A     -0.587141    35A     -0.584738    36A     -0.580809
      37A     -0.574678    38A     -0.545707    39A     -0.530970
      40A     -0.521828    41A     -0.500278    42A     -0.492545
      43A     -0.489157    44A     -0.476799    45A     -0.440832
      46A     -0.342702    47A     -0.338831    48A     -0.325647
      49A     -0.271399

  @DF-RHF Final Energy:  -554.46208182502323

   => Energetics <=

    Nuclear Repulsion Energy =            785.3665203626314906
    One-Electron Energy =               -2308.2587339883853019
    Two-Electron Energy =                 968.4301318007305781
    Total Energy =                       -554.4620818250232333
  Basis Set: (AUG-CC-PVTZ AUX)
    Blend: AUG-CC-PVTZ-RI
    Molecular point group: c1

    Geometry (in Angstrom), charge = 0, multiplicity = 1:

       Center              X                  Y                   Z               Mass
    ------------   -----------------  -----------------  -----------------  -----------------
         N            0.517706927424     1.186800253877     0.295414676507    14.003074004430
         C           -0.778840072576     0.665349253877     0.154902676507    12.000000000000
         C            1.700776927424     0.452142253877     0.087064676507    12.000000000000
         C           -3.434533072576    -0.302661746123    -0.020906323493    12.000000000000
         C           -1.148658072576    -0.524584746123     0.802160676507    12.000000000000
         C           -1.751352072576     1.370361253877    -0.567160323493    12.000000000000
         C           -2.453518072576    -0.999881746123     0.698057676507    12.000000000000
         C           -3.060923072576     0.896629253877    -0.637963323493    12.000000000000
         C            2.920724927424     1.061906253877     0.421892676507    12.000000000000
         C            1.644730827424    -0.971548946123    -0.483444023493    12.000000000000
         C           -4.854738072576    -0.801776746123    -0.080128323493    12.000000000000
         C            4.124834927424     0.390338253877     0.225730676507    12.000000000000
         C            2.921284927424    -1.522394746123    -0.604719323493    12.000000000000
         C            4.133566927424    -0.912852746123    -0.278032323493    12.000000000000
         H            0.597949927424     2.169767253877     0.056326676507     1.007825032230
         H           -0.414866072576    -1.059247746123     1.399816676507     1.007825032230
         H           -1.476111072576     2.289903253877    -1.082135323493     1.007825032230
         H           -2.718721072576    -1.928133746123     1.202572676507     1.007825032230
         H           -3.799272072576     1.461732253877    -1.205097323493     1.007825032230
         H            2.913823927424     2.067056253877     0.840373676507     1.007825032230
         H            0.778698927424    -1.326406746123    -0.724868323493     1.007825032230
         H           -5.364476072576    -0.430540746123    -0.973873323493     1.007825032230
         H           -4.887410072576    -1.895019746123    -0.102110323493     1.007825032230
         H           -5.430180072576    -0.471331746123     0.791795676507     1.007825032230
         H            5.059036927424     0.882245253877     0.487076676507     1.007825032230
         H            2.912590927424    -2.531665746123    -1.010585323493     1.007825032230
         H            5.072036927424    -1.442187746123    -0.419673323493     1.007825032230

  Basis Set: AUG-CC-PVTZ
    Blend: AUG-CC-PVTZ
  Basis Set: (AUG-CC-PVTZ AUX)
    Blend: AUG-CC-PVTZ-JKFIT
	 Reference Energy          =    -554.4620818250232333 [Eh]
	 Singles Energy            =      -0.0000000000000000 [Eh]
	 Same-Spin Energy          =      -0.6239727521598569 [Eh]
	 Opposite-Spin Energy      =      -1.9546165364164976 [Eh]
	 Correlation Energy        =      -2.5785892885763544 [Eh]
	 Total Energy              =    -557.0406711135996147 [Eh]

	 ================> DF-SCS-MP2 Energies <==================
	-----------------------------------------------------------
	 SCS Same-Spin Scale       =       0.3333333333333333 [-]
	 SCS Opposite-Spin Scale   =       1.2000000000000000 [-]
	 SCS Same-Spin Energy      =      -0.2079909173866190 [Eh]
	 SCS Opposite-Spin Energy  =      -2.3455398436997972 [Eh]
	 SCS Correlation Energy    =      -2.5535307610864160 [Eh]
	 SCS Total Energy          =    -557.0156125861096825 [Eh]
	-----------------------------------------------------------

  Dipole Moment: [D]
     X:    -0.7947      Y:     0.6687      Z:    -0.3087     Total:     1.0835

*** Psi4 exiting successfully. Buy a developer a beer!
