                               Psi4 1.4a3.dev225

  ==> Input File <==

--------------------------------------------------------------------------
#psi4
#
memory 32 gb

molecule  {
0 1
  N        0.5479400     1.1907050     0.2959170
  C       -0.7486070     0.6692540     0.1554050
  C        1.7310100     0.4560470     0.0875670
  C       -3.4043000    -0.2987570    -0.0204040
  C       -1.1184250    -0.5206800     0.8026630
  C       -1.7211190     1.3742660    -0.5666580
  C       -2.4232850    -0.9959770     0.6985600
  C       -3.0306900     0.9005340    -0.6374610
  C        2.9509580     1.0658110     0.4223950
  C        1.7399610    -0.8480750    -0.4298540
  C       -4.8245050    -0.7978720    -0.0796260
  C        4.3279965     0.2977956     0.1980612
  C        2.9515180    -1.5184900    -0.6042170
  C        4.1638000    -0.9089480    -0.2775300
  H        0.6281830     2.1736720     0.0568290
  H       -0.3846330    -1.0553430     1.4003190
  H       -1.4458780     2.2938080    -1.0816330
  H       -2.6884880    -1.9242290     1.2030750
  H       -3.7690390     1.4656370    -1.2045950
  H        2.9440570     2.0709610     0.8408760
  H        0.8089320    -1.3225020    -0.7243660
  H       -5.3342430    -0.4266360    -0.9733710
  H       -4.8571770    -1.8911150    -0.1016080
  H       -5.3999470    -0.4674270     0.7922980
  H        5.0892700     0.8861500     0.4875790
  H        2.9428240    -2.5277610    -1.0100830
  H        5.1022700    -1.4382830    -0.4191710
units angstrom
no_reorient  #important for SAPT in psi4, default
symmetry c1  #important for SAPT in psi4, default
}

set PROPERTIES_ORIGIN ["COM"]
properties('MP2/aug-cc-pvtz', properties = ['dipole'])
--------------------------------------------------------------------------

    Molecular point group: c1
  Charge       = 0
  Multiplicity = 1
  Basis Set: AUG-CC-PVTZ
    Blend: AUG-CC-PVTZ
  Basis Set: (AUG-CC-PVTZ AUX)
    Blend: AUG-CC-PVTZ-JKFIT

    Orbital Energies [Eh]
    ---------------------

    Doubly Occupied:

       1A    -15.574732     2A    -11.280333     3A    -11.276996
       4A    -11.240052     5A    -11.239630     6A    -11.238717
       7A    -11.235817     8A    -11.234674     9A    -11.234034
      10A    -11.233713    11A    -11.231937    12A    -11.229687
      13A    -11.222910    14A    -11.220567    15A     -1.256232
      16A     -1.149436    17A     -1.126947    18A     -1.043758
      19A     -1.016469    20A     -1.009540    21A     -0.984322
      22A     -0.918790    23A     -0.849674    24A     -0.832714
      25A     -0.811534    26A     -0.786382    27A     -0.716750
      28A     -0.703086    29A     -0.670085    30A     -0.648017
      31A     -0.639260    32A     -0.616201    33A     -0.613654
      34A     -0.588422    35A     -0.583723    36A     -0.574588
      37A     -0.571317    38A     -0.543134    39A     -0.528974
      40A     -0.516321    41A     -0.500828    42A     -0.493516
      43A     -0.486594    44A     -0.464400    45A     -0.444206
      46A     -0.343927    47A     -0.337947    48A     -0.319364
      49A     -0.277368

  @DF-RHF Final Energy:  -554.44866806442440

   => Energetics <=

    Nuclear Repulsion Energy =            785.0441234582182233
    One-Electron Energy =               -2307.6630201365819630
    Two-Electron Energy =                 968.1702286139394573
    Total Energy =                       -554.4486680644243961
  Basis Set: (AUG-CC-PVTZ AUX)
    Blend: AUG-CC-PVTZ-RI
    Molecular point group: c1

    Geometry (in Angstrom), charge = 0, multiplicity = 1:

       Center              X                  Y                   Z               Mass
    ------------   -----------------  -----------------  -----------------  -----------------
         N            0.502114178305     1.185284938053     0.293781782116    14.003074004430
         C           -0.794432821695     0.663833938053     0.153269782116    12.000000000000
         C            1.685184178305     0.450626938053     0.085431782116    12.000000000000
         C           -3.450125821695    -0.304177061947    -0.022539217884    12.000000000000
         C           -1.164250821695    -0.526100061947     0.800527782116    12.000000000000
         C           -1.766944821695     1.368845938053    -0.568793217884    12.000000000000
         C           -2.469110821695    -1.001397061947     0.696424782116    12.000000000000
         C           -3.076515821695     0.895113938053    -0.639596217884    12.000000000000
         C            2.905132178305     1.060390938053     0.420259782116    12.000000000000
         C            1.694135178305    -0.853495061947    -0.431989217884    12.000000000000
         C           -4.870330821695    -0.803292061947    -0.081761217884    12.000000000000
         C            4.282170678305     0.292375538053     0.195925982116    12.000000000000
         C            2.905692178305    -1.523910061947    -0.606352217884    12.000000000000
         C            4.117974178305    -0.914368061947    -0.279665217884    12.000000000000
         H            0.582357178305     2.168251938053     0.054693782116     1.007825032230
         H           -0.430458821695    -1.060763061947     1.398183782116     1.007825032230
         H           -1.491703821695     2.288387938053    -1.083768217884     1.007825032230
         H           -2.734313821695    -1.929649061947     1.200939782116     1.007825032230
         H           -3.814864821695     1.460216938053    -1.206730217884     1.007825032230
         H            2.898231178305     2.065540938053     0.838740782116     1.007825032230
         H            0.763106178305    -1.327922061947    -0.726501217884     1.007825032230
         H           -5.380068821695    -0.432056061947    -0.975506217884     1.007825032230
         H           -4.903002821695    -1.896535061947    -0.103743217884     1.007825032230
         H           -5.445772821695    -0.472847061947     0.790162782116     1.007825032230
         H            5.043444178305     0.880729938053     0.485443782116     1.007825032230
         H            2.896998178305    -2.533181061947    -1.012218217884     1.007825032230
         H            5.056444178305    -1.443703061947    -0.421306217884     1.007825032230

  Basis Set: AUG-CC-PVTZ
    Blend: AUG-CC-PVTZ
  Basis Set: (AUG-CC-PVTZ AUX)
    Blend: AUG-CC-PVTZ-JKFIT
	 Reference Energy          =    -554.4486680644243961 [Eh]
	 Singles Energy            =      -0.0000000000000000 [Eh]
	 Same-Spin Energy          =      -0.6237792260581110 [Eh]
	 Opposite-Spin Energy      =      -1.9555637677999413 [Eh]
	 Correlation Energy        =      -2.5793429938580523 [Eh]
	 Total Energy              =    -557.0280110582824591 [Eh]

	 ================> DF-SCS-MP2 Energies <==================
	-----------------------------------------------------------
	 SCS Same-Spin Scale       =       0.3333333333333333 [-]
	 SCS Opposite-Spin Scale   =       1.2000000000000000 [-]
	 SCS Same-Spin Energy      =      -0.2079264086860370 [Eh]
	 SCS Opposite-Spin Energy  =      -2.3466765213599294 [Eh]
	 SCS Correlation Energy    =      -2.5546029300459665 [Eh]
	 SCS Total Energy          =    -557.0032709944703129 [Eh]
	-----------------------------------------------------------

  Dipole Moment: [D]
     X:    -0.5357      Y:     0.5038      Z:    -0.3697     Total:     0.8231

*** Psi4 exiting successfully. Buy a developer a beer!
