                               Psi4 1.4a3.dev225

  ==> Input File <==

--------------------------------------------------------------------------
#psi4
#
memory 32 gb

molecule  {
0 1
  N        0.5479400     1.1907050     0.2959170
  C       -0.7317816     0.6256979     0.1703444
  C        1.7310100     0.4560470     0.0875670
  C       -3.4043000    -0.2987570    -0.0204040
  C       -1.1184250    -0.5206800     0.8026630
  C       -1.7211190     1.3742660    -0.5666580
  C       -2.4232850    -0.9959770     0.6985600
  C       -3.0306900     0.9005340    -0.6374610
  C        2.9509580     1.0658110     0.4223950
  C        1.7399610    -0.8480750    -0.4298540
  C       -4.8245050    -0.7978720    -0.0796260
  C        4.1550680     0.3942430     0.2262330
  C        2.9515180    -1.5184900    -0.6042170
  C        4.1638000    -0.9089480    -0.2775300
  H        0.6281830     2.1736720     0.0568290
  H       -0.3846330    -1.0553430     1.4003190
  H       -1.4458780     2.2938080    -1.0816330
  H       -2.6884880    -1.9242290     1.2030750
  H       -3.7690390     1.4656370    -1.2045950
  H        2.9440570     2.0709610     0.8408760
  H        0.8089320    -1.3225020    -0.7243660
  H       -5.3342430    -0.4266360    -0.9733710
  H       -4.8571770    -1.8911150    -0.1016080
  H       -5.3999470    -0.4674270     0.7922980
  H        5.0892700     0.8861500     0.4875790
  H        2.9428240    -2.5277610    -1.0100830
  H        5.1022700    -1.4382830    -0.4191710
units angstrom
no_reorient  #important for SAPT in psi4, default
symmetry c1  #important for SAPT in psi4, default
}

set PROPERTIES_ORIGIN ["COM"]
properties('MP2/aug-cc-pvtz', properties = ['dipole'])
--------------------------------------------------------------------------

    Molecular point group: c1
  Charge       = 0
  Multiplicity = 1
  Basis Set: AUG-CC-PVTZ
    Blend: AUG-CC-PVTZ
  Basis Set: (AUG-CC-PVTZ AUX)
    Blend: AUG-CC-PVTZ-JKFIT

    Orbital Energies [Eh]
    ---------------------

    Doubly Occupied:

       1A    -15.577388     2A    -11.281597     3A    -11.277206
       4A    -11.237619     5A    -11.237330     6A    -11.236986
       7A    -11.236297     8A    -11.234783     9A    -11.234254
      10A    -11.228135    11A    -11.225740    12A    -11.225492
      13A    -11.224196    14A    -11.223241    15A     -1.258378
      16A     -1.151635    17A     -1.128122    18A     -1.041114
      19A     -1.015514    20A     -1.011072    21A     -0.988734
      22A     -0.921970    23A     -0.842269    24A     -0.830024
      25A     -0.816474    26A     -0.784335    27A     -0.712078
      28A     -0.706257    29A     -0.667582    30A     -0.642444
      31A     -0.633697    32A     -0.618451    33A     -0.597267
      34A     -0.592091    35A     -0.584801    36A     -0.580019
      37A     -0.573266    38A     -0.545820    39A     -0.529727
      40A     -0.513078    41A     -0.501652    42A     -0.495355
      43A     -0.489820    44A     -0.484171    45A     -0.441042
      46A     -0.342051    47A     -0.336327    48A     -0.328446
      49A     -0.275694

  @DF-RHF Final Energy:  -554.48786452009381

   => Energetics <=

    Nuclear Repulsion Energy =            787.5449302101453668
    One-Electron Energy =               -2312.7435144464311634
    Two-Electron Energy =                 970.7107197161919885
    Total Energy =                       -554.4878645200938081
  Basis Set: (AUG-CC-PVTZ AUX)
    Blend: AUG-CC-PVTZ-RI
    Molecular point group: c1

    Geometry (in Angstrom), charge = 0, multiplicity = 1:

       Center              X                  Y                   Z               Mass
    ------------   -----------------  -----------------  -----------------  -----------------
         N            0.512344588463     1.181818641146     0.290956436185    14.003074004430
         C           -0.767377011537     0.616811541146     0.165383836185    12.000000000000
         C            1.695414588463     0.447160641146     0.082606436185    12.000000000000
         C           -3.439895411537    -0.307643358854    -0.025364563815    12.000000000000
         C           -1.154020411537    -0.529566358854     0.797702436185    12.000000000000
         C           -1.756714411537     1.365379641146    -0.571618563815    12.000000000000
         C           -2.458880411537    -1.004863358854     0.693599436185    12.000000000000
         C           -3.066285411537     0.891647641146    -0.642421563815    12.000000000000
         C            2.915362588463     1.056924641146     0.417434436185    12.000000000000
         C            1.704365588463    -0.856961358854    -0.434814563815    12.000000000000
         C           -4.860100411537    -0.806758358854    -0.084586563815    12.000000000000
         C            4.119472588463     0.385356641146     0.221272436185    12.000000000000
         C            2.915922588463    -1.527376358854    -0.609177563815    12.000000000000
         C            4.128204588463    -0.917834358854    -0.282490563815    12.000000000000
         H            0.592587588463     2.164785641146     0.051868436185     1.007825032230
         H           -0.420228411537    -1.064229358854     1.395358436185     1.007825032230
         H           -1.481473411537     2.284921641146    -1.086593563815     1.007825032230
         H           -2.724083411537    -1.933115358854     1.198114436185     1.007825032230
         H           -3.804634411537     1.456750641146    -1.209555563815     1.007825032230
         H            2.908461588463     2.062074641146     0.835915436185     1.007825032230
         H            0.773336588463    -1.331388358854    -0.729326563815     1.007825032230
         H           -5.369838411537    -0.435522358854    -0.978331563815     1.007825032230
         H           -4.892772411537    -1.900001358854    -0.106568563815     1.007825032230
         H           -5.435542411537    -0.476313358854     0.787337436185     1.007825032230
         H            5.053674588463     0.877263641146     0.482618436185     1.007825032230
         H            2.907228588463    -2.536647358854    -1.015043563815     1.007825032230
         H            5.066674588463    -1.447169358854    -0.424131563815     1.007825032230

  Basis Set: AUG-CC-PVTZ
    Blend: AUG-CC-PVTZ
  Basis Set: (AUG-CC-PVTZ AUX)
    Blend: AUG-CC-PVTZ-JKFIT
	 Reference Energy          =    -554.4878645200938081 [Eh]
	 Singles Energy            =      -0.0000000000000000 [Eh]
	 Same-Spin Energy          =      -0.6239630347318778 [Eh]
	 Opposite-Spin Energy      =      -1.9528500453493010 [Eh]
	 Correlation Energy        =      -2.5768130800811786 [Eh]
	 Total Energy              =    -557.0646776001749458 [Eh]

	 ================> DF-SCS-MP2 Energies <==================
	-----------------------------------------------------------
	 SCS Same-Spin Scale       =       0.3333333333333333 [-]
	 SCS Opposite-Spin Scale   =       1.2000000000000000 [-]
	 SCS Same-Spin Energy      =      -0.2079876782439593 [Eh]
	 SCS Opposite-Spin Energy  =      -2.3434200544191612 [Eh]
	 SCS Correlation Energy    =      -2.5514077326631206 [Eh]
	 SCS Total Energy          =    -557.0392722527569731 [Eh]
	-----------------------------------------------------------

  Dipole Moment: [D]
     X:    -0.6497      Y:     0.5900      Z:    -0.3326     Total:     0.9385

*** Psi4 exiting successfully. Buy a developer a beer!
