                               Psi4 1.4a3.dev225

  ==> Input File <==

--------------------------------------------------------------------------
#psi4
#
memory 32 gb

molecule  {
0 1
  N        0.5479400     1.1907050     0.2959170
  C       -0.7486070     0.6692540     0.1554050
  C        1.7310100     0.4560470     0.0875670
  C       -3.4043000    -0.2987570    -0.0204040
  C       -1.1131575    -0.5037312     0.7934438
  C       -1.7211190     1.3742660    -0.5666580
  C       -2.4232850    -0.9959770     0.6985600
  C       -3.0306900     0.9005340    -0.6374610
  C        2.9509580     1.0658110     0.4223950
  C        1.7399610    -0.8480750    -0.4298540
  C       -4.8245050    -0.7978720    -0.0796260
  C        4.1550680     0.3942430     0.2262330
  C        2.9515180    -1.5184900    -0.6042170
  C        4.1638000    -0.9089480    -0.2775300
  H        0.6281830     2.1736720     0.0568290
  H       -0.3846330    -1.0553430     1.4003190
  H       -1.4458780     2.2938080    -1.0816330
  H       -2.6884880    -1.9242290     1.2030750
  H       -3.7690390     1.4656370    -1.2045950
  H        2.9440570     2.0709610     0.8408760
  H        0.8089320    -1.3225020    -0.7243660
  H       -5.3342430    -0.4266360    -0.9733710
  H       -4.8571770    -1.8911150    -0.1016080
  H       -5.3999470    -0.4674270     0.7922980
  H        5.0892700     0.8861500     0.4875790
  H        2.9428240    -2.5277610    -1.0100830
  H        5.1022700    -1.4382830    -0.4191710
units angstrom
no_reorient  #important for SAPT in psi4, default
symmetry c1  #important for SAPT in psi4, default
}

set PROPERTIES_ORIGIN ["COM"]
properties('MP2/aug-cc-pvtz', properties = ['dipole'])
--------------------------------------------------------------------------

    Molecular point group: c1
  Charge       = 0
  Multiplicity = 1
  Basis Set: AUG-CC-PVTZ
    Blend: AUG-CC-PVTZ
  Basis Set: (AUG-CC-PVTZ AUX)
    Blend: AUG-CC-PVTZ-JKFIT

    Orbital Energies [Eh]
    ---------------------

    Doubly Occupied:

       1A    -15.576715     2A    -11.282401     3A    -11.275079
       4A    -11.237654     5A    -11.236947     6A    -11.236638
       7A    -11.235372     8A    -11.234806     9A    -11.233186
      10A    -11.229559    11A    -11.228328    12A    -11.225782
      13A    -11.224186    14A    -11.223340    15A     -1.258434
      16A     -1.152459    17A     -1.128081    18A     -1.042069
      19A     -1.015048    20A     -1.010130    21A     -0.989426
      22A     -0.922419    23A     -0.843471    24A     -0.829415
      25A     -0.817005    26A     -0.784429    27A     -0.713196
      28A     -0.704261    29A     -0.668382    30A     -0.638610
      31A     -0.635612    32A     -0.619161    33A     -0.597420
      34A     -0.589216    35A     -0.584482    36A     -0.581057
      37A     -0.573591    38A     -0.546055    39A     -0.530951
      40A     -0.512826    41A     -0.500971    42A     -0.495538
      43A     -0.489090    44A     -0.486382    45A     -0.441702
      46A     -0.339603    47A     -0.335447    48A     -0.331241
      49A     -0.276668

  @DF-RHF Final Energy:  -554.49049918540277

   => Energetics <=

    Nuclear Repulsion Energy =            787.6144992039751287
    One-Electron Energy =               -2312.8823132696211360
    Two-Electron Energy =                 970.7773148802432388
    Total Energy =                       -554.4904991854027685
  Basis Set: (AUG-CC-PVTZ AUX)
    Blend: AUG-CC-PVTZ-RI
    Molecular point group: c1

    Geometry (in Angstrom), charge = 0, multiplicity = 1:

       Center              X                  Y                   Z               Mass
    ------------   -----------------  -----------------  -----------------  -----------------
         N            0.513102049766     1.177853377525     0.292539699982    14.003074004430
         C           -0.783444950234     0.656402377525     0.152027699982    12.000000000000
         C            1.696172049766     0.443195377525     0.084189699982    12.000000000000
         C           -3.439137950234    -0.311608622475    -0.023781300018    12.000000000000
         C           -1.147995450234    -0.516582822475     0.790066499982    12.000000000000
         C           -1.755956950234     1.361414377525    -0.570035300018    12.000000000000
         C           -2.458122950234    -1.008828622475     0.695182699982    12.000000000000
         C           -3.065527950234     0.887682377525    -0.640838300018    12.000000000000
         C            2.916120049766     1.052959377525     0.419017699982    12.000000000000
         C            1.705123049766    -0.860926622475    -0.433231300018    12.000000000000
         C           -4.859342950234    -0.810723622475    -0.083003300018    12.000000000000
         C            4.120230049766     0.381391377525     0.222855699982    12.000000000000
         C            2.916680049766    -1.531341622475    -0.607594300018    12.000000000000
         C            4.128962049766    -0.921799622475    -0.280907300018    12.000000000000
         H            0.593345049766     2.160820377525     0.053451699982     1.007825032230
         H           -0.419470950234    -1.068194622475     1.396941699982     1.007825032230
         H           -1.480715950234     2.280956377525    -1.085010300018     1.007825032230
         H           -2.723325950234    -1.937080622475     1.199697699982     1.007825032230
         H           -3.803876950234     1.452785377525    -1.207972300018     1.007825032230
         H            2.909219049766     2.058109377525     0.837498699982     1.007825032230
         H            0.774094049766    -1.335353622475    -0.727743300018     1.007825032230
         H           -5.369080950234    -0.439487622475    -0.976748300018     1.007825032230
         H           -4.892014950234    -1.903966622475    -0.104985300018     1.007825032230
         H           -5.434784950234    -0.480278622475     0.788920699982     1.007825032230
         H            5.054432049766     0.873298377525     0.484201699982     1.007825032230
         H            2.907986049766    -2.540612622475    -1.013460300018     1.007825032230
         H            5.067432049766    -1.451134622475    -0.422548300018     1.007825032230

  Basis Set: AUG-CC-PVTZ
    Blend: AUG-CC-PVTZ
  Basis Set: (AUG-CC-PVTZ AUX)
    Blend: AUG-CC-PVTZ-JKFIT
	 Reference Energy          =    -554.4904991854027685 [Eh]
	 Singles Energy            =      -0.0000000000000000 [Eh]
	 Same-Spin Energy          =      -0.6239368803267186 [Eh]
	 Opposite-Spin Energy      =      -1.9526380034121658 [Eh]
	 Correlation Energy        =      -2.5765748837388842 [Eh]
	 Total Energy              =    -557.0670740691416540 [Eh]

	 ================> DF-SCS-MP2 Energies <==================
	-----------------------------------------------------------
	 SCS Same-Spin Scale       =       0.3333333333333333 [-]
	 SCS Opposite-Spin Scale   =       1.2000000000000000 [-]
	 SCS Same-Spin Energy      =      -0.2079789601089062 [Eh]
	 SCS Opposite-Spin Energy  =      -2.3431656040945987 [Eh]
	 SCS Correlation Energy    =      -2.5511445642035051 [Eh]
	 SCS Total Energy          =    -557.0416437496062372 [Eh]
	-----------------------------------------------------------

  Dipole Moment: [D]
     X:    -0.6707      Y:     0.5731      Z:    -0.3430     Total:     0.9465

*** Psi4 exiting successfully. Buy a developer a beer!
