                               Psi4 1.4a3.dev225

  ==> Input File <==

--------------------------------------------------------------------------
#psi4
#
memory 32 gb

molecule  {
0 1
  N        0.5479400     1.1907050     0.2959170
  C       -0.7486070     0.6692540     0.1554050
  C        1.7310100     0.4560470     0.0875670
  C       -3.4043000    -0.2987570    -0.0204040
  C       -1.1184250    -0.5206800     0.8026630
  C       -1.7211190     1.3742660    -0.5666580
  C       -2.4232850    -0.9959770     0.6985600
  C       -2.9367750     0.9345074    -0.6323834
  C        2.9509580     1.0658110     0.4223950
  C        1.7399610    -0.8480750    -0.4298540
  C       -4.8245050    -0.7978720    -0.0796260
  C        4.1550680     0.3942430     0.2262330
  C        2.9515180    -1.5184900    -0.6042170
  C        4.1638000    -0.9089480    -0.2775300
  H        0.6281830     2.1736720     0.0568290
  H       -0.3846330    -1.0553430     1.4003190
  H       -1.4458780     2.2938080    -1.0816330
  H       -2.6884880    -1.9242290     1.2030750
  H       -3.7690390     1.4656370    -1.2045950
  H        2.9440570     2.0709610     0.8408760
  H        0.8089320    -1.3225020    -0.7243660
  H       -5.3342430    -0.4266360    -0.9733710
  H       -4.8571770    -1.8911150    -0.1016080
  H       -5.3999470    -0.4674270     0.7922980
  H        5.0892700     0.8861500     0.4875790
  H        2.9428240    -2.5277610    -1.0100830
  H        5.1022700    -1.4382830    -0.4191710
units angstrom
no_reorient  #important for SAPT in psi4, default
symmetry c1  #important for SAPT in psi4, default
}

set PROPERTIES_ORIGIN ["COM"]
properties('MP2/aug-cc-pvtz', properties = ['dipole'])
--------------------------------------------------------------------------

    Molecular point group: c1
  Charge       = 0
  Multiplicity = 1
  Basis Set: AUG-CC-PVTZ
    Blend: AUG-CC-PVTZ
  Basis Set: (AUG-CC-PVTZ AUX)
    Blend: AUG-CC-PVTZ-JKFIT

    Orbital Energies [Eh]
    ---------------------

    Doubly Occupied:

       1A    -15.577857     2A    -11.282620     3A    -11.277465
       4A    -11.239535     5A    -11.237747     6A    -11.236969
       7A    -11.234017     8A    -11.232197     9A    -11.228541
      10A    -11.226473    11A    -11.225737    12A    -11.225500
      13A    -11.224321    14A    -11.222980    15A     -1.258819
      16A     -1.155388    17A     -1.128562    18A     -1.041686
      19A     -1.023142    20A     -1.011131    21A     -0.991711
      22A     -0.920348    23A     -0.837419    24A     -0.830604
      25A     -0.813283    26A     -0.787476    27A     -0.712287
      28A     -0.704365    29A     -0.670773    30A     -0.640178
      31A     -0.638526    32A     -0.616015    33A     -0.597993
      34A     -0.588345    35A     -0.582905    36A     -0.578694
      37A     -0.571889    38A     -0.547006    39A     -0.533613
      40A     -0.515731    41A     -0.505542    42A     -0.497899
      43A     -0.490006    44A     -0.469298    45A     -0.442104
      46A     -0.351911    47A     -0.336731    48A     -0.327361
      49A     -0.271649

  @DF-RHF Final Energy:  -554.47674201434324

   => Energetics <=

    Nuclear Repulsion Energy =            788.3633679539588002
    One-Electron Energy =               -2314.3555223981315976
    Two-Electron Energy =                 971.5154124298294391
    Total Energy =                       -554.4767420143432446
  Basis Set: (AUG-CC-PVTZ AUX)
    Blend: AUG-CC-PVTZ-RI
    Molecular point group: c1

    Geometry (in Angstrom), charge = 0, multiplicity = 1:

       Center              X                  Y                   Z               Mass
    ------------   -----------------  -----------------  -----------------  -----------------
         N            0.507292425969     1.176737649261     0.291602741472    14.003074004430
         C           -0.789254574031     0.655286649261     0.151090741472    12.000000000000
         C            1.690362425969     0.442079649261     0.083252741472    12.000000000000
         C           -3.444947574031    -0.312724350739    -0.024718258528    12.000000000000
         C           -1.159072574031    -0.534647350739     0.798348741472    12.000000000000
         C           -1.761766574031     1.360298649261    -0.570972258528    12.000000000000
         C           -2.463932574031    -1.009944350739     0.694245741472    12.000000000000
         C           -2.977422574031     0.920540049261    -0.636697658528    12.000000000000
         C            2.910310425969     1.051843649261     0.418080741472    12.000000000000
         C            1.699313425969    -0.862042350739    -0.434168258528    12.000000000000
         C           -4.865152574031    -0.811839350739    -0.083940258528    12.000000000000
         C            4.114420425969     0.380275649261     0.221918741472    12.000000000000
         C            2.910870425969    -1.532457350739    -0.608531258528    12.000000000000
         C            4.123152425969    -0.922915350739    -0.281844258528    12.000000000000
         H            0.587535425969     2.159704649261     0.052514741472     1.007825032230
         H           -0.425280574031    -1.069310350739     1.396004741472     1.007825032230
         H           -1.486525574031     2.279840649261    -1.085947258528     1.007825032230
         H           -2.729135574031    -1.938196350739     1.198760741472     1.007825032230
         H           -3.809686574031     1.451669649261    -1.208909258528     1.007825032230
         H            2.903409425969     2.056993649261     0.836561741472     1.007825032230
         H            0.768284425969    -1.336469350739    -0.728680258528     1.007825032230
         H           -5.374890574031    -0.440603350739    -0.977685258528     1.007825032230
         H           -4.897824574031    -1.905082350739    -0.105922258528     1.007825032230
         H           -5.440594574031    -0.481394350739     0.787983741472     1.007825032230
         H            5.048622425969     0.872182649261     0.483264741472     1.007825032230
         H            2.902176425969    -2.541728350739    -1.014397258528     1.007825032230
         H            5.061622425969    -1.452250350739    -0.423485258528     1.007825032230

  Basis Set: AUG-CC-PVTZ
    Blend: AUG-CC-PVTZ
  Basis Set: (AUG-CC-PVTZ AUX)
    Blend: AUG-CC-PVTZ-JKFIT
	 Reference Energy          =    -554.4767420143432446 [Eh]
	 Singles Energy            =      -0.0000000000000000 [Eh]
	 Same-Spin Energy          =      -0.6240235558990905 [Eh]
	 Opposite-Spin Energy      =      -1.9530468504192906 [Eh]
	 Correlation Energy        =      -2.5770704063183811 [Eh]
	 Total Energy              =    -557.0538124206616430 [Eh]

	 ================> DF-SCS-MP2 Energies <==================
	-----------------------------------------------------------
	 SCS Same-Spin Scale       =       0.3333333333333333 [-]
	 SCS Opposite-Spin Scale   =       1.2000000000000000 [-]
	 SCS Same-Spin Energy      =      -0.2080078519663635 [Eh]
	 SCS Opposite-Spin Energy  =      -2.3436562205031488 [Eh]
	 SCS Correlation Energy    =      -2.5516640724695123 [Eh]
	 SCS Total Energy          =    -557.0284060868127654 [Eh]
	-----------------------------------------------------------

  Dipole Moment: [D]
     X:    -0.6563      Y:     0.5836      Z:    -0.3445     Total:     0.9434

*** Psi4 exiting successfully. Buy a developer a beer!
