                               Psi4 1.4a3.dev225

  ==> Input File <==

--------------------------------------------------------------------------
#psi4
#
memory 32 gb

molecule  {
0 1
  N        0.5479400     1.1907050     0.2959170
  C       -0.7486070     0.6692540     0.1554050
  C        1.7310100     0.4560470     0.0875670
  C       -3.4043000    -0.2987570    -0.0204040
  C       -1.1184250    -0.5206800     0.8026630
  C       -1.7211190     1.3742660    -0.5666580
  C       -2.4232850    -0.9959770     0.6985600
  C       -3.0306900     0.9005340    -0.6374610
  C        2.9509580     1.0658110     0.4223950
  C        1.7399610    -0.8480750    -0.4298540
  C       -4.8245050    -0.7978720    -0.0796260
  C        4.1550680     0.3942430     0.2262330
  C        2.9515180    -1.5184900    -0.6042170
  C        4.1638000    -0.9089480    -0.2775300
  H        0.6281830     2.1736720     0.0568290
  H       -0.3846330    -1.0553430     1.4003190
  H       -1.4458780     2.2938080    -1.0816330
  H       -2.6884880    -1.9242290     1.2030750
  H       -3.7690390     1.4656370    -1.2045950
  H        2.9440570     2.0709610     0.8408760
  H        0.8089320    -1.3225020    -0.7243660
  H       -5.3342430    -0.4266360    -0.9733710
  H       -4.8571770    -1.8911150    -0.1016080
  H       -5.3999470    -0.4674270     0.7922980
  H        5.0892700     0.8861500     0.4875790
  H        2.9428240    -2.5277610    -1.0100830
  H        5.1195414    -1.4480248    -0.4217777
units angstrom
no_reorient  #important for SAPT in psi4, default
symmetry c1  #important for SAPT in psi4, default
}

set PROPERTIES_ORIGIN ["COM"]
properties('MP2/aug-cc-pvtz', properties = ['dipole'])
--------------------------------------------------------------------------

    Molecular point group: c1
  Charge       = 0
  Multiplicity = 1
  Basis Set: AUG-CC-PVTZ
    Blend: AUG-CC-PVTZ
  Basis Set: (AUG-CC-PVTZ AUX)
    Blend: AUG-CC-PVTZ-JKFIT

    Orbital Energies [Eh]
    ---------------------

    Doubly Occupied:

       1A    -15.577367     2A    -11.282710     3A    -11.277426
       4A    -11.238085     5A    -11.237377     6A    -11.236264
       7A    -11.234896     8A    -11.234284     9A    -11.232650
      10A    -11.230089    11A    -11.228741    12A    -11.226789
      13A    -11.226194    14A    -11.223196    15A     -1.258273
      16A     -1.151932    17A     -1.128257    18A     -1.040663
      19A     -1.015955    20A     -1.010834    21A     -0.989062
      22A     -0.921327    23A     -0.842704    24A     -0.829542
      25A     -0.816358    26A     -0.785129    27A     -0.713121
      28A     -0.704036    29A     -0.666529    30A     -0.640156
      31A     -0.635094    32A     -0.619168    33A     -0.597233
      34A     -0.587764    35A     -0.585273    36A     -0.582398
      37A     -0.573358    38A     -0.545598    39A     -0.530671
      40A     -0.511899    41A     -0.500948    42A     -0.494884
      43A     -0.489812    44A     -0.485996    45A     -0.441963
      46A     -0.340364    47A     -0.335826    48A     -0.331025
      49A     -0.275833

  @DF-RHF Final Energy:  -554.49021889812059

   => Energetics <=

    Nuclear Repulsion Energy =            787.2350693973708076
    One-Electron Energy =               -2312.1204651715784166
    Two-Electron Energy =                 970.3951768760870209
    Total Energy =                       -554.4902188981205882
  Basis Set: (AUG-CC-PVTZ AUX)
    Blend: AUG-CC-PVTZ-RI
    Molecular point group: c1

    Geometry (in Angstrom), charge = 0, multiplicity = 1:

       Center              X                  Y                   Z               Mass
    ------------   -----------------  -----------------  -----------------  -----------------
         N            0.513352198593     1.179017757872     0.291949855790    14.003074004430
         C           -0.783194801407     0.657566757872     0.151437855790    12.000000000000
         C            1.696422198593     0.444359757872     0.083599855790    12.000000000000
         C           -3.438887801407    -0.310444242128    -0.024371144210    12.000000000000
         C           -1.153012801407    -0.532367242128     0.798695855790    12.000000000000
         C           -1.755706801407     1.362578757872    -0.570625144210    12.000000000000
         C           -2.457872801407    -1.007664242128     0.694592855790    12.000000000000
         C           -3.065277801407     0.888846757872    -0.641428144210    12.000000000000
         C            2.916370198593     1.054123757872     0.418427855790    12.000000000000
         C            1.705373198593    -0.859762242128    -0.433821144210    12.000000000000
         C           -4.859092801407    -0.809559242128    -0.083593144210    12.000000000000
         C            4.120480198593     0.382555757872     0.222265855790    12.000000000000
         C            2.916930198593    -1.530177242128    -0.608184144210    12.000000000000
         C            4.129212198593    -0.920635242128    -0.281497144210    12.000000000000
         H            0.593595198593     2.161984757872     0.052861855790     1.007825032230
         H           -0.419220801407    -1.067030242128     1.396351855790     1.007825032230
         H           -1.480465801407     2.282120757872    -1.085600144210     1.007825032230
         H           -2.723075801407    -1.935916242128     1.199107855790     1.007825032230
         H           -3.803626801407     1.453949757872    -1.208562144210     1.007825032230
         H            2.909469198593     2.059273757872     0.836908855790     1.007825032230
         H            0.774344198593    -1.334189242128    -0.728333144210     1.007825032230
         H           -5.368830801407    -0.438323242128    -0.977338144210     1.007825032230
         H           -4.891764801407    -1.902802242128    -0.105575144210     1.007825032230
         H           -5.434534801407    -0.479114242128     0.788330855790     1.007825032230
         H            5.054682198593     0.874462757872     0.483611855790     1.007825032230
         H            2.908236198593    -2.539448242128    -1.014050144210     1.007825032230
         H            5.084953598593    -1.459712042128    -0.425744844210     1.007825032230

  Basis Set: AUG-CC-PVTZ
    Blend: AUG-CC-PVTZ
  Basis Set: (AUG-CC-PVTZ AUX)
    Blend: AUG-CC-PVTZ-JKFIT
	 Reference Energy          =    -554.4902188981205882 [Eh]
	 Singles Energy            =      -0.0000000000000000 [Eh]
	 Same-Spin Energy          =      -0.6239530414730967 [Eh]
	 Opposite-Spin Energy      =      -1.9528134451043639 [Eh]
	 Correlation Energy        =      -2.5767664865774607 [Eh]
	 Total Energy              =    -557.0669853846980004 [Eh]

	 ================> DF-SCS-MP2 Energies <==================
	-----------------------------------------------------------
	 SCS Same-Spin Scale       =       0.3333333333333333 [-]
	 SCS Opposite-Spin Scale   =       1.2000000000000000 [-]
	 SCS Same-Spin Energy      =      -0.2079843471576989 [Eh]
	 SCS Opposite-Spin Energy  =      -2.3433761341252368 [Eh]
	 SCS Correlation Energy    =      -2.5513604812829356 [Eh]
	 SCS Total Energy          =    -557.0415793794035153 [Eh]
	-----------------------------------------------------------

  Dipole Moment: [D]
     X:    -0.6428      Y:     0.5821      Z:    -0.3398     Total:     0.9314

*** Psi4 exiting successfully. Buy a developer a beer!
