                               Psi4 1.4a3.dev225

  ==> Input File <==

--------------------------------------------------------------------------
#psi4
#
memory 32 gb

molecule  {
0 1
  N        0.5479400     1.1907050     0.2959170
  C       -0.7486070     0.6692540     0.1554050
  C        1.7310100     0.4560470     0.0875670
  C       -3.4043000    -0.2987570    -0.0204040
  C       -1.1184250    -0.5206800     0.8026630
  C       -1.7211190     1.3742660    -0.5666580
  C       -2.4232850    -0.9959770     0.6985600
  C       -3.0306900     0.9005340    -0.6374610
  C        2.9509580     1.0658110     0.4223950
  C        1.7399610    -0.8480750    -0.4298540
  C       -4.8245050    -0.7978720    -0.0796260
  C        4.1550680     0.3942430     0.2262330
  C        2.9515180    -1.5184900    -0.6042170
  C        4.1638000    -0.9089480    -0.2775300
  H        0.6281830     2.1736720     0.0568290
  H       -0.3846330    -1.0553430     1.4003190
  H       -1.4458780     2.2938080    -1.0816330
  H       -2.6884880    -1.9242290     1.2030750
  H       -3.7690390     1.4656370    -1.2045950
  H        2.9440570     2.0709610     0.8408760
  H        0.8089320    -1.3225020    -0.7243660
  H       -5.3342430    -0.4266360    -0.9733710
  H       -4.8556837    -1.8411474    -0.1006033
  H       -5.3999470    -0.4674270     0.7922980
  H        5.0892700     0.8861500     0.4875790
  H        2.9428240    -2.5277610    -1.0100830
  H        5.1022700    -1.4382830    -0.4191710
units angstrom
no_reorient  #important for SAPT in psi4, default
symmetry c1  #important for SAPT in psi4, default
}

set PROPERTIES_ORIGIN ["COM"]
properties('MP2/aug-cc-pvtz', properties = ['dipole'])
--------------------------------------------------------------------------

    Molecular point group: c1
  Charge       = 0
  Multiplicity = 1
  Basis Set: AUG-CC-PVTZ
    Blend: AUG-CC-PVTZ
  Basis Set: (AUG-CC-PVTZ AUX)
    Blend: AUG-CC-PVTZ-JKFIT

    Orbital Energies [Eh]
    ---------------------

    Doubly Occupied:

       1A    -15.577197     2A    -11.282560     3A    -11.277211
       4A    -11.237824     5A    -11.237121     6A    -11.235879
       7A    -11.234603     8A    -11.234049     9A    -11.232429
      10A    -11.229955    11A    -11.228531    12A    -11.225986
      13A    -11.224385    14A    -11.217012    15A     -1.258100
      16A     -1.151817    17A     -1.128247    18A     -1.041612
      19A     -1.015770    20A     -1.010655    21A     -0.990270
      22A     -0.924302    23A     -0.842714    24A     -0.829911
      25A     -0.817026    26A     -0.785451    27A     -0.713212
      28A     -0.703910    29A     -0.668893    30A     -0.640453
      31A     -0.636033    32A     -0.619099    33A     -0.597731
      34A     -0.587754    35A     -0.585190    36A     -0.582281
      37A     -0.576373    38A     -0.547584    39A     -0.532912
      40A     -0.513159    41A     -0.501088    42A     -0.495472
      43A     -0.489617    44A     -0.485886    45A     -0.441863
      46A     -0.340177    47A     -0.335636    48A     -0.330903
      49A     -0.275676

  @DF-RHF Final Energy:  -554.48990164697841

   => Energetics <=

    Nuclear Repulsion Energy =            787.5595847502239621
    One-Electron Energy =               -2312.7559377967440923
    Two-Electron Energy =                 970.7064513995416064
    Total Energy =                       -554.4899016469784101
  Basis Set: (AUG-CC-PVTZ AUX)
    Blend: AUG-CC-PVTZ-RI
    Molecular point group: c1

    Geometry (in Angstrom), charge = 0, multiplicity = 1:

       Center              X                  Y                   Z               Mass
    ------------   -----------------  -----------------  -----------------  -----------------
         N            0.513439042652     1.178689112046     0.291929978324    14.003074004430
         C           -0.783107957348     0.657238112046     0.151417978324    12.000000000000
         C            1.696509042652     0.444031112046     0.083579978324    12.000000000000
         C           -3.438800957348    -0.310772887954    -0.024391021676    12.000000000000
         C           -1.152925957348    -0.532695887954     0.798675978324    12.000000000000
         C           -1.755619957348     1.362250112046    -0.570645021676    12.000000000000
         C           -2.457785957348    -1.007992887954     0.694572978324    12.000000000000
         C           -3.065190957348     0.888518112046    -0.641448021676    12.000000000000
         C            2.916457042652     1.053795112046     0.418407978324    12.000000000000
         C            1.705460042652    -0.860090887954    -0.433841021676    12.000000000000
         C           -4.859005957348    -0.809887887954    -0.083613021676    12.000000000000
         C            4.120567042652     0.382227112046     0.222245978324    12.000000000000
         C            2.917017042652    -1.530505887954    -0.608204021676    12.000000000000
         C            4.129299042652    -0.920963887954    -0.281517021676    12.000000000000
         H            0.593682042652     2.161656112046     0.052841978324     1.007825032230
         H           -0.419133957348    -1.067358887954     1.396331978324     1.007825032230
         H           -1.480378957348     2.281792112046    -1.085620021676     1.007825032230
         H           -2.722988957348    -1.936244887954     1.199087978324     1.007825032230
         H           -3.803539957348     1.453621112046    -1.208582021676     1.007825032230
         H            2.909556042652     2.058945112046     0.836888978324     1.007825032230
         H            0.774431042652    -1.334517887954    -0.728353021676     1.007825032230
         H           -5.368743957348    -0.438651887954    -0.977358021676     1.007825032230
         H           -4.890184657348    -1.853163287954    -0.104590321676     1.007825032230
         H           -5.434447957348    -0.479442887954     0.788310978324     1.007825032230
         H            5.054769042652     0.874134112046     0.483591978324     1.007825032230
         H            2.908323042652    -2.539776887954    -1.014070021676     1.007825032230
         H            5.067769042652    -1.450298887954    -0.423158021676     1.007825032230

  Basis Set: AUG-CC-PVTZ
    Blend: AUG-CC-PVTZ
  Basis Set: (AUG-CC-PVTZ AUX)
    Blend: AUG-CC-PVTZ-JKFIT
	 Reference Energy          =    -554.4899016469784101 [Eh]
	 Singles Energy            =      -0.0000000000000000 [Eh]
	 Same-Spin Energy          =      -0.6239234504718532 [Eh]
	 Opposite-Spin Energy      =      -1.9523815658443808 [Eh]
	 Correlation Energy        =      -2.5763050163162342 [Eh]
	 Total Energy              =    -557.0662066632946789 [Eh]

	 ================> DF-SCS-MP2 Energies <==================
	-----------------------------------------------------------
	 SCS Same-Spin Scale       =       0.3333333333333333 [-]
	 SCS Opposite-Spin Scale   =       1.2000000000000000 [-]
	 SCS Same-Spin Energy      =      -0.2079744834906177 [Eh]
	 SCS Opposite-Spin Energy  =      -2.3428578790132568 [Eh]
	 SCS Correlation Energy    =      -2.5508323625038747 [Eh]
	 SCS Total Energy          =    -557.0407340094823212 [Eh]
	-----------------------------------------------------------

  Dipole Moment: [D]
     X:    -0.6515      Y:     0.5544      Z:    -0.3415     Total:     0.9210

*** Psi4 exiting successfully. Buy a developer a beer!
