                               Psi4 1.4a3.dev225

  ==> Input File <==

--------------------------------------------------------------------------
#psi4
#
memory 32 gb

molecule  {
0 1
  N        0.5479400     1.1907050     0.2959170
  C       -0.7486070     0.6692540     0.1554050
  C        1.7310100     0.4560470     0.0875670
  C       -3.4043000    -0.2987570    -0.0204040
  C       -1.1184250    -0.5206800     0.8026630
  C       -1.7072408     1.3642052    -0.5563538
  C       -2.4232850    -0.9959770     0.6985600
  C       -3.0306900     0.9005340    -0.6374610
  C        2.9509580     1.0658110     0.4223950
  C        1.7399610    -0.8480750    -0.4298540
  C       -4.8245050    -0.7978720    -0.0796260
  C        4.1550680     0.3942430     0.2262330
  C        2.9515180    -1.5184900    -0.6042170
  C        4.1638000    -0.9089480    -0.2775300
  H        0.6281830     2.1736720     0.0568290
  H       -0.3846330    -1.0553430     1.4003190
  H       -1.4458780     2.2938080    -1.0816330
  H       -2.6884880    -1.9242290     1.2030750
  H       -3.7690390     1.4656370    -1.2045950
  H        2.9440570     2.0709610     0.8408760
  H        0.8089320    -1.3225020    -0.7243660
  H       -5.3342430    -0.4266360    -0.9733710
  H       -4.8571770    -1.8911150    -0.1016080
  H       -5.3999470    -0.4674270     0.7922980
  H        5.0892700     0.8861500     0.4875790
  H        2.9428240    -2.5277610    -1.0100830
  H        5.1022700    -1.4382830    -0.4191710
units angstrom
no_reorient  #important for SAPT in psi4, default
symmetry c1  #important for SAPT in psi4, default
}

set PROPERTIES_ORIGIN ["COM"]
properties('MP2/aug-cc-pvtz', properties = ['dipole'])
--------------------------------------------------------------------------

    Molecular point group: c1
  Charge       = 0
  Multiplicity = 1
  Basis Set: AUG-CC-PVTZ
    Blend: AUG-CC-PVTZ
  Basis Set: (AUG-CC-PVTZ AUX)
    Blend: AUG-CC-PVTZ-JKFIT

    Orbital Energies [Eh]
    ---------------------

    Doubly Occupied:

       1A    -15.576674     2A    -11.282451     3A    -11.275109
       4A    -11.237779     5A    -11.237102     6A    -11.236684
       7A    -11.235478     8A    -11.234413     9A    -11.232229
      10A    -11.230650    11A    -11.228421    12A    -11.225965
      13A    -11.224310    14A    -11.223339    15A     -1.258442
      16A     -1.152539    17A     -1.128149    18A     -1.042245
      19A     -1.015121    20A     -1.010248    21A     -0.989168
      22A     -0.922384    23A     -0.843530    24A     -0.829671
      25A     -0.816300    26A     -0.785166    27A     -0.713475
      28A     -0.703914    29A     -0.668414    30A     -0.639626
      31A     -0.634704    32A     -0.619573    33A     -0.597722
      34A     -0.588342    35A     -0.584239    36A     -0.581748
      37A     -0.573566    38A     -0.545872    39A     -0.531272
      40A     -0.513230    41A     -0.500959    42A     -0.494362
      43A     -0.490005    44A     -0.486317    45A     -0.441813
      46A     -0.339490    47A     -0.335091    48A     -0.332027
      49A     -0.276749

  @DF-RHF Final Energy:  -554.49059579154505

   => Energetics <=

    Nuclear Repulsion Energy =            787.6429731683344926
    One-Electron Energy =               -2312.9349855045106779
    Two-Electron Energy =                 970.8014165446311381
    Total Energy =                       -554.4905957915450472
  Basis Set: (AUG-CC-PVTZ AUX)
    Blend: AUG-CC-PVTZ-RI
    Molecular point group: c1

    Geometry (in Angstrom), charge = 0, multiplicity = 1:

       Center              X                  Y                   Z               Mass
    ------------   -----------------  -----------------  -----------------  -----------------
         N            0.512537736868     1.179623485141     0.291260209762    14.003074004430
         C           -0.784009263132     0.658172485141     0.150748209762    12.000000000000
         C            1.695607736868     0.444965485141     0.082910209762    12.000000000000
         C           -3.439702263132    -0.309838514859    -0.025060790238    12.000000000000
         C           -1.153827263132    -0.531761514859     0.798006209762    12.000000000000
         C           -1.742643063132     1.353123685141    -0.561010590238    12.000000000000
         C           -2.458687263132    -1.007058514859     0.693903209762    12.000000000000
         C           -3.066092263132     0.889452485141    -0.642117790238    12.000000000000
         C            2.915555736868     1.054729485141     0.417738209762    12.000000000000
         C            1.704558736868    -0.859156514859    -0.434510790238    12.000000000000
         C           -4.859907263132    -0.808953514859    -0.084282790238    12.000000000000
         C            4.119665736868     0.383161485141     0.221576209762    12.000000000000
         C            2.916115736868    -1.529571514859    -0.608873790238    12.000000000000
         C            4.128397736868    -0.920029514859    -0.282186790238    12.000000000000
         H            0.592780736868     2.162590485141     0.052172209762     1.007825032230
         H           -0.420035263132    -1.066424514859     1.395662209762     1.007825032230
         H           -1.481280263132     2.282726485141    -1.086289790238     1.007825032230
         H           -2.723890263132    -1.935310514859     1.198418209762     1.007825032230
         H           -3.804441263132     1.454555485141    -1.209251790238     1.007825032230
         H            2.908654736868     2.059879485141     0.836219209762     1.007825032230
         H            0.773529736868    -1.333583514859    -0.729022790238     1.007825032230
         H           -5.369645263132    -0.437717514859    -0.978027790238     1.007825032230
         H           -4.892579263132    -1.902196514859    -0.106264790238     1.007825032230
         H           -5.435349263132    -0.478508514859     0.787641209762     1.007825032230
         H            5.053867736868     0.875068485141     0.482922209762     1.007825032230
         H            2.907421736868    -2.538842514859    -1.014739790238     1.007825032230
         H            5.066867736868    -1.449364514859    -0.423827790238     1.007825032230

  Basis Set: AUG-CC-PVTZ
    Blend: AUG-CC-PVTZ
  Basis Set: (AUG-CC-PVTZ AUX)
    Blend: AUG-CC-PVTZ-JKFIT
	 Reference Energy          =    -554.4905957915450472 [Eh]
	 Singles Energy            =      -0.0000000000000000 [Eh]
	 Same-Spin Energy          =      -0.6238651276762097 [Eh]
	 Opposite-Spin Energy      =      -1.9525958513845967 [Eh]
	 Correlation Energy        =      -2.5764609790608066 [Eh]
	 Total Energy              =    -557.0670567706058591 [Eh]

	 ================> DF-SCS-MP2 Energies <==================
	-----------------------------------------------------------
	 SCS Same-Spin Scale       =       0.3333333333333333 [-]
	 SCS Opposite-Spin Scale   =       1.2000000000000000 [-]
	 SCS Same-Spin Energy      =      -0.2079550425587366 [Eh]
	 SCS Opposite-Spin Energy  =      -2.3431150216615158 [Eh]
	 SCS Correlation Energy    =      -2.5510700642202524 [Eh]
	 SCS Total Energy          =    -557.0416658557652454 [Eh]
	-----------------------------------------------------------

  Dipole Moment: [D]
     X:    -0.6664      Y:     0.5686      Z:    -0.3402     Total:     0.9397

*** Psi4 exiting successfully. Buy a developer a beer!
