                               Psi4 1.4a3.dev225

  ==> Input File <==

--------------------------------------------------------------------------
#psi4
#
memory 32 gb

molecule  {
0 1
  N        0.5479400     1.1907050     0.2959170
  C       -0.7486070     0.6692540     0.1554050
  C        1.7310100     0.4560470     0.0875670
  C       -3.4043000    -0.2987570    -0.0204040
  C       -1.1184250    -0.5206800     0.8026630
  C       -1.7211190     1.3742660    -0.5666580
  C       -2.4232850    -0.9959770     0.6985600
  C       -3.0306900     0.9005340    -0.6374610
  C        2.9509580     1.0658110     0.4223950
  C        1.6951077    -0.9270511    -0.4650691
  C       -4.8245050    -0.7978720    -0.0796260
  C        4.1550680     0.3942430     0.2262330
  C        2.9515180    -1.5184900    -0.6042170
  C        4.1638000    -0.9089480    -0.2775300
  H        0.6281830     2.1736720     0.0568290
  H       -0.3846330    -1.0553430     1.4003190
  H       -1.4458780     2.2938080    -1.0816330
  H       -2.6884880    -1.9242290     1.2030750
  H       -3.7690390     1.4656370    -1.2045950
  H        2.9440570     2.0709610     0.8408760
  H        0.8089320    -1.3225020    -0.7243660
  H       -5.3342430    -0.4266360    -0.9733710
  H       -4.8571770    -1.8911150    -0.1016080
  H       -5.3999470    -0.4674270     0.7922980
  H        5.0892700     0.8861500     0.4875790
  H        2.9428240    -2.5277610    -1.0100830
  H        5.1022700    -1.4382830    -0.4191710
units angstrom
no_reorient  #important for SAPT in psi4, default
symmetry c1  #important for SAPT in psi4, default
}

set PROPERTIES_ORIGIN ["COM"]
properties('MP2/aug-cc-pvtz', properties = ['dipole'])
--------------------------------------------------------------------------

    Molecular point group: c1
  Charge       = 0
  Multiplicity = 1
  Basis Set: AUG-CC-PVTZ
    Blend: AUG-CC-PVTZ
  Basis Set: (AUG-CC-PVTZ AUX)
    Blend: AUG-CC-PVTZ-JKFIT

    Orbital Energies [Eh]
    ---------------------

    Doubly Occupied:

       1A    -15.578736     2A    -11.292415     3A    -11.278272
       4A    -11.239680     5A    -11.238125     6A    -11.237151
       7A    -11.235753     8A    -11.235151     9A    -11.233600
      10A    -11.230942    11A    -11.228850    12A    -11.226893
      13A    -11.223795    14A    -11.223229    15A     -1.257607
      16A     -1.149816    17A     -1.125149    18A     -1.040773
      19A     -1.016855    20A     -1.012174    21A     -0.984197
      22A     -0.921816    23A     -0.842478    24A     -0.834628
      25A     -0.812286    26A     -0.786281    27A     -0.712972
      28A     -0.703196    29A     -0.678948    30A     -0.641459
      31A     -0.635707    32A     -0.621653    33A     -0.595059
      34A     -0.586988    35A     -0.584996    36A     -0.583917
      37A     -0.574305    38A     -0.545625    39A     -0.530424
      40A     -0.519255    41A     -0.499801    42A     -0.493335
      43A     -0.489711    44A     -0.482464    45A     -0.441421
      46A     -0.341649    47A     -0.337798    48A     -0.327266
      49A     -0.272817

  @DF-RHF Final Energy:  -554.47766589724188

   => Energetics <=

    Nuclear Repulsion Energy =            786.0145506168888687
    One-Electron Energy =               -2309.6095999390086035
    Two-Electron Energy =                 969.1173834248779713
    Total Energy =                       -554.4776658972418772
  Basis Set: (AUG-CC-PVTZ AUX)
    Blend: AUG-CC-PVTZ-RI
    Molecular point group: c1

    Geometry (in Angstrom), charge = 0, multiplicity = 1:

       Center              X                  Y                   Z               Mass
    ------------   -----------------  -----------------  -----------------  -----------------
         N            0.516386778522     1.184139934751     0.294243373512    14.003074004430
         C           -0.780160221478     0.662688934751     0.153731373512    12.000000000000
         C            1.699456778522     0.449481934751     0.085893373512    12.000000000000
         C           -3.435853221478    -0.305322065249    -0.022077626488    12.000000000000
         C           -1.149978221478    -0.527245065249     0.800989373512    12.000000000000
         C           -1.752672221478     1.367700934751    -0.568331626488    12.000000000000
         C           -2.454838221478    -1.002542065249     0.696886373512    12.000000000000
         C           -3.062243221478     0.893968934751    -0.639134626488    12.000000000000
         C            2.919404778522     1.059245934751     0.420721373512    12.000000000000
         C            1.663554478522    -0.933616165249    -0.466742726488    12.000000000000
         C           -4.856058221478    -0.804437065249    -0.081299626488    12.000000000000
         C            4.123514778522     0.387677934751     0.224559373512    12.000000000000
         C            2.919964778522    -1.525055065249    -0.605890626488    12.000000000000
         C            4.132246778522    -0.915513065249    -0.279203626488    12.000000000000
         H            0.596629778522     2.167106934751     0.055155373512     1.007825032230
         H           -0.416186221478    -1.061908065249     1.398645373512     1.007825032230
         H           -1.477431221478     2.287242934751    -1.083306626488     1.007825032230
         H           -2.720041221478    -1.930794065249     1.201401373512     1.007825032230
         H           -3.800592221478     1.459071934751    -1.206268626488     1.007825032230
         H            2.912503778522     2.064395934751     0.839202373512     1.007825032230
         H            0.777378778522    -1.329067065249    -0.726039626488     1.007825032230
         H           -5.365796221478    -0.433201065249    -0.975044626488     1.007825032230
         H           -4.888730221478    -1.897680065249    -0.103281626488     1.007825032230
         H           -5.431500221478    -0.473992065249     0.790624373512     1.007825032230
         H            5.057716778522     0.879584934751     0.485905373512     1.007825032230
         H            2.911270778522    -2.534326065249    -1.011756626488     1.007825032230
         H            5.070716778522    -1.444848065249    -0.420844626488     1.007825032230

  Basis Set: AUG-CC-PVTZ
    Blend: AUG-CC-PVTZ
  Basis Set: (AUG-CC-PVTZ AUX)
    Blend: AUG-CC-PVTZ-JKFIT
	 Reference Energy          =    -554.4776658972418772 [Eh]
	 Singles Energy            =      -0.0000000000000000 [Eh]
	 Same-Spin Energy          =      -0.6238975674539203 [Eh]
	 Opposite-Spin Energy      =      -1.9536393233625227 [Eh]
	 Correlation Energy        =      -2.5775368908164431 [Eh]
	 Total Energy              =    -557.0552027880582955 [Eh]

	 ================> DF-SCS-MP2 Energies <==================
	-----------------------------------------------------------
	 SCS Same-Spin Scale       =       0.3333333333333333 [-]
	 SCS Opposite-Spin Scale   =       1.2000000000000000 [-]
	 SCS Same-Spin Energy      =      -0.2079658558179734 [Eh]
	 SCS Opposite-Spin Energy  =      -2.3443671880350272 [Eh]
	 SCS Correlation Energy    =      -2.5523330438530007 [Eh]
	 SCS Total Energy          =    -557.0299989410948456 [Eh]
	-----------------------------------------------------------

  Dipole Moment: [D]
     X:    -0.7484      Y:     0.6394      Z:    -0.3196     Total:     1.0350

*** Psi4 exiting successfully. Buy a developer a beer!
