                               Psi4 1.4a3.dev225

  ==> Input File <==

--------------------------------------------------------------------------
#psi4
#
memory 32 gb

molecule  {
0 1
  N        0.5479400     1.1907050     0.2959170
  C       -0.7486070     0.6692540     0.1554050
  C        1.7310100     0.4560470     0.0875670
  C       -3.4043000    -0.2987570    -0.0204040
  C       -1.1184250    -0.5206800     0.8026630
  C       -1.7211190     1.3742660    -0.5666580
  C       -2.4232850    -0.9959770     0.6985600
  C       -3.0306900     0.9005340    -0.6374610
  C        2.9509580     1.0658110     0.4223950
  C        1.7399610    -0.8480750    -0.4298540
  C       -4.8245050    -0.7978720    -0.0796260
  C        4.1550680     0.3942430     0.2262330
  C        2.9515180    -1.5184900    -0.6042170
  C        4.1638000    -0.9089480    -0.2775300
  H        0.6360902     2.2705348     0.0332690
  H       -0.3846330    -1.0553430     1.4003190
  H       -1.4458780     2.2938080    -1.0816330
  H       -2.6884880    -1.9242290     1.2030750
  H       -3.7690390     1.4656370    -1.2045950
  H        2.9440570     2.0709610     0.8408760
  H        0.8089320    -1.3225020    -0.7243660
  H       -5.3342430    -0.4266360    -0.9733710
  H       -4.8571770    -1.8911150    -0.1016080
  H       -5.3999470    -0.4674270     0.7922980
  H        5.0892700     0.8861500     0.4875790
  H        2.9428240    -2.5277610    -1.0100830
  H        5.1022700    -1.4382830    -0.4191710
units angstrom
no_reorient  #important for SAPT in psi4, default
symmetry c1  #important for SAPT in psi4, default
}

set PROPERTIES_ORIGIN ["COM"]
properties('MP2/aug-cc-pvtz', properties = ['dipole'])
--------------------------------------------------------------------------

    Molecular point group: c1
  Charge       = 0
  Multiplicity = 1
  Basis Set: AUG-CC-PVTZ
    Blend: AUG-CC-PVTZ
  Basis Set: (AUG-CC-PVTZ AUX)
    Blend: AUG-CC-PVTZ-JKFIT

    Orbital Energies [Eh]
    ---------------------

    Doubly Occupied:

       1A    -15.586217     2A    -11.282693     3A    -11.277607
       4A    -11.237649     5A    -11.237023     6A    -11.235972
       7A    -11.234674     8A    -11.234100     9A    -11.232245
      10A    -11.230066    11A    -11.228248    12A    -11.225984
      13A    -11.224210    14A    -11.223006    15A     -1.250281
      16A     -1.151650    17A     -1.126247    18A     -1.040095
      19A     -1.015435    20A     -1.010524    21A     -0.987109
      22A     -0.919122    23A     -0.840678    24A     -0.829324
      25A     -0.816236    26A     -0.781699    27A     -0.712698
      28A     -0.690917    29A     -0.667051    30A     -0.640081
      31A     -0.634140    32A     -0.618114    33A     -0.595438
      34A     -0.585082    35A     -0.582705    36A     -0.582033
      37A     -0.573116    38A     -0.544723    39A     -0.530139
      40A     -0.513047    41A     -0.501037    42A     -0.494293
      43A     -0.489365    44A     -0.485261    45A     -0.441159
      46A     -0.340151    47A     -0.335548    48A     -0.330345
      49A     -0.274987

  @DF-RHF Final Energy:  -554.48009636117808

   => Energetics <=

    Nuclear Repulsion Energy =            786.7383598947242263
    One-Electron Energy =               -2311.1978602939911980
    Two-Electron Energy =                 969.9794040380888873
    Total Energy =                       -554.4800963611780844
  Basis Set: (AUG-CC-PVTZ AUX)
    Blend: AUG-CC-PVTZ-RI
    Molecular point group: c1

    Geometry (in Angstrom), charge = 0, multiplicity = 1:

       Center              X                  Y                   Z               Mass
    ------------   -----------------  -----------------  -----------------  -----------------
         N            0.513403739979     1.178430996712     0.292065184608    14.003074004430
         C           -0.783143260021     0.656979996712     0.151553184608    12.000000000000
         C            1.696473739979     0.443772996712     0.083715184608    12.000000000000
         C           -3.438836260021    -0.311031003288    -0.024255815392    12.000000000000
         C           -1.152961260021    -0.532954003288     0.798811184608    12.000000000000
         C           -1.755655260021     1.361991996712    -0.570509815392    12.000000000000
         C           -2.457821260021    -1.008251003288     0.694708184608    12.000000000000
         C           -3.065226260021     0.888259996712    -0.641312815392    12.000000000000
         C            2.916421739979     1.053536996712     0.418543184608    12.000000000000
         C            1.705424739979    -0.860349003288    -0.433705815392    12.000000000000
         C           -4.859041260021    -0.810146003288    -0.083477815392    12.000000000000
         C            4.120531739979     0.381968996712     0.222381184608    12.000000000000
         C            2.916981739979    -1.530764003288    -0.608068815392    12.000000000000
         C            4.129263739979    -0.921222003288    -0.281381815392    12.000000000000
         H            0.601553939979     2.258260796712     0.029417184608     1.007825032230
         H           -0.419169260021    -1.067617003288     1.396467184608     1.007825032230
         H           -1.480414260021     2.281533996712    -1.085484815392     1.007825032230
         H           -2.723024260021    -1.936503003288     1.199223184608     1.007825032230
         H           -3.803575260021     1.453362996712    -1.208446815392     1.007825032230
         H            2.909520739979     2.058686996712     0.837024184608     1.007825032230
         H            0.774395739979    -1.334776003288    -0.728217815392     1.007825032230
         H           -5.368779260021    -0.438910003288    -0.977222815392     1.007825032230
         H           -4.891713260021    -1.903389003288    -0.105459815392     1.007825032230
         H           -5.434483260021    -0.479701003288     0.788446184608     1.007825032230
         H            5.054733739979     0.873875996712     0.483727184608     1.007825032230
         H            2.908287739979    -2.540035003288    -1.013934815392     1.007825032230
         H            5.067733739979    -1.450557003288    -0.423022815392     1.007825032230

  Basis Set: AUG-CC-PVTZ
    Blend: AUG-CC-PVTZ
  Basis Set: (AUG-CC-PVTZ AUX)
    Blend: AUG-CC-PVTZ-JKFIT
	 Reference Energy          =    -554.4800963611780844 [Eh]
	 Singles Energy            =      -0.0000000000000000 [Eh]
	 Same-Spin Energy          =      -0.6248016129089847 [Eh]
	 Opposite-Spin Energy      =      -1.9548420892454625 [Eh]
	 Correlation Energy        =      -2.5796437021544474 [Eh]
	 Total Energy              =    -557.0597400633325833 [Eh]

	 ================> DF-SCS-MP2 Energies <==================
	-----------------------------------------------------------
	 SCS Same-Spin Scale       =       0.3333333333333333 [-]
	 SCS Opposite-Spin Scale   =       1.2000000000000000 [-]
	 SCS Same-Spin Energy      =      -0.2082672043029949 [Eh]
	 SCS Opposite-Spin Energy  =      -2.3458105070945550 [Eh]
	 SCS Correlation Energy    =      -2.5540777113975497 [Eh]
	 SCS Total Energy          =    -557.0341740725756381 [Eh]
	-----------------------------------------------------------

  Dipole Moment: [D]
     X:    -0.6238      Y:     0.6417      Z:    -0.3536     Total:     0.9623

*** Psi4 exiting successfully. Buy a developer a beer!
