                               Psi4 1.4a3.dev225

  ==> Input File <==

--------------------------------------------------------------------------
#psi4
#
memory 32 gb

molecule  {
0 1
  N        0.5479400     1.1907050     0.2959170
  C       -0.7133970     0.5828301     0.1854368
  C        1.7310100     0.4560470     0.0875670
  C       -3.4043000    -0.2987570    -0.0204040
  C       -1.1184250    -0.5206800     0.8026630
  C       -1.7211190     1.3742660    -0.5666580
  C       -2.4232850    -0.9959770     0.6985600
  C       -3.0306900     0.9005340    -0.6374610
  C        2.9509580     1.0658110     0.4223950
  C        1.7399610    -0.8480750    -0.4298540
  C       -4.8245050    -0.7978720    -0.0796260
  C        4.1550680     0.3942430     0.2262330
  C        2.9515180    -1.5184900    -0.6042170
  C        4.1638000    -0.9089480    -0.2775300
  H        0.6281830     2.1736720     0.0568290
  H       -0.3846330    -1.0553430     1.4003190
  H       -1.4458780     2.2938080    -1.0816330
  H       -2.6884880    -1.9242290     1.2030750
  H       -3.7690390     1.4656370    -1.2045950
  H        2.9440570     2.0709610     0.8408760
  H        0.8089320    -1.3225020    -0.7243660
  H       -5.3342430    -0.4266360    -0.9733710
  H       -4.8571770    -1.8911150    -0.1016080
  H       -5.3999470    -0.4674270     0.7922980
  H        5.0892700     0.8861500     0.4875790
  H        2.9428240    -2.5277610    -1.0100830
  H        5.1022700    -1.4382830    -0.4191710
units angstrom
no_reorient  #important for SAPT in psi4, default
symmetry c1  #important for SAPT in psi4, default
}

set PROPERTIES_ORIGIN ["COM"]
properties('MP2/aug-cc-pvtz', properties = ['dipole'])
--------------------------------------------------------------------------

    Molecular point group: c1
  Charge       = 0
  Multiplicity = 1
  Basis Set: AUG-CC-PVTZ
    Blend: AUG-CC-PVTZ
  Basis Set: (AUG-CC-PVTZ AUX)
    Blend: AUG-CC-PVTZ-JKFIT

    Orbital Energies [Eh]
    ---------------------

    Doubly Occupied:

       1A    -15.577496     2A    -11.280616     3A    -11.276603
       4A    -11.241066     5A    -11.237376     6A    -11.236820
       7A    -11.236666     8A    -11.234924     9A    -11.234244
      10A    -11.227684    11A    -11.225452    12A    -11.223966
      13A    -11.223398    14A    -11.220733    15A     -1.258596
      16A     -1.151644    17A     -1.128016    18A     -1.043562
      19A     -1.014114    20A     -1.011162    21A     -0.987969
      22A     -0.923043    23A     -0.841563    24A     -0.830410
      25A     -0.816225    26A     -0.782868    27A     -0.711125
      28A     -0.708571    29A     -0.666604    30A     -0.645324
      31A     -0.632326    32A     -0.617672    33A     -0.598908
      34A     -0.594674    35A     -0.584428    36A     -0.577031
      37A     -0.572831    38A     -0.546073    39A     -0.528781
      40A     -0.512879    41A     -0.502523    42A     -0.495871
      43A     -0.490285    44A     -0.479833    45A     -0.439750
      46A     -0.345745    47A     -0.336484    48A     -0.325283
      49A     -0.275736

  @DF-RHF Final Energy:  -554.47919494287135

   => Energetics <=

    Nuclear Repulsion Energy =            787.7610064062846504
    One-Electron Energy =               -2313.1704900239597009
    Two-Electron Energy =                 970.9302886748037054
    Total Energy =                       -554.4791949428713451
  Basis Set: (AUG-CC-PVTZ AUX)
    Blend: AUG-CC-PVTZ-RI
    Molecular point group: c1

    Geometry (in Angstrom), charge = 0, multiplicity = 1:

       Center              X                  Y                   Z               Mass
    ------------   -----------------  -----------------  -----------------  -----------------
         N            0.511139730913     1.184628035556     0.289967337043    14.003074004430
         C           -0.750197269087     0.576753135556     0.179487137043    12.000000000000
         C            1.694209730913     0.449970035556     0.081617337043    12.000000000000
         C           -3.441100269087    -0.304833964444    -0.026353662957    12.000000000000
         C           -1.155225269087    -0.526756964444     0.796713337043    12.000000000000
         C           -1.757919269087     1.368189035556    -0.572607662957    12.000000000000
         C           -2.460085269087    -1.002053964444     0.692610337043    12.000000000000
         C           -3.067490269087     0.894457035556    -0.643410662957    12.000000000000
         C            2.914157730913     1.059734035556     0.416445337043    12.000000000000
         C            1.703160730913    -0.854151964444    -0.435803662957    12.000000000000
         C           -4.861305269087    -0.803948964444    -0.085575662957    12.000000000000
         C            4.118267730913     0.388166035556     0.220283337043    12.000000000000
         C            2.914717730913    -1.524566964444    -0.610166662957    12.000000000000
         C            4.126999730913    -0.915024964444    -0.283479662957    12.000000000000
         H            0.591382730913     2.167595035556     0.050879337043     1.007825032230
         H           -0.421433269087    -1.061419964444     1.394369337043     1.007825032230
         H           -1.482678269087     2.287731035556    -1.087582662957     1.007825032230
         H           -2.725288269087    -1.930305964444     1.197125337043     1.007825032230
         H           -3.805839269087     1.459560035556    -1.210544662957     1.007825032230
         H            2.907256730913     2.064884035556     0.834926337043     1.007825032230
         H            0.772131730913    -1.328578964444    -0.730315662957     1.007825032230
         H           -5.371043269087    -0.432712964444    -0.979320662957     1.007825032230
         H           -4.893977269087    -1.897191964444    -0.107557662957     1.007825032230
         H           -5.436747269087    -0.473503964444     0.786348337043     1.007825032230
         H            5.052469730913     0.880073035556     0.481629337043     1.007825032230
         H            2.906023730913    -2.533837964444    -1.016032662957     1.007825032230
         H            5.065469730913    -1.444359964444    -0.425120662957     1.007825032230

  Basis Set: AUG-CC-PVTZ
    Blend: AUG-CC-PVTZ
  Basis Set: (AUG-CC-PVTZ AUX)
    Blend: AUG-CC-PVTZ-JKFIT
	 Reference Energy          =    -554.4791949428713451 [Eh]
	 Singles Energy            =      -0.0000000000000000 [Eh]
	 Same-Spin Energy          =      -0.6238754540222735 [Eh]
	 Opposite-Spin Energy      =      -1.9532893330953307 [Eh]
	 Correlation Energy        =      -2.5771647871176042 [Eh]
	 Total Energy              =    -557.0563597299889125 [Eh]

	 ================> DF-SCS-MP2 Energies <==================
	-----------------------------------------------------------
	 SCS Same-Spin Scale       =       0.3333333333333333 [-]
	 SCS Opposite-Spin Scale   =       1.2000000000000000 [-]
	 SCS Same-Spin Energy      =      -0.2079584846740912 [Eh]
	 SCS Opposite-Spin Energy  =      -2.3439471997143966 [Eh]
	 SCS Correlation Energy    =      -2.5519056843884877 [Eh]
	 SCS Total Energy          =    -557.0311006272598888 [Eh]
	-----------------------------------------------------------

  Dipole Moment: [D]
     X:    -0.6643      Y:     0.5995      Z:    -0.3244     Total:     0.9518

*** Psi4 exiting successfully. Buy a developer a beer!
