                               Psi4 1.4a3.dev225

  ==> Input File <==

--------------------------------------------------------------------------
#psi4
#
memory 32 gb

molecule  {
0 1
  N        0.5479400     1.1907050     0.2959170
  C       -0.7895330     0.8035182     0.1116857
  C        1.7310100     0.4560470     0.0875670
  C       -3.4043000    -0.2987570    -0.0204040
  C       -1.1184250    -0.5206800     0.8026630
  C       -1.7211190     1.3742660    -0.5666580
  C       -2.4232850    -0.9959770     0.6985600
  C       -3.0306900     0.9005340    -0.6374610
  C        2.9509580     1.0658110     0.4223950
  C        1.7399610    -0.8480750    -0.4298540
  C       -4.8245050    -0.7978720    -0.0796260
  C        4.1550680     0.3942430     0.2262330
  C        2.9515180    -1.5184900    -0.6042170
  C        4.1638000    -0.9089480    -0.2775300
  H        0.6281830     2.1736720     0.0568290
  H       -0.3846330    -1.0553430     1.4003190
  H       -1.4458780     2.2938080    -1.0816330
  H       -2.6884880    -1.9242290     1.2030750
  H       -3.7690390     1.4656370    -1.2045950
  H        2.9440570     2.0709610     0.8408760
  H        0.8089320    -1.3225020    -0.7243660
  H       -5.3342430    -0.4266360    -0.9733710
  H       -4.8571770    -1.8911150    -0.1016080
  H       -5.3999470    -0.4674270     0.7922980
  H        5.0892700     0.8861500     0.4875790
  H        2.9428240    -2.5277610    -1.0100830
  H        5.1022700    -1.4382830    -0.4191710
units angstrom
no_reorient  #important for SAPT in psi4, default
symmetry c1  #important for SAPT in psi4, default
}

set PROPERTIES_ORIGIN ["COM"]
properties('MP2/aug-cc-pvtz', properties = ['dipole'])
--------------------------------------------------------------------------

    Molecular point group: c1
  Charge       = 0
  Multiplicity = 1
  Basis Set: AUG-CC-PVTZ
    Blend: AUG-CC-PVTZ
  Basis Set: (AUG-CC-PVTZ AUX)
    Blend: AUG-CC-PVTZ-JKFIT

    Orbital Energies [Eh]
    ---------------------

    Doubly Occupied:

       1A    -15.577275     2A    -11.285906     3A    -11.275406
       4A    -11.241287     5A    -11.238664     6A    -11.237753
       7A    -11.237187     8A    -11.233532     9A    -11.233263
      10A    -11.229944    11A    -11.226994    12A    -11.225204
      13A    -11.223488    14A    -11.218414    15A     -1.258019
      16A     -1.154219    17A     -1.128958    18A     -1.050158
      19A     -1.014612    20A     -1.006431    21A     -0.991555
      22A     -0.923110    23A     -0.842655    24A     -0.829347
      25A     -0.818319    26A     -0.783647    27A     -0.717449
      28A     -0.697948    29A     -0.671856    30A     -0.644787
      31A     -0.633703    32A     -0.619696    33A     -0.601551
      34A     -0.589826    35A     -0.584480    36A     -0.575275
      37A     -0.568727    38A     -0.545236    39A     -0.532247
      40A     -0.514211    41A     -0.503434    42A     -0.495872
      43A     -0.492625    44A     -0.471033    45A     -0.442628
      46A     -0.349535    47A     -0.337669    48A     -0.325066
      49A     -0.276646

  @DF-RHF Final Energy:  -554.46530031441193

   => Energetics <=

    Nuclear Repulsion Energy =            786.7778661903042803
    One-Electron Energy =               -2311.1326380916252674
    Two-Electron Energy =                 969.8894715869089396
    Total Energy =                       -554.4653003144119339
  Basis Set: (AUG-CC-PVTZ AUX)
    Blend: AUG-CC-PVTZ-RI
    Molecular point group: c1

    Geometry (in Angstrom), charge = 0, multiplicity = 1:

       Center              X                  Y                   Z               Mass
    ------------   -----------------  -----------------  -----------------  -----------------
         N            0.516129398048     1.170164967366     0.294800706800    14.003074004430
         C           -0.821343601952     0.782978167366     0.110569406800    12.000000000000
         C            1.699199398048     0.435506967366     0.086450706800    12.000000000000
         C           -3.436110601952    -0.319297032634    -0.021520293200    12.000000000000
         C           -1.150235601952    -0.541220032634     0.801546706800    12.000000000000
         C           -1.752929601952     1.353725967366    -0.567774293200    12.000000000000
         C           -2.455095601952    -1.016517032634     0.697443706800    12.000000000000
         C           -3.062500601952     0.879993967366    -0.638577293200    12.000000000000
         C            2.919147398048     1.045270967366     0.421278706800    12.000000000000
         C            1.708150398048    -0.868615032634    -0.430970293200    12.000000000000
         C           -4.856315601952    -0.818412032634    -0.080742293200    12.000000000000
         C            4.123257398048     0.373702967366     0.225116706800    12.000000000000
         C            2.919707398048    -1.539030032634    -0.605333293200    12.000000000000
         C            4.131989398048    -0.929488032634    -0.278646293200    12.000000000000
         H            0.596372398048     2.153131967366     0.055712706800     1.007825032230
         H           -0.416443601952    -1.075883032634     1.399202706800     1.007825032230
         H           -1.477688601952     2.273267967366    -1.082749293200     1.007825032230
         H           -2.720298601952    -1.944769032634     1.201958706800     1.007825032230
         H           -3.800849601952     1.445096967366    -1.205711293200     1.007825032230
         H            2.912246398048     2.050420967366     0.839759706800     1.007825032230
         H            0.777121398048    -1.343042032634    -0.725482293200     1.007825032230
         H           -5.366053601952    -0.447176032634    -0.974487293200     1.007825032230
         H           -4.888987601952    -1.911655032634    -0.102724293200     1.007825032230
         H           -5.431757601952    -0.487967032634     0.791181706800     1.007825032230
         H            5.057459398048     0.865609967366     0.486462706800     1.007825032230
         H            2.911013398048    -2.548301032634    -1.011199293200     1.007825032230
         H            5.070459398048    -1.458823032634    -0.420287293200     1.007825032230

  Basis Set: AUG-CC-PVTZ
    Blend: AUG-CC-PVTZ
  Basis Set: (AUG-CC-PVTZ AUX)
    Blend: AUG-CC-PVTZ-JKFIT
	 Reference Energy          =    -554.4653003144119339 [Eh]
	 Singles Energy            =      -0.0000000000000000 [Eh]
	 Same-Spin Energy          =      -0.6230728063120615 [Eh]
	 Opposite-Spin Energy      =      -1.9536064590503113 [Eh]
	 Correlation Energy        =      -2.5766792653623729 [Eh]
	 Total Energy              =    -557.0419795797743063 [Eh]

	 ================> DF-SCS-MP2 Energies <==================
	-----------------------------------------------------------
	 SCS Same-Spin Scale       =       0.3333333333333333 [-]
	 SCS Opposite-Spin Scale   =       1.2000000000000000 [-]
	 SCS Same-Spin Energy      =      -0.2076909354373538 [Eh]
	 SCS Opposite-Spin Energy  =      -2.3443277508603733 [Eh]
	 SCS Correlation Energy    =      -2.5520186862977270 [Eh]
	 SCS Total Energy          =    -557.0173190007096764 [Eh]
	-----------------------------------------------------------

  Dipole Moment: [D]
     X:    -0.5896      Y:     0.5395      Z:    -0.3741     Total:     0.8824

*** Psi4 exiting successfully. Buy a developer a beer!
