                               Psi4 1.4a3.dev225

  ==> Input File <==

--------------------------------------------------------------------------
#psi4
#
memory 32 gb

molecule  {
0 1
  N        0.5479400     1.1907050     0.2959170
  C       -0.7486070     0.6692540     0.1554050
  C        1.8150280     0.4038738     0.0727706
  C       -3.4043000    -0.2987570    -0.0204040
  C       -1.1184250    -0.5206800     0.8026630
  C       -1.7211190     1.3742660    -0.5666580
  C       -2.4232850    -0.9959770     0.6985600
  C       -3.0306900     0.9005340    -0.6374610
  C        2.9509580     1.0658110     0.4223950
  C        1.7399610    -0.8480750    -0.4298540
  C       -4.8245050    -0.7978720    -0.0796260
  C        4.1550680     0.3942430     0.2262330
  C        2.9515180    -1.5184900    -0.6042170
  C        4.1638000    -0.9089480    -0.2775300
  H        0.6281830     2.1736720     0.0568290
  H       -0.3846330    -1.0553430     1.4003190
  H       -1.4458780     2.2938080    -1.0816330
  H       -2.6884880    -1.9242290     1.2030750
  H       -3.7690390     1.4656370    -1.2045950
  H        2.9440570     2.0709610     0.8408760
  H        0.8089320    -1.3225020    -0.7243660
  H       -5.3342430    -0.4266360    -0.9733710
  H       -4.8571770    -1.8911150    -0.1016080
  H       -5.3999470    -0.4674270     0.7922980
  H        5.0892700     0.8861500     0.4875790
  H        2.9428240    -2.5277610    -1.0100830
  H        5.1022700    -1.4382830    -0.4191710
units angstrom
no_reorient  #important for SAPT in psi4, default
symmetry c1  #important for SAPT in psi4, default
}

set PROPERTIES_ORIGIN ["COM"]
properties('MP2/aug-cc-pvtz', properties = ['dipole'])
--------------------------------------------------------------------------

    Molecular point group: c1
  Charge       = 0
  Multiplicity = 1
  Basis Set: AUG-CC-PVTZ
    Blend: AUG-CC-PVTZ
  Basis Set: (AUG-CC-PVTZ AUX)
    Blend: AUG-CC-PVTZ-JKFIT

    Orbital Energies [Eh]
    ---------------------

    Doubly Occupied:

       1A    -15.567520     2A    -11.278695     3A    -11.272100
       4A    -11.241795     5A    -11.241176     6A    -11.231967
       7A    -11.231169     8A    -11.230399     9A    -11.230296
      10A    -11.230164    11A    -11.227221    12A    -11.226592
      13A    -11.225145    14A    -11.220289    15A     -1.234968
      16A     -1.158402    17A     -1.127236    18A     -1.035734
      19A     -1.023890    20A     -1.009766    21A     -0.994936
      22A     -0.915313    23A     -0.843283    24A     -0.829646
      25A     -0.816099    26A     -0.783588    27A     -0.711644
      28A     -0.695378    29A     -0.660608    30A     -0.638484
      31A     -0.632403    32A     -0.624650    33A     -0.598652
      34A     -0.588842    35A     -0.582872    36A     -0.579636
      37A     -0.570281    38A     -0.541159    39A     -0.529043
      40A     -0.509796    41A     -0.507136    42A     -0.498521
      43A     -0.490405    44A     -0.480306    45A     -0.434719
      46A     -0.343408    47A     -0.336818    48A     -0.333896
      49A     -0.277968

  @DF-RHF Final Energy:  -554.48028266079746

   => Energetics <=

    Nuclear Repulsion Energy =            787.2926643532744038
    One-Electron Energy =               -2312.3578682949037102
    Two-Electron Energy =                 970.5849212808318498
    Total Energy =                       -554.4802826607974566
  Basis Set: (AUG-CC-PVTZ AUX)
    Blend: AUG-CC-PVTZ-RI
    Molecular point group: c1

    Geometry (in Angstrom), charge = 0, multiplicity = 1:

       Center              X                  Y                   Z               Mass
    ------------   -----------------  -----------------  -----------------  -----------------
         N            0.507941038132     1.182383373476     0.292905208697    14.003074004430
         C           -0.788605961868     0.660932373476     0.152393208697    12.000000000000
         C            1.775029038132     0.395552173476     0.069758808697    12.000000000000
         C           -3.444298961868    -0.307078626524    -0.023415791303    12.000000000000
         C           -1.158423961868    -0.529001626524     0.799651208697    12.000000000000
         C           -1.761117961868     1.365944373476    -0.569669791303    12.000000000000
         C           -2.463283961868    -1.004298626524     0.695548208697    12.000000000000
         C           -3.070688961868     0.892212373476    -0.640472791303    12.000000000000
         C            2.910959038132     1.057489373476     0.419383208697    12.000000000000
         C            1.699962038132    -0.856396626524    -0.432865791303    12.000000000000
         C           -4.864503961868    -0.806193626524    -0.082637791303    12.000000000000
         C            4.115069038132     0.385921373476     0.223221208697    12.000000000000
         C            2.911519038132    -1.526811626524    -0.607228791303    12.000000000000
         C            4.123801038132    -0.917269626524    -0.280541791303    12.000000000000
         H            0.588184038132     2.165350373476     0.053817208697     1.007825032230
         H           -0.424631961868    -1.063664626524     1.397307208697     1.007825032230
         H           -1.485876961868     2.285486373476    -1.084644791303     1.007825032230
         H           -2.728486961868    -1.932550626524     1.200063208697     1.007825032230
         H           -3.809037961868     1.457315373476    -1.207606791303     1.007825032230
         H            2.904058038132     2.062639373476     0.837864208697     1.007825032230
         H            0.768933038132    -1.330823626524    -0.727377791303     1.007825032230
         H           -5.374241961868    -0.434957626524    -0.976382791303     1.007825032230
         H           -4.897175961868    -1.899436626524    -0.104619791303     1.007825032230
         H           -5.439945961868    -0.475748626524     0.789286208697     1.007825032230
         H            5.049271038132     0.877828373476     0.484567208697     1.007825032230
         H            2.902825038132    -2.536082626524    -1.013094791303     1.007825032230
         H            5.062271038132    -1.446604626524    -0.422182791303     1.007825032230

  Basis Set: AUG-CC-PVTZ
    Blend: AUG-CC-PVTZ
  Basis Set: (AUG-CC-PVTZ AUX)
    Blend: AUG-CC-PVTZ-JKFIT
	 Reference Energy          =    -554.4802826607974566 [Eh]
	 Singles Energy            =      -0.0000000000000000 [Eh]
	 Same-Spin Energy          =      -0.6237061661054689 [Eh]
	 Opposite-Spin Energy      =      -1.9526357655370383 [Eh]
	 Correlation Energy        =      -2.5763419316425074 [Eh]
	 Total Energy              =    -557.0566245924400164 [Eh]

	 ================> DF-SCS-MP2 Energies <==================
	-----------------------------------------------------------
	 SCS Same-Spin Scale       =       0.3333333333333333 [-]
	 SCS Opposite-Spin Scale   =       1.2000000000000000 [-]
	 SCS Same-Spin Energy      =      -0.2079020553684896 [Eh]
	 SCS Opposite-Spin Energy  =      -2.3431629186444458 [Eh]
	 SCS Correlation Energy    =      -2.5510649740129354 [Eh]
	 SCS Total Energy          =    -557.0313476348103450 [Eh]
	-----------------------------------------------------------

  Dipole Moment: [D]
     X:     0.1555      Y:     0.3646      Z:    -0.4236     Total:     0.5801

*** Psi4 exiting successfully. Buy a developer a beer!
