                               Psi4 1.4a3.dev225

  ==> Input File <==

--------------------------------------------------------------------------
#psi4
#
memory 32 gb

molecule  {
0 1
  N        0.5479400     1.1907050     0.2959170
  C       -0.7486070     0.6692540     0.1554050
  C        1.7310100     0.4560470     0.0875670
  C       -3.4043000    -0.2987570    -0.0204040
  C       -1.1184250    -0.5206800     0.8026630
  C       -1.7905099     1.4245702    -0.6181788
  C       -2.4232850    -0.9959770     0.6985600
  C       -3.0306900     0.9005340    -0.6374610
  C        2.9509580     1.0658110     0.4223950
  C        1.7399610    -0.8480750    -0.4298540
  C       -4.8245050    -0.7978720    -0.0796260
  C        4.1550680     0.3942430     0.2262330
  C        2.9515180    -1.5184900    -0.6042170
  C        4.1638000    -0.9089480    -0.2775300
  H        0.6281830     2.1736720     0.0568290
  H       -0.3846330    -1.0553430     1.4003190
  H       -1.4458780     2.2938080    -1.0816330
  H       -2.6884880    -1.9242290     1.2030750
  H       -3.7690390     1.4656370    -1.2045950
  H        2.9440570     2.0709610     0.8408760
  H        0.8089320    -1.3225020    -0.7243660
  H       -5.3342430    -0.4266360    -0.9733710
  H       -4.8571770    -1.8911150    -0.1016080
  H       -5.3999470    -0.4674270     0.7922980
  H        5.0892700     0.8861500     0.4875790
  H        2.9428240    -2.5277610    -1.0100830
  H        5.1022700    -1.4382830    -0.4191710
units angstrom
no_reorient  #important for SAPT in psi4, default
symmetry c1  #important for SAPT in psi4, default
}

set PROPERTIES_ORIGIN ["COM"]
properties('MP2/aug-cc-pvtz', properties = ['dipole'])
--------------------------------------------------------------------------

    Molecular point group: c1
  Charge       = 0
  Multiplicity = 1
  Basis Set: AUG-CC-PVTZ
    Blend: AUG-CC-PVTZ
  Basis Set: (AUG-CC-PVTZ AUX)
    Blend: AUG-CC-PVTZ-JKFIT

    Orbital Energies [Eh]
    ---------------------

    Doubly Occupied:

       1A    -15.580183     2A    -11.286646     3A    -11.283384
       4A    -11.238309     5A    -11.237475     6A    -11.234956
       7A    -11.234822     8A    -11.233700     9A    -11.230517
      10A    -11.229364    11A    -11.227070    12A    -11.226421
      13A    -11.225025    14A    -11.222386    15A     -1.257420
      16A     -1.149407    17A     -1.128891    18A     -1.034550
      19A     -1.021737    20A     -1.011986    21A     -0.990736
      22A     -0.916929    23A     -0.840341    24A     -0.829703
      25A     -0.819384    26A     -0.784030    27A     -0.712319
      28A     -0.703791    29A     -0.671070    30A     -0.650739
      31A     -0.634288    32A     -0.616665    33A     -0.598286
      34A     -0.589500    35A     -0.585123    36A     -0.580854
      37A     -0.571941    38A     -0.544249    39A     -0.527652
      40A     -0.514205    41A     -0.505990    42A     -0.494340
      43A     -0.490212    44A     -0.477000    45A     -0.441300
      46A     -0.347587    47A     -0.337204    48A     -0.326078
      49A     -0.270921

  @DF-RHF Final Energy:  -554.47863843265043

   => Energetics <=

    Nuclear Repulsion Energy =            785.8999814631677054
    One-Electron Energy =               -2309.4238689441135648
    Two-Electron Energy =                 969.0452490482954317
    Total Energy =                       -554.4786384326504276
  Basis Set: (AUG-CC-PVTZ AUX)
    Blend: AUG-CC-PVTZ-RI
    Molecular point group: c1

    Geometry (in Angstrom), charge = 0, multiplicity = 1:

       Center              X                  Y                   Z               Mass
    ------------   -----------------  -----------------  -----------------  -----------------
         N            0.517994880554     1.175667390039     0.295311987773    14.003074004430
         C           -0.778552119446     0.654216390039     0.154799987773    12.000000000000
         C            1.701064880554     0.441009390039     0.086961987773    12.000000000000
         C           -3.434245119446    -0.313794609961    -0.021009012227    12.000000000000
         C           -1.148370119446    -0.535717609961     0.802057987773    12.000000000000
         C           -1.820455019446     1.409532590039    -0.618783812227    12.000000000000
         C           -2.453230119446    -1.011014609961     0.697954987773    12.000000000000
         C           -3.060635119446     0.885496390039    -0.638066012227    12.000000000000
         C            2.921012880554     1.050773390039     0.421789987773    12.000000000000
         C            1.710015880554    -0.863112609961    -0.430459012227    12.000000000000
         C           -4.854450119446    -0.812909609961    -0.080231012227    12.000000000000
         C            4.125122880554     0.379205390039     0.225627987773    12.000000000000
         C            2.921572880554    -1.533527609961    -0.604822012227    12.000000000000
         C            4.133854880554    -0.923985609961    -0.278135012227    12.000000000000
         H            0.598237880554     2.158634390039     0.056223987773     1.007825032230
         H           -0.414578119446    -1.070380609961     1.399713987773     1.007825032230
         H           -1.475823119446     2.278770390039    -1.082238012227     1.007825032230
         H           -2.718433119446    -1.939266609961     1.202469987773     1.007825032230
         H           -3.798984119446     1.450599390039    -1.205200012227     1.007825032230
         H            2.914111880554     2.055923390039     0.840270987773     1.007825032230
         H            0.778986880554    -1.337539609961    -0.724971012227     1.007825032230
         H           -5.364188119446    -0.441673609961    -0.973976012227     1.007825032230
         H           -4.887122119446    -1.906152609961    -0.102213012227     1.007825032230
         H           -5.429892119446    -0.482464609961     0.791692987773     1.007825032230
         H            5.059324880554     0.871112390039     0.486973987773     1.007825032230
         H            2.912878880554    -2.542798609961    -1.010688012227     1.007825032230
         H            5.072324880554    -1.453320609961    -0.419776012227     1.007825032230

  Basis Set: AUG-CC-PVTZ
    Blend: AUG-CC-PVTZ
  Basis Set: (AUG-CC-PVTZ AUX)
    Blend: AUG-CC-PVTZ-JKFIT
	 Reference Energy          =    -554.4786384326504276 [Eh]
	 Singles Energy            =      -0.0000000000000000 [Eh]
	 Same-Spin Energy          =      -0.6240033096184436 [Eh]
	 Opposite-Spin Energy      =      -1.9536134561205891 [Eh]
	 Correlation Energy        =      -2.5776167657390330 [Eh]
	 Total Energy              =    -557.0562551983894082 [Eh]

	 ================> DF-SCS-MP2 Energies <==================
	-----------------------------------------------------------
	 SCS Same-Spin Scale       =       0.3333333333333333 [-]
	 SCS Opposite-Spin Scale   =       1.2000000000000000 [-]
	 SCS Same-Spin Energy      =      -0.2080011032061479 [Eh]
	 SCS Opposite-Spin Energy  =      -2.3443361473447069 [Eh]
	 SCS Correlation Energy    =      -2.5523372505508548 [Eh]
	 SCS Total Energy          =    -557.0309756832012908 [Eh]
	-----------------------------------------------------------

  Dipole Moment: [D]
     X:    -0.4996      Y:     0.6195      Z:    -0.3469     Total:     0.8682

*** Psi4 exiting successfully. Buy a developer a beer!
