                               Psi4 1.4a3.dev225

  ==> Input File <==

--------------------------------------------------------------------------
#psi4
#
memory 32 gb

molecule  {
0 1
  N        0.5479400     1.1907050     0.2959170
  C       -0.7486070     0.6692540     0.1554050
  C        1.7310100     0.4560470     0.0875670
  C       -3.4043000    -0.2987570    -0.0204040
  C       -1.1184250    -0.5206800     0.8026630
  C       -1.7211190     1.3742660    -0.5666580
  C       -2.4232850    -0.9959770     0.6985600
  C       -3.0306900     0.9005340    -0.6374610
  C        2.9509580     1.0658110     0.4223950
  C        1.7399610    -0.8480750    -0.4298540
  C       -4.8245050    -0.7978720    -0.0796260
  C        4.1550680     0.3942430     0.2262330
  C        2.9515180    -1.5184900    -0.6042170
  C        4.1638000    -0.9089480    -0.2775300
  H        0.6281830     2.1736720     0.0568290
  H       -0.3846330    -1.0553430     1.4003190
  H       -1.4458780     2.2938080    -1.0816330
  H       -2.6884880    -1.9242290     1.2030750
  H       -3.7690390     1.4656370    -1.2045950
  H        2.9440570     2.0709610     0.8408760
  H        0.8089320    -1.3225020    -0.7243660
  H       -5.3342430    -0.4266360    -0.9733710
  H       -4.8512038    -1.6912446    -0.0975892
  H       -5.3999470    -0.4674270     0.7922980
  H        5.0892700     0.8861500     0.4875790
  H        2.9428240    -2.5277610    -1.0100830
  H        5.1022700    -1.4382830    -0.4191710
units angstrom
no_reorient  #important for SAPT in psi4, default
symmetry c1  #important for SAPT in psi4, default
}

set PROPERTIES_ORIGIN ["COM"]
properties('MP2/aug-cc-pvtz', properties = ['dipole'])
--------------------------------------------------------------------------

    Molecular point group: c1
  Charge       = 0
  Multiplicity = 1
  Basis Set: AUG-CC-PVTZ
    Blend: AUG-CC-PVTZ
  Basis Set: (AUG-CC-PVTZ AUX)
    Blend: AUG-CC-PVTZ-JKFIT

    Orbital Energies [Eh]
    ---------------------

    Doubly Occupied:

       1A    -15.576982     2A    -11.282429     3A    -11.276886
       4A    -11.237720     5A    -11.237019     6A    -11.235189
       7A    -11.234206     8A    -11.233488     9A    -11.232032
      10A    -11.229784    11A    -11.228407    12A    -11.225859
      13A    -11.224276    14A    -11.198424    15A     -1.257888
      16A     -1.151869    17A     -1.128485    18A     -1.046649
      19A     -1.015523    20A     -1.010631    21A     -0.994008
      22A     -0.935373    23A     -0.842829    24A     -0.830887
      25A     -0.817954    26A     -0.786370    27A     -0.713309
      28A     -0.703697    29A     -0.670784    30A     -0.643882
      31A     -0.638027    32A     -0.619435    33A     -0.599911
      34A     -0.590938    35A     -0.586097    36A     -0.583868
      37A     -0.581908    38A     -0.552094    39A     -0.535664
      40A     -0.512821    41A     -0.500659    42A     -0.496538
      43A     -0.489384    44A     -0.485658    45A     -0.441845
      46A     -0.339941    47A     -0.335458    48A     -0.330855
      49A     -0.275526

  @DF-RHF Final Energy:  -554.45698442761500

   => Energetics <=

    Nuclear Repulsion Energy =            788.3206065188353477
    One-Electron Energy =               -2314.1562569630559665
    Two-Electron Energy =                 971.3786660166056208
    Total Energy =                       -554.4569844276149979
  Basis Set: (AUG-CC-PVTZ AUX)
    Blend: AUG-CC-PVTZ-RI
    Molecular point group: c1

    Geometry (in Angstrom), charge = 0, multiplicity = 1:

       Center              X                  Y                   Z               Mass
    ------------   -----------------  -----------------  -----------------  -----------------
         N            0.513414384886     1.177864033759     0.291913388451    14.003074004430
         C           -0.783132615114     0.656413033759     0.151401388451    12.000000000000
         C            1.696484384886     0.443206033759     0.083563388451    12.000000000000
         C           -3.438825615114    -0.311597966241    -0.024407611549    12.000000000000
         C           -1.152950615114    -0.533520966241     0.798659388451    12.000000000000
         C           -1.755644615114     1.361425033759    -0.570661611549    12.000000000000
         C           -2.457810615114    -1.008817966241     0.694556388451    12.000000000000
         C           -3.065215615114     0.887693033759    -0.641464611549    12.000000000000
         C            2.916432384886     1.052970033759     0.418391388451    12.000000000000
         C            1.705435384886    -0.860915966241    -0.433857611549    12.000000000000
         C           -4.859030615114    -0.810712966241    -0.083629611549    12.000000000000
         C            4.120542384886     0.381402033759     0.222229388451    12.000000000000
         C            2.916992384886    -1.531330966241    -0.608220611549    12.000000000000
         C            4.129274384886    -0.921788966241    -0.281533611549    12.000000000000
         H            0.593657384886     2.160831033759     0.052825388451     1.007825032230
         H           -0.419158615114    -1.068183966241     1.396315388451     1.007825032230
         H           -1.480403615114     2.280967033759    -1.085636611549     1.007825032230
         H           -2.723013615114    -1.937069966241     1.199071388451     1.007825032230
         H           -3.803564615114     1.452796033759    -1.208598611549     1.007825032230
         H            2.909531384886     2.058120033759     0.836872388451     1.007825032230
         H            0.774406384886    -1.335342966241    -0.728369611549     1.007825032230
         H           -5.368768615114    -0.439476966241    -0.977374611549     1.007825032230
         H           -4.885729415114    -1.704085566241    -0.101592811549     1.007825032230
         H           -5.434472615114    -0.480267966241     0.788294388451     1.007825032230
         H            5.054744384886     0.873309033759     0.483575388451     1.007825032230
         H            2.908298384886    -2.540601966241    -1.014086611549     1.007825032230
         H            5.067744384886    -1.451123966241    -0.423174611549     1.007825032230

  Basis Set: AUG-CC-PVTZ
    Blend: AUG-CC-PVTZ
  Basis Set: (AUG-CC-PVTZ AUX)
    Blend: AUG-CC-PVTZ-JKFIT
	 Reference Energy          =    -554.4569844276149979 [Eh]
	 Singles Energy            =      -0.0000000000000000 [Eh]
	 Same-Spin Energy          =      -0.6240127550113221 [Eh]
	 Opposite-Spin Energy      =      -1.9520281139638378 [Eh]
	 Correlation Energy        =      -2.5760408689751602 [Eh]
	 Total Energy              =    -557.0330252965901536 [Eh]

	 ================> DF-SCS-MP2 Energies <==================
	-----------------------------------------------------------
	 SCS Same-Spin Scale       =       0.3333333333333333 [-]
	 SCS Opposite-Spin Scale   =       1.2000000000000000 [-]
	 SCS Same-Spin Energy      =      -0.2080042516704407 [Eh]
	 SCS Opposite-Spin Energy  =      -2.3424337367566053 [Eh]
	 SCS Correlation Energy    =      -2.5504379884270461 [Eh]
	 SCS Total Energy          =    -557.0074224160420044 [Eh]
	-----------------------------------------------------------

  Dipole Moment: [D]
     X:    -0.6889      Y:     0.5072      Z:    -0.3417     Total:     0.9212

*** Psi4 exiting successfully. Buy a developer a beer!
