                               Psi4 1.4a3.dev225

  ==> Input File <==

--------------------------------------------------------------------------
#psi4
#
memory 32 gb

molecule  {
0 1
  N        0.5479400     1.1907050     0.2959170
  C       -0.7486070     0.6692540     0.1554050
  C        1.7310100     0.4560470     0.0875670
  C       -3.4970365    -0.4061769     0.0169378
  C       -1.1184250    -0.5206800     0.8026630
  C       -1.7211190     1.3742660    -0.5666580
  C       -2.4232850    -0.9959770     0.6985600
  C       -3.0306900     0.9005340    -0.6374610
  C        2.9509580     1.0658110     0.4223950
  C        1.7399610    -0.8480750    -0.4298540
  C       -4.8245050    -0.7978720    -0.0796260
  C        4.1550680     0.3942430     0.2262330
  C        2.9515180    -1.5184900    -0.6042170
  C        4.1638000    -0.9089480    -0.2775300
  H        0.6281830     2.1736720     0.0568290
  H       -0.3846330    -1.0553430     1.4003190
  H       -1.4458780     2.2938080    -1.0816330
  H       -2.6884880    -1.9242290     1.2030750
  H       -3.7690390     1.4656370    -1.2045950
  H        2.9440570     2.0709610     0.8408760
  H        0.8089320    -1.3225020    -0.7243660
  H       -5.3342430    -0.4266360    -0.9733710
  H       -4.8571770    -1.8911150    -0.1016080
  H       -5.3999470    -0.4674270     0.7922980
  H        5.0892700     0.8861500     0.4875790
  H        2.9428240    -2.5277610    -1.0100830
  H        5.1022700    -1.4382830    -0.4191710
units angstrom
no_reorient  #important for SAPT in psi4, default
symmetry c1  #important for SAPT in psi4, default
}

set PROPERTIES_ORIGIN ["COM"]
properties('MP2/aug-cc-pvtz', properties = ['dipole'])
--------------------------------------------------------------------------

    Molecular point group: c1
  Charge       = 0
  Multiplicity = 1
  Basis Set: AUG-CC-PVTZ
    Blend: AUG-CC-PVTZ
  Basis Set: (AUG-CC-PVTZ AUX)
    Blend: AUG-CC-PVTZ-JKFIT

    Orbital Energies [Eh]
    ---------------------

    Doubly Occupied:

       1A    -15.577939     2A    -11.282611     3A    -11.278165
       4A    -11.247182     5A    -11.244123     6A    -11.237698
       7A    -11.236895     8A    -11.234068     9A    -11.234047
      10A    -11.228540    11A    -11.228195    12A    -11.225705
      13A    -11.224311    14A    -11.220521    15A     -1.258314
      16A     -1.147600    17A     -1.125704    18A     -1.056654
      19A     -1.013544    20A     -1.008521    21A     -0.993600
      22A     -0.924138    23A     -0.838578    24A     -0.830872
      25A     -0.809154    26A     -0.783134    27A     -0.711851
      28A     -0.702641    29A     -0.668823    30A     -0.650598
      31A     -0.636035    32A     -0.616297    33A     -0.597971
      34A     -0.591280    35A     -0.585008    36A     -0.583724
      37A     -0.575202    38A     -0.546776    39A     -0.542796
      40A     -0.527484    41A     -0.506719    42A     -0.491628
      43A     -0.489973    44A     -0.457213    45A     -0.436137
      46A     -0.340466    47A     -0.335884    48A     -0.324077
      49A     -0.270688

  @DF-RHF Final Energy:  -554.46144218524762

   => Energetics <=

    Nuclear Repulsion Energy =            785.9831381535803985
    One-Electron Energy =               -2309.5309869150928535
    Two-Electron Energy =                 969.0864065762647215
    Total Energy =                       -554.4614421852476198
  Basis Set: (AUG-CC-PVTZ AUX)
    Blend: AUG-CC-PVTZ-RI
    Molecular point group: c1

    Geometry (in Angstrom), charge = 0, multiplicity = 1:

       Center              X                  Y                   Z               Mass
    ------------   -----------------  -----------------  -----------------  -----------------
         N            0.519524863388     1.186004034442     0.289488267131    14.003074004430
         C           -0.777022136612     0.664553034442     0.148976267131    12.000000000000
         C            1.702594863388     0.451346034442     0.081138267131    12.000000000000
         C           -3.525451636612    -0.410877865558     0.010509067131    12.000000000000
         C           -1.146840136612    -0.525380965558     0.796234267131    12.000000000000
         C           -1.749534136612     1.369565034442    -0.573086732869    12.000000000000
         C           -2.451700136612    -1.000677965558     0.692131267131    12.000000000000
         C           -3.059105136612     0.895833034442    -0.643889732869    12.000000000000
         C            2.922542863388     1.061110034442     0.415966267131    12.000000000000
         C            1.711545863388    -0.852775965558    -0.436282732869    12.000000000000
         C           -4.852920136612    -0.802572965558    -0.086054732869    12.000000000000
         C            4.126652863388     0.389542034442     0.219804267131    12.000000000000
         C            2.923102863388    -1.523190965558    -0.610645732869    12.000000000000
         C            4.135384863388    -0.913648965558    -0.283958732869    12.000000000000
         H            0.599767863388     2.168971034442     0.050400267131     1.007825032230
         H           -0.413048136612    -1.060043965558     1.393890267131     1.007825032230
         H           -1.474293136612     2.289107034442    -1.088061732869     1.007825032230
         H           -2.716903136612    -1.928929965558     1.196646267131     1.007825032230
         H           -3.797454136612     1.460936034442    -1.211023732869     1.007825032230
         H            2.915641863388     2.066260034442     0.834447267131     1.007825032230
         H            0.780516863388    -1.327202965558    -0.730794732869     1.007825032230
         H           -5.362658136612    -0.431336965558    -0.979799732869     1.007825032230
         H           -4.885592136612    -1.895815965558    -0.108036732869     1.007825032230
         H           -5.428362136612    -0.472127965558     0.785869267131     1.007825032230
         H            5.060854863388     0.881449034442     0.481150267131     1.007825032230
         H            2.914408863388    -2.532461965558    -1.016511732869     1.007825032230
         H            5.073854863388    -1.442983965558    -0.425599732869     1.007825032230

  Basis Set: AUG-CC-PVTZ
    Blend: AUG-CC-PVTZ
  Basis Set: (AUG-CC-PVTZ AUX)
    Blend: AUG-CC-PVTZ-JKFIT
	 Reference Energy          =    -554.4614421852476198 [Eh]
	 Singles Energy            =      -0.0000000000000000 [Eh]
	 Same-Spin Energy          =      -0.6257533269717789 [Eh]
	 Opposite-Spin Energy      =      -1.9561304436894973 [Eh]
	 Correlation Energy        =      -2.5818837706612761 [Eh]
	 Total Energy              =    -557.0433259559089265 [Eh]

	 ================> DF-SCS-MP2 Energies <==================
	-----------------------------------------------------------
	 SCS Same-Spin Scale       =       0.3333333333333333 [-]
	 SCS Opposite-Spin Scale   =       1.2000000000000000 [-]
	 SCS Same-Spin Energy      =      -0.2085844423239263 [Eh]
	 SCS Opposite-Spin Energy  =      -2.3473565324273968 [Eh]
	 SCS Correlation Energy    =      -2.5559409747513233 [Eh]
	 SCS Total Energy          =    -557.0173831599989853 [Eh]
	-----------------------------------------------------------

  Dipole Moment: [D]
     X:    -0.8098      Y:     0.5664      Z:    -0.3718     Total:     1.0558

*** Psi4 exiting successfully. Buy a developer a beer!
