                               Psi4 1.4a3.dev225

  ==> Input File <==

--------------------------------------------------------------------------
#psi4
#
memory 32 gb

molecule  {
0 1
  N        0.5479400     1.1907050     0.2959170
  C       -0.7486070     0.6692540     0.1554050
  C        1.7310100     0.4560470     0.0875670
  C       -3.4043000    -0.2987570    -0.0204040
  C       -1.0657502    -0.3511924     0.7104712
  C       -1.7211190     1.3742660    -0.5666580
  C       -2.4232850    -0.9959770     0.6985600
  C       -3.0306900     0.9005340    -0.6374610
  C        2.9509580     1.0658110     0.4223950
  C        1.7399610    -0.8480750    -0.4298540
  C       -4.8245050    -0.7978720    -0.0796260
  C        4.1550680     0.3942430     0.2262330
  C        2.9515180    -1.5184900    -0.6042170
  C        4.1638000    -0.9089480    -0.2775300
  H        0.6281830     2.1736720     0.0568290
  H       -0.3846330    -1.0553430     1.4003190
  H       -1.4458780     2.2938080    -1.0816330
  H       -2.6884880    -1.9242290     1.2030750
  H       -3.7690390     1.4656370    -1.2045950
  H        2.9440570     2.0709610     0.8408760
  H        0.8089320    -1.3225020    -0.7243660
  H       -5.3342430    -0.4266360    -0.9733710
  H       -4.8571770    -1.8911150    -0.1016080
  H       -5.3999470    -0.4674270     0.7922980
  H        5.0892700     0.8861500     0.4875790
  H        2.9428240    -2.5277610    -1.0100830
  H        5.1022700    -1.4382830    -0.4191710
units angstrom
no_reorient  #important for SAPT in psi4, default
symmetry c1  #important for SAPT in psi4, default
}

set PROPERTIES_ORIGIN ["COM"]
properties('MP2/aug-cc-pvtz', properties = ['dipole'])
--------------------------------------------------------------------------

    Molecular point group: c1
  Charge       = 0
  Multiplicity = 1
  Basis Set: AUG-CC-PVTZ
    Blend: AUG-CC-PVTZ
  Basis Set: (AUG-CC-PVTZ AUX)
    Blend: AUG-CC-PVTZ-JKFIT

    Orbital Energies [Eh]
    ---------------------

    Doubly Occupied:

       1A    -15.570953     2A    -11.280305     3A    -11.248963
       4A    -11.243767     5A    -11.239895     6A    -11.239219
       7A    -11.236949     8A    -11.235567     9A    -11.234870
      10A    -11.225836    11A    -11.225048    12A    -11.223437
      13A    -11.222318    14A    -11.221820    15A     -1.262927
      16A     -1.160561    17A     -1.126456    18A     -1.059306
      19A     -1.011034    20A     -1.004596    21A     -0.988428
      22A     -0.930157    23A     -0.852962    24A     -0.828097
      25A     -0.816624    26A     -0.772476    27A     -0.714464
      28A     -0.704276    29A     -0.666793    30A     -0.640870
      31A     -0.631461    32A     -0.620625    33A     -0.599873
      34A     -0.596686    35A     -0.581993    36A     -0.575894
      37A     -0.563013    38A     -0.550000    39A     -0.535928
      40A     -0.509824    41A     -0.505466    42A     -0.502294
      43A     -0.489381    44A     -0.458885    45A     -0.439606
      46A     -0.352010    47A     -0.334830    48A     -0.321761
      49A     -0.283858

  @DF-RHF Final Energy:  -554.43041327728679

   => Energetics <=

    Nuclear Repulsion Energy =            790.3958829436685392
    One-Electron Energy =               -2318.3678682420991208
    Two-Electron Energy =                 973.5415720211437929
    Total Energy =                       -554.4304132772867888
  Basis Set: (AUG-CC-PVTZ AUX)
    Blend: AUG-CC-PVTZ-RI
    Molecular point group: c1

    Geometry (in Angstrom), charge = 0, multiplicity = 1:

       Center              X                  Y                   Z               Mass
    ------------   -----------------  -----------------  -----------------  -----------------
         N            0.509995153596     1.167856558185     0.297977412172    14.003074004430
         C           -0.786551846404     0.646405558185     0.157465412172    12.000000000000
         C            1.693065153596     0.433198558185     0.089627412172    12.000000000000
         C           -3.442244846404    -0.321605441815    -0.018343587828    12.000000000000
         C           -1.103695046404    -0.374040841815     0.712531612172    12.000000000000
         C           -1.759063846404     1.351417558185    -0.564597587828    12.000000000000
         C           -2.461229846404    -1.018825441815     0.700620412172    12.000000000000
         C           -3.068634846404     0.877685558185    -0.635400587828    12.000000000000
         C            2.913013153596     1.042962558185     0.424455412172    12.000000000000
         C            1.702016153596    -0.870923441815    -0.427793587828    12.000000000000
         C           -4.862449846404    -0.820720441815    -0.077565587828    12.000000000000
         C            4.117123153596     0.371394558185     0.228293412172    12.000000000000
         C            2.913573153596    -1.541338441815    -0.602156587828    12.000000000000
         C            4.125855153596    -0.931796441815    -0.275469587828    12.000000000000
         H            0.590238153596     2.150823558185     0.058889412172     1.007825032230
         H           -0.422577846404    -1.078191441815     1.402379412172     1.007825032230
         H           -1.483822846404     2.270959558185    -1.079572587828     1.007825032230
         H           -2.726432846404    -1.947077441815     1.205135412172     1.007825032230
         H           -3.806983846404     1.442788558185    -1.202534587828     1.007825032230
         H            2.906112153596     2.048112558185     0.842936412172     1.007825032230
         H            0.770987153596    -1.345350441815    -0.722305587828     1.007825032230
         H           -5.372187846404    -0.449484441815    -0.971310587828     1.007825032230
         H           -4.895121846404    -1.913963441815    -0.099547587828     1.007825032230
         H           -5.437891846404    -0.490275441815     0.794358412172     1.007825032230
         H            5.051325153596     0.863301558185     0.489639412172     1.007825032230
         H            2.904879153596    -2.550609441815    -1.008022587828     1.007825032230
         H            5.064325153596    -1.461131441815    -0.417110587828     1.007825032230

  Basis Set: AUG-CC-PVTZ
    Blend: AUG-CC-PVTZ
  Basis Set: (AUG-CC-PVTZ AUX)
    Blend: AUG-CC-PVTZ-JKFIT
	 Reference Energy          =    -554.4304132772867888 [Eh]
	 Singles Energy            =      -0.0000000000000000 [Eh]
	 Same-Spin Energy          =      -0.6234086170472832 [Eh]
	 Opposite-Spin Energy      =      -1.9541297175280998 [Eh]
	 Correlation Energy        =      -2.5775383345753831 [Eh]
	 Total Energy              =    -557.0079516118621541 [Eh]

	 ================> DF-SCS-MP2 Energies <==================
	-----------------------------------------------------------
	 SCS Same-Spin Scale       =       0.3333333333333333 [-]
	 SCS Opposite-Spin Scale   =       1.2000000000000000 [-]
	 SCS Same-Spin Energy      =      -0.2078028723490944 [Eh]
	 SCS Opposite-Spin Energy  =      -2.3449556610337199 [Eh]
	 SCS Correlation Energy    =      -2.5527585333828142 [Eh]
	 SCS Total Energy          =    -556.9831718106695462 [Eh]
	-----------------------------------------------------------

  Dipole Moment: [D]
     X:    -1.0883      Y:     0.5179      Z:    -0.3672     Total:     1.2600

*** Psi4 exiting successfully. Buy a developer a beer!
