                               Psi4 1.4a3.dev225

  ==> Input File <==

--------------------------------------------------------------------------
#psi4
#
memory 32 gb

molecule  {
0 1
  N        0.5479400     1.1907050     0.2959170
  C       -0.6934757     0.5407029     0.2006638
  C        1.7310100     0.4560470     0.0875670
  C       -3.4043000    -0.2987570    -0.0204040
  C       -1.1184250    -0.5206800     0.8026630
  C       -1.7211190     1.3742660    -0.5666580
  C       -2.4232850    -0.9959770     0.6985600
  C       -3.0306900     0.9005340    -0.6374610
  C        2.9509580     1.0658110     0.4223950
  C        1.7399610    -0.8480750    -0.4298540
  C       -4.8245050    -0.7978720    -0.0796260
  C        4.1550680     0.3942430     0.2262330
  C        2.9515180    -1.5184900    -0.6042170
  C        4.1638000    -0.9089480    -0.2775300
  H        0.6281830     2.1736720     0.0568290
  H       -0.3846330    -1.0553430     1.4003190
  H       -1.4458780     2.2938080    -1.0816330
  H       -2.6884880    -1.9242290     1.2030750
  H       -3.7690390     1.4656370    -1.2045950
  H        2.9440570     2.0709610     0.8408760
  H        0.8089320    -1.3225020    -0.7243660
  H       -5.3342430    -0.4266360    -0.9733710
  H       -4.8571770    -1.8911150    -0.1016080
  H       -5.3999470    -0.4674270     0.7922980
  H        5.0892700     0.8861500     0.4875790
  H        2.9428240    -2.5277610    -1.0100830
  H        5.1022700    -1.4382830    -0.4191710
units angstrom
no_reorient  #important for SAPT in psi4, default
symmetry c1  #important for SAPT in psi4, default
}

set PROPERTIES_ORIGIN ["COM"]
properties('MP2/aug-cc-pvtz', properties = ['dipole'])
--------------------------------------------------------------------------

    Molecular point group: c1
  Charge       = 0
  Multiplicity = 1
  Basis Set: AUG-CC-PVTZ
    Blend: AUG-CC-PVTZ
  Basis Set: (AUG-CC-PVTZ AUX)
    Blend: AUG-CC-PVTZ-JKFIT

    Orbital Energies [Eh]
    ---------------------

    Doubly Occupied:

       1A    -15.577684     2A    -11.279711     3A    -11.275723
       4A    -11.244263     5A    -11.237217     6A    -11.237172
       7A    -11.236698     8A    -11.234872     9A    -11.234074
      10A    -11.227266    11A    -11.225214    12A    -11.223776
      13A    -11.223623    14A    -11.215993    15A     -1.258904
      16A     -1.151923    17A     -1.127952    18A     -1.047475
      19A     -1.012229    20A     -1.010979    21A     -0.987235
      22A     -0.924543    23A     -0.840683    24A     -0.830865
      25A     -0.815973    26A     -0.781005    27A     -0.711784
      28A     -0.709600    29A     -0.665687    30A     -0.648686
      31A     -0.631188    32A     -0.616833    33A     -0.602188
      34A     -0.595113    35A     -0.584225    36A     -0.575143
      37A     -0.571054    38A     -0.546315    39A     -0.527859
      40A     -0.512753    41A     -0.503527    42A     -0.496370
      43A     -0.490567    44A     -0.474188    45A     -0.437718
      46A     -0.350212    47A     -0.336436    48A     -0.322298
      49A     -0.275883

  @DF-RHF Final Energy:  -554.46495764416636

   => Energetics <=

    Nuclear Repulsion Energy =            787.9852648688479348
    One-Electron Energy =               -2313.6030878217243298
    Two-Electron Energy =                 971.1528653087100338
    Total Energy =                       -554.4649576441663612
  Basis Set: (AUG-CC-PVTZ AUX)
    Blend: AUG-CC-PVTZ-RI
    Molecular point group: c1

    Geometry (in Angstrom), charge = 0, multiplicity = 1:

       Center              X                  Y                   Z               Mass
    ------------   -----------------  -----------------  -----------------  -----------------
         N            0.509834163824     1.187388893827     0.288969416723    14.003074004430
         C           -0.731581536176     0.537386793827     0.193716216723    12.000000000000
         C            1.692904163824     0.452730893827     0.080619416723    12.000000000000
         C           -3.442405836176    -0.302073106173    -0.027351583277    12.000000000000
         C           -1.156530836176    -0.523996106173     0.795715416723    12.000000000000
         C           -1.759224836176     1.370949893827    -0.573605583277    12.000000000000
         C           -2.461390836176    -0.999293106173     0.691612416723    12.000000000000
         C           -3.068795836176     0.897217893827    -0.644408583277    12.000000000000
         C            2.912852163824     1.062494893827     0.415447416723    12.000000000000
         C            1.701855163824    -0.851391106173    -0.436801583277    12.000000000000
         C           -4.862610836176    -0.801188106173    -0.086573583277    12.000000000000
         C            4.116962163824     0.390926893827     0.219285416723    12.000000000000
         C            2.913412163824    -1.521806106173    -0.611164583277    12.000000000000
         C            4.125694163824    -0.912264106173    -0.284477583277    12.000000000000
         H            0.590077163824     2.170355893827     0.049881416723     1.007825032230
         H           -0.422738836176    -1.058659106173     1.393371416723     1.007825032230
         H           -1.483983836176     2.290491893827    -1.088580583277     1.007825032230
         H           -2.726593836176    -1.927545106173     1.196127416723     1.007825032230
         H           -3.807144836176     1.462320893827    -1.211542583277     1.007825032230
         H            2.905951163824     2.067644893827     0.833928416723     1.007825032230
         H            0.770826163824    -1.325818106173    -0.731313583277     1.007825032230
         H           -5.372348836176    -0.429952106173    -0.980318583277     1.007825032230
         H           -4.895282836176    -1.894431106173    -0.108555583277     1.007825032230
         H           -5.438052836176    -0.470743106173     0.785350416723     1.007825032230
         H            5.051164163824     0.882833893827     0.480631416723     1.007825032230
         H            2.904718163824    -2.531077106173    -1.017030583277     1.007825032230
         H            5.064164163824    -1.441599106173    -0.426118583277     1.007825032230

  Basis Set: AUG-CC-PVTZ
    Blend: AUG-CC-PVTZ
  Basis Set: (AUG-CC-PVTZ AUX)
    Blend: AUG-CC-PVTZ-JKFIT
	 Reference Energy          =    -554.4649576441663612 [Eh]
	 Singles Energy            =      -0.0000000000000000 [Eh]
	 Same-Spin Energy          =      -0.6237082732555405 [Eh]
	 Opposite-Spin Energy      =      -1.9539737485341389 [Eh]
	 Correlation Energy        =      -2.5776820217896792 [Eh]
	 Total Energy              =    -557.0426396659560169 [Eh]

	 ================> DF-SCS-MP2 Energies <==================
	-----------------------------------------------------------
	 SCS Same-Spin Scale       =       0.3333333333333333 [-]
	 SCS Opposite-Spin Scale   =       1.2000000000000000 [-]
	 SCS Same-Spin Energy      =      -0.2079027577518468 [Eh]
	 SCS Opposite-Spin Energy  =      -2.3447684982409664 [Eh]
	 SCS Correlation Energy    =      -2.5526712559928133 [Eh]
	 SCS Total Energy          =    -557.0176289001591385 [Eh]
	-----------------------------------------------------------

  Dipole Moment: [D]
     X:    -0.6758      Y:     0.6052      Z:    -0.3157     Total:     0.9605

*** Psi4 exiting successfully. Buy a developer a beer!
