                               Psi4 1.4a3.dev225

  ==> Input File <==

--------------------------------------------------------------------------
#psi4
#
memory 32 gb

molecule  {
0 1
  N        0.5479400     1.1907050     0.2959170
  C       -0.7486070     0.6692540     0.1554050
  C        1.7310100     0.4560470     0.0875670
  C       -3.4043000    -0.2987570    -0.0204040
  C       -1.1184250    -0.5206800     0.8026630
  C       -1.7211190     1.3742660    -0.5666580
  C       -2.4232850    -0.9959770     0.6985600
  C       -3.0306900     0.9005340    -0.6374610
  C        2.9509580     1.0658110     0.4223950
  C        1.7167822    -0.8871785    -0.4473660
  C       -4.8245050    -0.7978720    -0.0796260
  C        4.1550680     0.3942430     0.2262330
  C        2.9515180    -1.5184900    -0.6042170
  C        4.1638000    -0.9089480    -0.2775300
  H        0.6281830     2.1736720     0.0568290
  H       -0.3846330    -1.0553430     1.4003190
  H       -1.4458780     2.2938080    -1.0816330
  H       -2.6884880    -1.9242290     1.2030750
  H       -3.7690390     1.4656370    -1.2045950
  H        2.9440570     2.0709610     0.8408760
  H        0.8089320    -1.3225020    -0.7243660
  H       -5.3342430    -0.4266360    -0.9733710
  H       -4.8571770    -1.8911150    -0.1016080
  H       -5.3999470    -0.4674270     0.7922980
  H        5.0892700     0.8861500     0.4875790
  H        2.9428240    -2.5277610    -1.0100830
  H        5.1022700    -1.4382830    -0.4191710
units angstrom
no_reorient  #important for SAPT in psi4, default
symmetry c1  #important for SAPT in psi4, default
}

set PROPERTIES_ORIGIN ["COM"]
properties('MP2/aug-cc-pvtz', properties = ['dipole'])
--------------------------------------------------------------------------

    Molecular point group: c1
  Charge       = 0
  Multiplicity = 1
  Basis Set: AUG-CC-PVTZ
    Blend: AUG-CC-PVTZ
  Basis Set: (AUG-CC-PVTZ AUX)
    Blend: AUG-CC-PVTZ-JKFIT

    Orbital Energies [Eh]
    ---------------------

    Doubly Occupied:

       1A    -15.577998     2A    -11.287722     3A    -11.277851
       4A    -11.238728     5A    -11.237475     6A    -11.236704
       7A    -11.235326     8A    -11.234720     9A    -11.233119
      10A    -11.230510    11A    -11.227715    12A    -11.227376
      13A    -11.223773    14A    -11.223494    15A     -1.257870
      16A     -1.150656    17A     -1.126695    18A     -1.040685
      19A     -1.016341    20A     -1.011409    21A     -0.986657
      22A     -0.921583    23A     -0.842471    24A     -0.831872
      25A     -0.814429    26A     -0.785941    27A     -0.712894
      28A     -0.703736    29A     -0.673143    30A     -0.640610
      31A     -0.635536    32A     -0.620146    33A     -0.595207
      34A     -0.587572    35A     -0.586270    36A     -0.583499
      37A     -0.573866    38A     -0.545568    39A     -0.530339
      40A     -0.516119    41A     -0.499829    42A     -0.494070
      43A     -0.490841    44A     -0.485304    45A     -0.441726
      46A     -0.340863    47A     -0.336682    48A     -0.329083
      49A     -0.274283

  @DF-RHF Final Energy:  -554.48732106743250

   => Energetics <=

    Nuclear Repulsion Energy =            786.6719218947758918
    One-Electron Energy =               -2310.9658804330224484
    Two-Electron Energy =                 969.8066374708139392
    Total Energy =                       -554.4873210674325037
  Basis Set: (AUG-CC-PVTZ AUX)
    Blend: AUG-CC-PVTZ-RI
    Molecular point group: c1

    Geometry (in Angstrom), charge = 0, multiplicity = 1:

       Center              X                  Y                   Z               Mass
    ------------   -----------------  -----------------  -----------------  -----------------
         N            0.514966313297     1.181526834485     0.293083178909    14.003074004430
         C           -0.781580686703     0.660075834485     0.152571178909    12.000000000000
         C            1.698036313297     0.446868834485     0.084733178909    12.000000000000
         C           -3.437273686703    -0.307935165515    -0.023237821091    12.000000000000
         C           -1.151398686703    -0.529858165515     0.799829178909    12.000000000000
         C           -1.754092686703     1.365087834485    -0.569491821091    12.000000000000
         C           -2.456258686703    -1.005155165515     0.695726178909    12.000000000000
         C           -3.063663686703     0.891355834485    -0.640294821091    12.000000000000
         C            2.917984313297     1.056632834485     0.419561178909    12.000000000000
         C            1.683808513297    -0.896356665515    -0.450199821091    12.000000000000
         C           -4.857478686703    -0.807050165515    -0.082459821091    12.000000000000
         C            4.122094313297     0.385064834485     0.223399178909    12.000000000000
         C            2.918544313297    -1.527668165515    -0.607050821091    12.000000000000
         C            4.130826313297    -0.918126165515    -0.280363821091    12.000000000000
         H            0.595209313297     2.164493834485     0.053995178909     1.007825032230
         H           -0.417606686703    -1.064521165515     1.397485178909     1.007825032230
         H           -1.478851686703     2.284629834485    -1.084466821091     1.007825032230
         H           -2.721461686703    -1.933407165515     1.200241178909     1.007825032230
         H           -3.802012686703     1.456458834485    -1.207428821091     1.007825032230
         H            2.911083313297     2.061782834485     0.838042178909     1.007825032230
         H            0.775958313297    -1.331680165515    -0.727199821091     1.007825032230
         H           -5.367216686703    -0.435814165515    -0.976204821091     1.007825032230
         H           -4.890150686703    -1.900293165515    -0.104441821091     1.007825032230
         H           -5.432920686703    -0.476605165515     0.789464178909     1.007825032230
         H            5.056296313297     0.876971834485     0.484745178909     1.007825032230
         H            2.909850313297    -2.536939165515    -1.012916821091     1.007825032230
         H            5.069296313297    -1.447461165515    -0.422004821091     1.007825032230

  Basis Set: AUG-CC-PVTZ
    Blend: AUG-CC-PVTZ
  Basis Set: (AUG-CC-PVTZ AUX)
    Blend: AUG-CC-PVTZ-JKFIT
	 Reference Energy          =    -554.4873210674325037 [Eh]
	 Singles Energy            =      -0.0000000000000000 [Eh]
	 Same-Spin Energy          =      -0.6238803878920587 [Eh]
	 Opposite-Spin Energy      =      -1.9529776322351227 [Eh]
	 Correlation Energy        =      -2.5768580201271813 [Eh]
	 Total Energy              =    -557.0641790875596371 [Eh]

	 ================> DF-SCS-MP2 Energies <==================
	-----------------------------------------------------------
	 SCS Same-Spin Scale       =       0.3333333333333333 [-]
	 SCS Opposite-Spin Scale   =       1.2000000000000000 [-]
	 SCS Same-Spin Energy      =      -0.2079601292973529 [Eh]
	 SCS Opposite-Spin Energy  =      -2.3435731586821471 [Eh]
	 SCS Correlation Energy    =      -2.5515332879794999 [Eh]
	 SCS Total Energy          =    -557.0388543554120133 [Eh]
	-----------------------------------------------------------

  Dipole Moment: [D]
     X:    -0.6950      Y:     0.6088      Z:    -0.3306     Total:     0.9813

*** Psi4 exiting successfully. Buy a developer a beer!
