                               Psi4 1.4a3.dev225

  ==> Input File <==

--------------------------------------------------------------------------
#psi4
#
memory 32 gb

molecule  {
0 1
  N        0.5479400     1.1907050     0.2959170
  C       -0.7486070     0.6692540     0.1554050
  C        1.7310100     0.4560470     0.0875670
  C       -3.4043000    -0.2987570    -0.0204040
  C       -1.1184250    -0.5206800     0.8026630
  C       -1.7211190     1.3742660    -0.5666580
  C       -2.4232850    -0.9959770     0.6985600
  C       -3.0306900     0.9005340    -0.6374610
  C        2.9509580     1.0658110     0.4223950
  C        1.7399610    -0.8480750    -0.4298540
  C       -4.8245050    -0.7978720    -0.0796260
  C        4.1550680     0.3942430     0.2262330
  C        2.9515180    -1.5184900    -0.6042170
  C        4.1638000    -0.9089480    -0.2775300
  H        0.6266016     2.1542994     0.0615410
  H       -0.3846330    -1.0553430     1.4003190
  H       -1.4458780     2.2938080    -1.0816330
  H       -2.6884880    -1.9242290     1.2030750
  H       -3.7690390     1.4656370    -1.2045950
  H        2.9440570     2.0709610     0.8408760
  H        0.8089320    -1.3225020    -0.7243660
  H       -5.3342430    -0.4266360    -0.9733710
  H       -4.8571770    -1.8911150    -0.1016080
  H       -5.3999470    -0.4674270     0.7922980
  H        5.0892700     0.8861500     0.4875790
  H        2.9428240    -2.5277610    -1.0100830
  H        5.1022700    -1.4382830    -0.4191710
units angstrom
no_reorient  #important for SAPT in psi4, default
symmetry c1  #important for SAPT in psi4, default
}

set PROPERTIES_ORIGIN ["COM"]
properties('MP2/aug-cc-pvtz', properties = ['dipole'])
--------------------------------------------------------------------------

    Molecular point group: c1
  Charge       = 0
  Multiplicity = 1
  Basis Set: AUG-CC-PVTZ
    Blend: AUG-CC-PVTZ
  Basis Set: (AUG-CC-PVTZ AUX)
    Blend: AUG-CC-PVTZ-JKFIT

    Orbital Energies [Eh]
    ---------------------

    Doubly Occupied:

       1A    -15.575342     2A    -11.282620     3A    -11.277350
       4A    -11.237928     5A    -11.237210     6A    -11.236283
       7A    -11.234901     8A    -11.234279     9A    -11.232687
      10A    -11.230056    11A    -11.228676    12A    -11.226085
      13A    -11.224505    14A    -11.223205    15A     -1.260184
      16A     -1.151945    17A     -1.128740    18A     -1.040876
      19A     -1.016006    20A     -1.010766    21A     -0.990087
      22A     -0.921960    23A     -0.843244    24A     -0.829794
      25A     -0.816901    26A     -0.786123    27A     -0.713463
      28A     -0.706766    29A     -0.668810    30A     -0.640408
      31A     -0.635386    32A     -0.619276    33A     -0.598112
      34A     -0.588438    35A     -0.585240    36A     -0.582397
      37A     -0.573380    38A     -0.545731    39A     -0.530716
      40A     -0.513384    41A     -0.501356    42A     -0.494929
      43A     -0.489807    44A     -0.486085    45A     -0.442042
      46A     -0.340328    47A     -0.335764    48A     -0.331076
      49A     -0.275944

  @DF-RHF Final Energy:  -554.49135201015770

   => Energetics <=

    Nuclear Repulsion Energy =            787.4672341608210218
    One-Electron Energy =               -2312.5639926515013940
    Two-Electron Energy =                 970.6054064805225607
    Total Energy =                       -554.4913520101576978
  Basis Set: (AUG-CC-PVTZ AUX)
    Blend: AUG-CC-PVTZ-RI
    Molecular point group: c1

    Geometry (in Angstrom), charge = 0, multiplicity = 1:

       Center              X                  Y                   Z               Mass
    ------------   -----------------  -----------------  -----------------  -----------------
         N            0.513455966073     1.179070766648     0.291909573017    14.003074004430
         C           -0.783091033927     0.657619766648     0.151397573017    12.000000000000
         C            1.696525966073     0.444412766648     0.083559573017    12.000000000000
         C           -3.438784033927    -0.310391233352    -0.024411426983    12.000000000000
         C           -1.152909033927    -0.532314233352     0.798655573017    12.000000000000
         C           -1.755603033927     1.362631766648    -0.570665426983    12.000000000000
         C           -2.457769033927    -1.007611233352     0.694552573017    12.000000000000
         C           -3.065174033927     0.888899766648    -0.641468426983    12.000000000000
         C            2.916473966073     1.054176766648     0.418387573017    12.000000000000
         C            1.705476966073    -0.859709233352    -0.433861426983    12.000000000000
         C           -4.858989033927    -0.809506233352    -0.083633426983    12.000000000000
         C            4.120583966073     0.382608766648     0.222225573017    12.000000000000
         C            2.917033966073    -1.530124233352    -0.608224426983    12.000000000000
         C            4.129315966073    -0.920582233352    -0.281537426983    12.000000000000
         H            0.592117566073     2.142665166648     0.057533573017     1.007825032230
         H           -0.419117033927    -1.066977233352     1.396311573017     1.007825032230
         H           -1.480362033927     2.282173766648    -1.085640426983     1.007825032230
         H           -2.722972033927    -1.935863233352     1.199067573017     1.007825032230
         H           -3.803523033927     1.454002766648    -1.208602426983     1.007825032230
         H            2.909572966073     2.059326766648     0.836868573017     1.007825032230
         H            0.774447966073    -1.334136233352    -0.728373426983     1.007825032230
         H           -5.368727033927    -0.438270233352    -0.977378426983     1.007825032230
         H           -4.891661033927    -1.902749233352    -0.105615426983     1.007825032230
         H           -5.434431033927    -0.479061233352     0.788290573017     1.007825032230
         H            5.054785966073     0.874515766648     0.483571573017     1.007825032230
         H            2.908339966073    -2.539395233352    -1.014090426983     1.007825032230
         H            5.067785966073    -1.449917233352    -0.423178426983     1.007825032230

  Basis Set: AUG-CC-PVTZ
    Blend: AUG-CC-PVTZ
  Basis Set: (AUG-CC-PVTZ AUX)
    Blend: AUG-CC-PVTZ-JKFIT
	 Reference Energy          =    -554.4913520101576978 [Eh]
	 Singles Energy            =      -0.0000000000000000 [Eh]
	 Same-Spin Energy          =      -0.6237480390299257 [Eh]
	 Opposite-Spin Energy      =      -1.9522655510940365 [Eh]
	 Correlation Energy        =      -2.5760135901239622 [Eh]
	 Total Energy              =    -557.0673656002816188 [Eh]

	 ================> DF-SCS-MP2 Energies <==================
	-----------------------------------------------------------
	 SCS Same-Spin Scale       =       0.3333333333333333 [-]
	 SCS Opposite-Spin Scale   =       1.2000000000000000 [-]
	 SCS Same-Spin Energy      =      -0.2079160130099752 [Eh]
	 SCS Opposite-Spin Energy  =      -2.3427186613128437 [Eh]
	 SCS Correlation Energy    =      -2.5506346743228190 [Eh]
	 SCS Total Energy          =    -557.0419866844805483 [Eh]
	-----------------------------------------------------------

  Dipole Moment: [D]
     X:    -0.6353      Y:     0.5639      Z:    -0.3386     Total:     0.9145

*** Psi4 exiting successfully. Buy a developer a beer!
