                               Psi4 1.4a3.dev225

  ==> Input File <==

--------------------------------------------------------------------------
#psi4
#
memory 32 gb

molecule  {
0 1
  N        0.5479400     1.1907050     0.2959170
  C       -0.7486070     0.6692540     0.1554050
  C        1.7310100     0.4560470     0.0875670
  C       -3.4043000    -0.2987570    -0.0204040
  C       -1.1184250    -0.5206800     0.8026630
  C       -1.7211190     1.3742660    -0.5666580
  C       -2.4232850    -0.9959770     0.6985600
  C       -3.0306900     0.9005340    -0.6374610
  C        2.9509580     1.0658110     0.4223950
  C        1.7402800    -0.8945497    -0.4482932
  C       -4.8245050    -0.7978720    -0.0796260
  C        4.1550680     0.3942430     0.2262330
  C        2.9515180    -1.5184900    -0.6042170
  C        4.1638000    -0.9089480    -0.2775300
  H        0.6281830     2.1736720     0.0568290
  H       -0.3846330    -1.0553430     1.4003190
  H       -1.4458780     2.2938080    -1.0816330
  H       -2.6884880    -1.9242290     1.2030750
  H       -3.7690390     1.4656370    -1.2045950
  H        2.9440570     2.0709610     0.8408760
  H        0.8089320    -1.3225020    -0.7243660
  H       -5.3342430    -0.4266360    -0.9733710
  H       -4.8571770    -1.8911150    -0.1016080
  H       -5.3999470    -0.4674270     0.7922980
  H        5.0892700     0.8861500     0.4875790
  H        2.9428240    -2.5277610    -1.0100830
  H        5.1022700    -1.4382830    -0.4191710
units angstrom
no_reorient  #important for SAPT in psi4, default
symmetry c1  #important for SAPT in psi4, default
}

set PROPERTIES_ORIGIN ["COM"]
properties('MP2/aug-cc-pvtz', properties = ['dipole'])
--------------------------------------------------------------------------

    Molecular point group: c1
  Charge       = 0
  Multiplicity = 1
  Basis Set: AUG-CC-PVTZ
    Blend: AUG-CC-PVTZ
  Basis Set: (AUG-CC-PVTZ AUX)
    Blend: AUG-CC-PVTZ-JKFIT

    Orbital Energies [Eh]
    ---------------------

    Doubly Occupied:

       1A    -15.579002     2A    -11.288081     3A    -11.278137
       4A    -11.237971     5A    -11.236928     6A    -11.235549
       7A    -11.234936     8A    -11.234394     9A    -11.233360
      10A    -11.230786    11A    -11.227174    12A    -11.227009
      13A    -11.223642    14A    -11.223228    15A     -1.258038
      16A     -1.151173    17A     -1.128075    18A     -1.041041
      19A     -1.017001    20A     -1.012902    21A     -0.985880
      22A     -0.921640    23A     -0.842497    24A     -0.830911
      25A     -0.814596    26A     -0.786281    27A     -0.712857
      28A     -0.704287    29A     -0.671934    30A     -0.640802
      31A     -0.635049    32A     -0.620409    33A     -0.592866
      34A     -0.589130    35A     -0.586554    36A     -0.583715
      37A     -0.573993    38A     -0.545887    39A     -0.530595
      40A     -0.516821    41A     -0.500524    42A     -0.494646
      43A     -0.488938    44A     -0.484441    45A     -0.442240
      46A     -0.342175    47A     -0.338204    48A     -0.328469
      49A     -0.273800

  @DF-RHF Final Energy:  -554.48767855295171

   => Energetics <=

    Nuclear Repulsion Energy =            786.6791791764666186
    One-Electron Energy =               -2310.9765746032571769
    Two-Electron Energy =                 969.8097168738387381
    Total Energy =                       -554.4876785529517065
  Basis Set: (AUG-CC-PVTZ AUX)
    Blend: AUG-CC-PVTZ-RI
    Molecular point group: c1

    Geometry (in Angstrom), charge = 0, multiplicity = 1:

       Center              X                  Y                   Z               Mass
    ------------   -----------------  -----------------  -----------------  -----------------
         N            0.513426355847     1.182009915214     0.293143944110    14.003074004430
         C           -0.783120644153     0.660558915214     0.152631944110    12.000000000000
         C            1.696496355847     0.447351915214     0.084793944110    12.000000000000
         C           -3.438813644153    -0.307452084786    -0.023177055890    12.000000000000
         C           -1.152938644153    -0.529375084786     0.799889944110    12.000000000000
         C           -1.755632644153     1.365570915214    -0.569431055890    12.000000000000
         C           -2.457798644153    -1.004672084786     0.695786944110    12.000000000000
         C           -3.065203644153     0.891838915214    -0.640234055890    12.000000000000
         C            2.916444355847     1.057115915214     0.419621944110    12.000000000000
         C            1.705766355847    -0.903244784786    -0.451066255890    12.000000000000
         C           -4.859018644153    -0.806567084786    -0.082399055890    12.000000000000
         C            4.120554355847     0.385547915214     0.223459944110    12.000000000000
         C            2.917004355847    -1.527185084786    -0.606990055890    12.000000000000
         C            4.129286355847    -0.917643084786    -0.280303055890    12.000000000000
         H            0.593669355847     2.164976915214     0.054055944110     1.007825032230
         H           -0.419146644153    -1.064038084786     1.397545944110     1.007825032230
         H           -1.480391644153     2.285112915214    -1.084406055890     1.007825032230
         H           -2.723001644153    -1.932924084786     1.200301944110     1.007825032230
         H           -3.803552644153     1.456941915214    -1.207368055890     1.007825032230
         H            2.909543355847     2.062265915214     0.838102944110     1.007825032230
         H            0.774418355847    -1.331197084786    -0.727139055890     1.007825032230
         H           -5.368756644153    -0.435331084786    -0.976144055890     1.007825032230
         H           -4.891690644153    -1.899810084786    -0.104381055890     1.007825032230
         H           -5.434460644153    -0.476122084786     0.789524944110     1.007825032230
         H            5.054756355847     0.877454915214     0.484805944110     1.007825032230
         H            2.908310355847    -2.536456084786    -1.012856055890     1.007825032230
         H            5.067756355847    -1.446978084786    -0.421944055890     1.007825032230

  Basis Set: AUG-CC-PVTZ
    Blend: AUG-CC-PVTZ
  Basis Set: (AUG-CC-PVTZ AUX)
    Blend: AUG-CC-PVTZ-JKFIT
	 Reference Energy          =    -554.4876785529517065 [Eh]
	 Singles Energy            =      -0.0000000000000000 [Eh]
	 Same-Spin Energy          =      -0.6238477587743818 [Eh]
	 Opposite-Spin Energy      =      -1.9528203856823252 [Eh]
	 Correlation Energy        =      -2.5766681444567068 [Eh]
	 Total Energy              =    -557.0643466974083822 [Eh]

	 ================> DF-SCS-MP2 Energies <==================
	-----------------------------------------------------------
	 SCS Same-Spin Scale       =       0.3333333333333333 [-]
	 SCS Opposite-Spin Scale   =       1.2000000000000000 [-]
	 SCS Same-Spin Energy      =      -0.2079492529247939 [Eh]
	 SCS Opposite-Spin Energy  =      -2.3433844628187903 [Eh]
	 SCS Correlation Energy    =      -2.5513337157435840 [Eh]
	 SCS Total Energy          =    -557.0390122686952736 [Eh]
	-----------------------------------------------------------

  Dipole Moment: [D]
     X:    -0.7323      Y:     0.6097      Z:    -0.3313     Total:     1.0088

*** Psi4 exiting successfully. Buy a developer a beer!
