                               Psi4 1.4a3.dev225

  ==> Input File <==

--------------------------------------------------------------------------
#psi4
#
memory 32 gb

molecule  {
0 1
  N        0.5479400     1.1907050     0.2959170
  C       -0.7486070     0.6692540     0.1554050
  C        1.7310100     0.4560470     0.0875670
  C       -3.4043000    -0.2987570    -0.0204040
  C       -1.0920876    -0.4359362     0.7565671
  C       -1.7211190     1.3742660    -0.5666580
  C       -2.4232850    -0.9959770     0.6985600
  C       -3.0306900     0.9005340    -0.6374610
  C        2.9509580     1.0658110     0.4223950
  C        1.7399610    -0.8480750    -0.4298540
  C       -4.8245050    -0.7978720    -0.0796260
  C        4.1550680     0.3942430     0.2262330
  C        2.9515180    -1.5184900    -0.6042170
  C        4.1638000    -0.9089480    -0.2775300
  H        0.6281830     2.1736720     0.0568290
  H       -0.3846330    -1.0553430     1.4003190
  H       -1.4458780     2.2938080    -1.0816330
  H       -2.6884880    -1.9242290     1.2030750
  H       -3.7690390     1.4656370    -1.2045950
  H        2.9440570     2.0709610     0.8408760
  H        0.8089320    -1.3225020    -0.7243660
  H       -5.3342430    -0.4266360    -0.9733710
  H       -4.8571770    -1.8911150    -0.1016080
  H       -5.3999470    -0.4674270     0.7922980
  H        5.0892700     0.8861500     0.4875790
  H        2.9428240    -2.5277610    -1.0100830
  H        5.1022700    -1.4382830    -0.4191710
units angstrom
no_reorient  #important for SAPT in psi4, default
symmetry c1  #important for SAPT in psi4, default
}

set PROPERTIES_ORIGIN ["COM"]
properties('MP2/aug-cc-pvtz', properties = ['dipole'])
--------------------------------------------------------------------------

    Molecular point group: c1
  Charge       = 0
  Multiplicity = 1
  Basis Set: AUG-CC-PVTZ
    Blend: AUG-CC-PVTZ
  Basis Set: (AUG-CC-PVTZ AUX)
    Blend: AUG-CC-PVTZ-JKFIT

    Orbital Energies [Eh]
    ---------------------

    Doubly Occupied:

       1A    -15.574181     2A    -11.281457     3A    -11.264526
       4A    -11.239441     5A    -11.237666     6A    -11.236724
       7A    -11.236371     8A    -11.236015     9A    -11.235173
      10A    -11.227215    11A    -11.226991    12A    -11.224695
      13A    -11.224066    14A    -11.223127    15A     -1.259742
      16A     -1.155341    17A     -1.127340    18A     -1.048602
      19A     -1.012710    20A     -1.007370    21A     -0.989033
      22A     -0.926354    23A     -0.847234    24A     -0.828620
      25A     -0.817311    26A     -0.780029    27A     -0.713279
      28A     -0.704792    29A     -0.667644    30A     -0.637738
      31A     -0.633963    32A     -0.619638    33A     -0.596961
      34A     -0.594836    35A     -0.583018    36A     -0.574868
      37A     -0.572635    38A     -0.547984    39A     -0.532587
      40A     -0.511087    41A     -0.501990    42A     -0.498655
      43A     -0.489765    44A     -0.478210    45A     -0.440880
      46A     -0.341547    47A     -0.336001    48A     -0.327774
      49A     -0.280154

  @DF-RHF Final Energy:  -554.47792497609908

   => Energetics <=

    Nuclear Repulsion Energy =            788.7771288484062779
    One-Electron Energy =               -2315.2034214441932818
    Two-Electron Energy =                 971.9483676196878150
    Total Energy =                       -554.4779249760990751
  Basis Set: (AUG-CC-PVTZ AUX)
    Blend: AUG-CC-PVTZ-RI
    Molecular point group: c1

    Geometry (in Angstrom), charge = 0, multiplicity = 1:

       Center              X                  Y                   Z               Mass
    ------------   -----------------  -----------------  -----------------  -----------------
         N            0.511721207752     1.173410348163     0.294956460227    14.003074004430
         C           -0.784825792248     0.651959348163     0.154444460227    12.000000000000
         C            1.694791207752     0.438752348163     0.086606460227    12.000000000000
         C           -3.440518792248    -0.316051651837    -0.021364539773    12.000000000000
         C           -1.128306392248    -0.453230851837     0.755606560227    12.000000000000
         C           -1.757337792248     1.356971348163    -0.567618539773    12.000000000000
         C           -2.459503792248    -1.013271651837     0.697599460227    12.000000000000
         C           -3.066908792248     0.883239348163    -0.638421539773    12.000000000000
         C            2.914739207752     1.048516348163     0.421434460227    12.000000000000
         C            1.703742207752    -0.865369651837    -0.430814539773    12.000000000000
         C           -4.860723792248    -0.815166651837    -0.080586539773    12.000000000000
         C            4.118849207752     0.376948348163     0.225272460227    12.000000000000
         C            2.915299207752    -1.535784651837    -0.605177539773    12.000000000000
         C            4.127581207752    -0.926242651837    -0.278490539773    12.000000000000
         H            0.591964207752     2.156377348163     0.055868460227     1.007825032230
         H           -0.420851792248    -1.072637651837     1.399358460227     1.007825032230
         H           -1.482096792248     2.276513348163    -1.082593539773     1.007825032230
         H           -2.724706792248    -1.941523651837     1.202114460227     1.007825032230
         H           -3.805257792248     1.448342348163    -1.205555539773     1.007825032230
         H            2.907838207752     2.053666348163     0.839915460227     1.007825032230
         H            0.772713207752    -1.339796651837    -0.725326539773     1.007825032230
         H           -5.370461792248    -0.443930651837    -0.974331539773     1.007825032230
         H           -4.893395792248    -1.908409651837    -0.102568539773     1.007825032230
         H           -5.436165792248    -0.484721651837     0.791337460227     1.007825032230
         H            5.053051207752     0.868855348163     0.486618460227     1.007825032230
         H            2.906605207752    -2.545055651837    -1.011043539773     1.007825032230
         H            5.066051207752    -1.455577651837    -0.420131539773     1.007825032230

  Basis Set: AUG-CC-PVTZ
    Blend: AUG-CC-PVTZ
  Basis Set: (AUG-CC-PVTZ AUX)
    Blend: AUG-CC-PVTZ-JKFIT
	 Reference Energy          =    -554.4779249760990751 [Eh]
	 Singles Energy            =      -0.0000000000000000 [Eh]
	 Same-Spin Energy          =      -0.6238337146963612 [Eh]
	 Opposite-Spin Energy      =      -1.9529406370290978 [Eh]
	 Correlation Energy        =      -2.5767743517254589 [Eh]
	 Total Energy              =    -557.0546993278245509 [Eh]

	 ================> DF-SCS-MP2 Energies <==================
	-----------------------------------------------------------
	 SCS Same-Spin Scale       =       0.3333333333333333 [-]
	 SCS Opposite-Spin Scale   =       1.2000000000000000 [-]
	 SCS Same-Spin Energy      =      -0.2079445715654537 [Eh]
	 SCS Opposite-Spin Energy  =      -2.3435287644349172 [Eh]
	 SCS Correlation Energy    =      -2.5514733360003707 [Eh]
	 SCS Total Energy          =    -557.0293983120994881 [Eh]
	-----------------------------------------------------------

  Dipole Moment: [D]
     X:    -0.8377      Y:     0.5504      Z:    -0.3517     Total:     1.0623

*** Psi4 exiting successfully. Buy a developer a beer!
