                               Psi4 1.3.2 release

  ==> Input File <==

--------------------------------------------------------------------------
#psi4
#
memory 32 gb

molecule  {
-1 1
  O        0.6232130    -0.7170940    -0.0000140
  O       -0.2658470     1.3958930    -0.0000020
  O        1.9606930    -0.1412830     0.0000110
  C       -1.7044267    -0.5379698     0.3000040
  C       -0.3632540     0.1675050    -0.0000040
  H       -1.5968530    -1.6227110     0.0000310
  H       -2.2707620    -0.2273260    -0.8817580
  H       -2.2707590    -0.2273030     0.8817680
units angstrom
no_reorient  #important for SAPT in psi4, default
symmetry c1  #important for SAPT in psi4, default
}

set PROPERTIES_ORIGIN ["COM"]
properties('MP2/aug-cc-pvtz', properties = ['dipole'])
--------------------------------------------------------------------------

    Molecular point group: c1
  Charge       = -1
  Multiplicity = 1
  Basis Set: AUG-CC-PVTZ
    Blend: AUG-CC-PVTZ
  Basis Set: (AUG-CC-PVTZ AUX)
    Blend: AUG-CC-PVTZ-JKFIT

    Orbital Energies [Eh]
    ---------------------

    Doubly Occupied:

       1A    -20.408531     2A    -20.345261     3A    -20.299801
       4A    -11.193935     5A    -11.100912     6A     -1.252018
       7A     -1.155359     8A     -0.928482     9A     -0.841727
      10A     -0.585927    11A     -0.516318    12A     -0.480396
      13A     -0.447142    14A     -0.417086    15A     -0.345564
      16A     -0.307380    17A     -0.278877    18A     -0.251342
      19A     -0.189321    20A     -0.163943

  @DF-RHF Final Energy:  -301.99763935567148

   => Energetics <=

    Nuclear Repulsion Energy =            167.7322558613321348
    One-Electron Energy =                -756.4411460551938262
    Two-Electron Energy =                 286.7112508381901534
    Total Energy =                       -301.9976393556714811
  Basis Set: (AUG-CC-PVTZ AUX)
    Blend: AUG-CC-PVTZ-RI
    Molecular point group: c1

    Geometry (in Angstrom), charge = -1, multiplicity = 1:

       Center              X                  Y                   Z               Mass
    ------------   -----------------  -----------------  -----------------  -----------------
         O            0.542174141880    -0.744535655099    -0.048008225118    15.994914619570
         O           -0.346885858120     1.368451344901    -0.047996225118    15.994914619570
         O            1.879654141880    -0.168724655099    -0.047983225118    15.994914619570
         C           -1.785465558120    -0.565411455099     0.252009774882    12.000000000000
         C           -0.444292858120     0.140063344901    -0.047998225118    12.000000000000
         H           -1.677891858120    -1.650152655099    -0.047963225118     1.007825032230
         H           -2.351800858120    -0.254767655099    -0.929752225118     1.007825032230
         H           -2.351797858120    -0.254744655099     0.833773774882     1.007825032230

  Basis Set: AUG-CC-PVTZ
    Blend: AUG-CC-PVTZ
  Basis Set: (AUG-CC-PVTZ AUX)
    Blend: AUG-CC-PVTZ-JKFIT
	 Reference Energy          =    -301.9976393556714811 [Eh]
	 Singles Energy            =      -0.0000000000000000 [Eh]
	 Same-Spin Energy          =      -0.2878633734132607 [Eh]
	 Opposite-Spin Energy      =      -0.8680682068690794 [Eh]
	 Correlation Energy        =      -1.1559315802823402 [Eh]
	 Total Energy              =    -303.1535709359538373 [Eh]

	 ================> DF-SCS-MP2 Energies <==================
	-----------------------------------------------------------
	 SCS Same-Spin Scale       =       0.3333333333333333 [-]
	 SCS Opposite-Spin Scale   =       1.2000000000000000 [-]
	 SCS Same-Spin Energy      =      -0.0959544578044202 [Eh]
	 SCS Opposite-Spin Energy  =      -1.0416818482428951 [Eh]
	 SCS Correlation Energy    =      -1.1376363060473154 [Eh]
	 SCS Total Energy          =    -303.1352756617188220 [Eh]
	-----------------------------------------------------------

  Dipole Moment: [D]
     X:    -6.0438      Y:    -1.6508      Z:     0.3899     Total:     6.2774

*** Psi4 exiting successfully. Buy a developer a beer!
