                               Psi4 1.3.2 release

  ==> Input File <==

--------------------------------------------------------------------------
#psi4
#
memory 32 gb

molecule  {
-1 1
  O        0.6232130    -0.7170940    -0.0000140
  O       -0.2658470     1.3958930    -0.0000020
  O        1.9606930    -0.1412830     0.0000110
  C       -1.7044286    -0.5379691     0.0500040
  C       -0.3632540     0.1675050    -0.0000040
  H       -1.5968530    -1.6227110     0.0000310
  H       -2.2707620    -0.2273260    -0.8817580
  H       -2.2707590    -0.2273030     0.8817680
units angstrom
no_reorient  #important for SAPT in psi4, default
symmetry c1  #important for SAPT in psi4, default
}

set PROPERTIES_ORIGIN ["COM"]
properties('MP2/aug-cc-pvtz', properties = ['dipole'])
--------------------------------------------------------------------------

    Molecular point group: c1
  Charge       = -1
  Multiplicity = 1
  Basis Set: AUG-CC-PVTZ
    Blend: AUG-CC-PVTZ
  Basis Set: (AUG-CC-PVTZ AUX)
    Blend: AUG-CC-PVTZ-JKFIT

    Orbital Energies [Eh]
    ---------------------

    Doubly Occupied:

       1A    -20.406392     2A    -20.343427     3A    -20.296986
       4A    -11.186113     5A    -11.088616     6A     -1.249937
       7A     -1.153334     8A     -0.926978     9A     -0.830306
      10A     -0.567679    11A     -0.485125    12A     -0.472012
      13A     -0.457702    14A     -0.411755    15A     -0.385949
      16A     -0.310313    17A     -0.285646    18A     -0.251362
      19A     -0.186672    20A     -0.161808

  @DF-RHF Final Energy:  -302.08872690235370

   => Energetics <=

    Nuclear Repulsion Energy =            168.0582453021920628
    One-Electron Energy =                -757.3777215815603086
    Two-Electron Energy =                 287.2307493770145470
    Total Energy =                       -302.0887269023536987
  Basis Set: (AUG-CC-PVTZ AUX)
    Blend: AUG-CC-PVTZ-RI
    Molecular point group: c1

    Geometry (in Angstrom), charge = -1, multiplicity = 1:

       Center              X                  Y                   Z               Mass
    ------------   -----------------  -----------------  -----------------  -----------------
         O            0.542174445847    -0.744535767087    -0.008012608081    15.994914619570
         O           -0.346885554153     1.368451232913    -0.008000608081    15.994914619570
         O            1.879654445847    -0.168724767087    -0.007987608081    15.994914619570
         C           -1.785467154153    -0.565410867087     0.042005391919    12.000000000000
         C           -0.444292554153     0.140063232913    -0.008002608081    12.000000000000
         H           -1.677891554153    -1.650152767087    -0.007967608081     1.007825032230
         H           -2.351800554153    -0.254767767087    -0.889756608081     1.007825032230
         H           -2.351797554153    -0.254744767087     0.873769391919     1.007825032230

  Basis Set: AUG-CC-PVTZ
    Blend: AUG-CC-PVTZ
  Basis Set: (AUG-CC-PVTZ AUX)
    Blend: AUG-CC-PVTZ-JKFIT
	 Reference Energy          =    -302.0887269023536987 [Eh]
	 Singles Energy            =      -0.0000000000000000 [Eh]
	 Same-Spin Energy          =      -0.2869848386158740 [Eh]
	 Opposite-Spin Energy      =      -0.8645084416691262 [Eh]
	 Correlation Energy        =      -1.1514932802850002 [Eh]
	 Total Energy              =    -303.2402201826387227 [Eh]

	 ================> DF-SCS-MP2 Energies <==================
	-----------------------------------------------------------
	 SCS Same-Spin Scale       =       0.3333333333333333 [-]
	 SCS Opposite-Spin Scale   =       1.2000000000000000 [-]
	 SCS Same-Spin Energy      =      -0.0956616128719580 [Eh]
	 SCS Opposite-Spin Energy  =      -1.0374101300029515 [Eh]
	 SCS Correlation Energy    =      -1.1330717428749095 [Eh]
	 SCS Total Energy          =    -303.2217986452286027 [Eh]
	-----------------------------------------------------------

  Dipole Moment: [D]
     X:    -6.2469      Y:    -1.6901      Z:     0.0700     Total:     6.4719

*** Psi4 exiting successfully. Buy a developer a beer!
