                               Psi4 1.3.2 release

  ==> Input File <==

--------------------------------------------------------------------------
#psi4
#
memory 32 gb

molecule  {
-1 1
  O        0.6232130    -0.7170940    -0.0000140
  O       -0.2658470     1.3958930    -0.0000020
  O        1.9606930    -0.1412830     0.0000110
  C       -1.7044279    -0.5379694     0.1500040
  C       -0.3632540     0.1675050    -0.0000040
  H       -1.5968530    -1.6227110     0.0000310
  H       -2.2707620    -0.2273260    -0.8817580
  H       -2.2707590    -0.2273030     0.8817680
units angstrom
no_reorient  #important for SAPT in psi4, default
symmetry c1  #important for SAPT in psi4, default
}

set PROPERTIES_ORIGIN ["COM"]
properties('MP2/aug-cc-pvtz', properties = ['dipole'])
--------------------------------------------------------------------------

    Molecular point group: c1
  Charge       = -1
  Multiplicity = 1
  Basis Set: AUG-CC-PVTZ
    Blend: AUG-CC-PVTZ
  Basis Set: (AUG-CC-PVTZ AUX)
    Blend: AUG-CC-PVTZ-JKFIT

    Orbital Energies [Eh]
    ---------------------

    Doubly Occupied:

       1A    -20.406899     2A    -20.343843     3A    -20.297648
       4A    -11.187948     5A    -11.091461     6A     -1.250428
       7A     -1.153805     8A     -0.927326     9A     -0.832773
      10A     -0.571257    11A     -0.492603    12A     -0.483200
      13A     -0.450547    14A     -0.415254    15A     -0.370260
      16A     -0.309695    17A     -0.284600    18A     -0.251373
      19A     -0.187297    20A     -0.162314

  @DF-RHF Final Energy:  -302.06839399836133

   => Energetics <=

    Nuclear Repulsion Energy =            167.9826350606364826
    One-Electron Energy =                -757.1609965997521385
    Two-Electron Energy =                 287.1099675407543828
    Total Energy =                       -302.0683939983613300
  Basis Set: (AUG-CC-PVTZ AUX)
    Blend: AUG-CC-PVTZ-RI
    Molecular point group: c1

    Geometry (in Angstrom), charge = -1, multiplicity = 1:

       Center              X                  Y                   Z               Mass
    ------------   -----------------  -----------------  -----------------  -----------------
         O            0.542174333859    -0.744535719092    -0.024010854896    15.994914619570
         O           -0.346885666141     1.368451280908    -0.023998854896    15.994914619570
         O            1.879654333859    -0.168724719092    -0.023985854896    15.994914619570
         C           -1.785466566141    -0.565411119092     0.126007145104    12.000000000000
         C           -0.444292666141     0.140063280908    -0.024000854896    12.000000000000
         H           -1.677891666141    -1.650152719092    -0.023965854896     1.007825032230
         H           -2.351800666141    -0.254767719092    -0.905754854896     1.007825032230
         H           -2.351797666141    -0.254744719092     0.857771145104     1.007825032230

  Basis Set: AUG-CC-PVTZ
    Blend: AUG-CC-PVTZ
  Basis Set: (AUG-CC-PVTZ AUX)
    Blend: AUG-CC-PVTZ-JKFIT
	 Reference Energy          =    -302.0683939983613300 [Eh]
	 Singles Energy            =      -0.0000000000000000 [Eh]
	 Same-Spin Energy          =      -0.2871793062220638 [Eh]
	 Opposite-Spin Energy      =      -0.8652905751840916 [Eh]
	 Correlation Energy        =      -1.1524698814061554 [Eh]
	 Total Energy              =    -303.2208638797674780 [Eh]

	 ================> DF-SCS-MP2 Energies <==================
	-----------------------------------------------------------
	 SCS Same-Spin Scale       =       0.3333333333333333 [-]
	 SCS Opposite-Spin Scale   =       1.2000000000000000 [-]
	 SCS Same-Spin Energy      =      -0.0957264354073546 [Eh]
	 SCS Opposite-Spin Energy  =      -1.0383486902209098 [Eh]
	 SCS Correlation Energy    =      -1.1340751256282644 [Eh]
	 SCS Total Energy          =    -303.2024691239896015 [Eh]
	-----------------------------------------------------------

  Dipole Moment: [D]
     X:    -6.1972      Y:    -1.6829      Z:     0.2069     Total:     6.4250

*** Psi4 exiting successfully. Buy a developer a beer!
