                               Psi4 1.3.2 release

  ==> Input File <==

--------------------------------------------------------------------------
#psi4
#
memory 32 gb

molecule  {
-1 1
  O        0.6232130    -0.7170940    -0.0000140
  O       -0.2658470     1.3958930    -0.0000020
  O        1.9606930    -0.1412830     0.0000110
  C       -1.7044275    -0.5379695     0.2000040
  C       -0.3632540     0.1675050    -0.0000040
  H       -1.5968530    -1.6227110     0.0000310
  H       -2.2707620    -0.2273260    -0.8817580
  H       -2.2707590    -0.2273030     0.8817680
units angstrom
no_reorient  #important for SAPT in psi4, default
symmetry c1  #important for SAPT in psi4, default
}

set PROPERTIES_ORIGIN ["COM"]
properties('MP2/aug-cc-pvtz', properties = ['dipole'])
--------------------------------------------------------------------------

    Molecular point group: c1
  Charge       = -1
  Multiplicity = 1
  Basis Set: AUG-CC-PVTZ
    Blend: AUG-CC-PVTZ
  Basis Set: (AUG-CC-PVTZ AUX)
    Blend: AUG-CC-PVTZ-JKFIT

    Orbital Energies [Eh]
    ---------------------

    Doubly Occupied:

       1A    -20.407334     2A    -20.344209     3A    -20.298220
       4A    -11.189532     5A    -11.093935     6A     -1.250851
       7A     -1.154213     8A     -0.927629     9A     -0.835012
      10A     -0.574820    11A     -0.501866    12A     -0.482628
      13A     -0.448790    14A     -0.416328    15A     -0.361180
      16A     -0.309102    17A     -0.283449    18A     -0.251376
      19A     -0.187834    20A     -0.162748

  @DF-RHF Final Energy:  -302.05032847912082

   => Energetics <=

    Nuclear Repulsion Energy =            167.9170825794351742
    One-Electron Energy =                -756.9727088333185065
    Two-Electron Energy =                 287.0052977747625391
    Total Energy =                       -302.0503284791208216
  Basis Set: (AUG-CC-PVTZ AUX)
    Blend: AUG-CC-PVTZ-RI
    Molecular point group: c1

    Geometry (in Angstrom), charge = -1, multiplicity = 1:

       Center              X                  Y                   Z               Mass
    ------------   -----------------  -----------------  -----------------  -----------------
         O            0.542174269866    -0.744535703094    -0.032009978303    15.994914619570
         O           -0.346885730134     1.368451296906    -0.031997978303    15.994914619570
         O            1.879654269866    -0.168724703094    -0.031984978303    15.994914619570
         C           -1.785466230134    -0.565411203094     0.168008021697    12.000000000000
         C           -0.444292730134     0.140063296906    -0.031999978303    12.000000000000
         H           -1.677891730134    -1.650152703094    -0.031964978303     1.007825032230
         H           -2.351800730134    -0.254767703094    -0.913753978303     1.007825032230
         H           -2.351797730134    -0.254744703094     0.849772021697     1.007825032230

  Basis Set: AUG-CC-PVTZ
    Blend: AUG-CC-PVTZ
  Basis Set: (AUG-CC-PVTZ AUX)
    Blend: AUG-CC-PVTZ-JKFIT
	 Reference Energy          =    -302.0503284791208216 [Eh]
	 Singles Energy            =      -0.0000000000000000 [Eh]
	 Same-Spin Energy          =      -0.2873527191551554 [Eh]
	 Opposite-Spin Energy      =      -0.8659924732264334 [Eh]
	 Correlation Energy        =      -1.1533451923815887 [Eh]
	 Total Energy              =    -303.2036736715024290 [Eh]

	 ================> DF-SCS-MP2 Energies <==================
	-----------------------------------------------------------
	 SCS Same-Spin Scale       =       0.3333333333333333 [-]
	 SCS Opposite-Spin Scale   =       1.2000000000000000 [-]
	 SCS Same-Spin Energy      =      -0.0957842397183851 [Eh]
	 SCS Opposite-Spin Energy  =      -1.0391909678717199 [Eh]
	 SCS Correlation Energy    =      -1.1349752075901050 [Eh]
	 SCS Total Energy          =    -303.1853036867109381 [Eh]
	-----------------------------------------------------------

  Dipole Moment: [D]
     X:    -6.1553      Y:    -1.6757      Z:     0.2721     Total:     6.3851

*** Psi4 exiting successfully. Buy a developer a beer!
