                               Psi4 1.3.2 release

  ==> Input File <==

--------------------------------------------------------------------------
#psi4
#
memory 32 gb

molecule  {
-1 1
  O        0.6232130    -0.7170940    -0.0000140
  O       -0.2658470     1.3958930    -0.0000020
  O        1.9606930    -0.1412830     0.0000110
  C       -1.7044282    -0.5379693     0.1000040
  C       -0.3632540     0.1675050    -0.0000040
  H       -1.5968530    -1.6227110     0.0000310
  H       -2.2707620    -0.2273260    -0.8817580
  H       -2.2707590    -0.2273030     0.8817680
units angstrom
no_reorient  #important for SAPT in psi4, default
symmetry c1  #important for SAPT in psi4, default
}

set PROPERTIES_ORIGIN ["COM"]
properties('MP2/aug-cc-pvtz', properties = ['dipole'])
--------------------------------------------------------------------------

    Molecular point group: c1
  Charge       = -1
  Multiplicity = 1
  Basis Set: AUG-CC-PVTZ
    Blend: AUG-CC-PVTZ
  Basis Set: (AUG-CC-PVTZ AUX)
    Blend: AUG-CC-PVTZ-JKFIT

    Orbital Energies [Eh]
    ---------------------

    Doubly Occupied:

       1A    -20.406583     2A    -20.343582     3A    -20.297235
       4A    -11.186804     5A    -11.089684     6A     -1.250122
       7A     -1.153511     8A     -0.927109     9A     -0.831219
      10A     -0.568949    11A     -0.485651    12A     -0.480696
      13A     -0.453368    14A     -0.413645    15A     -0.379007
      16A     -0.310090    17A     -0.285286    18A     -0.251367
      19A     -0.186908    20A     -0.161999

  @DF-RHF Final Energy:  -302.08114448101361

   => Energetics <=

    Nuclear Repulsion Energy =            168.0297992421004949
    One-Electron Energy =                -757.2962539688799097
    Two-Electron Energy =                 287.1853102457658338
    Total Energy =                       -302.0811444810136095
  Basis Set: (AUG-CC-PVTZ AUX)
    Blend: AUG-CC-PVTZ-RI
    Molecular point group: c1

    Geometry (in Angstrom), charge = -1, multiplicity = 1:

       Center              X                  Y                   Z               Mass
    ------------   -----------------  -----------------  -----------------  -----------------
         O            0.542174381854    -0.744535735091    -0.016011731488    15.994914619570
         O           -0.346885618146     1.368451264909    -0.015999731488    15.994914619570
         O            1.879654381854    -0.168724735091    -0.015986731488    15.994914619570
         C           -1.785466818146    -0.565411035091     0.084006268512    12.000000000000
         C           -0.444292618146     0.140063264909    -0.016001731488    12.000000000000
         H           -1.677891618146    -1.650152735091    -0.015966731488     1.007825032230
         H           -2.351800618146    -0.254767735091    -0.897755731488     1.007825032230
         H           -2.351797618146    -0.254744735091     0.865770268512     1.007825032230

  Basis Set: AUG-CC-PVTZ
    Blend: AUG-CC-PVTZ
  Basis Set: (AUG-CC-PVTZ AUX)
    Blend: AUG-CC-PVTZ-JKFIT
	 Reference Energy          =    -302.0811444810136095 [Eh]
	 Singles Energy            =      -0.0000000000000000 [Eh]
	 Same-Spin Energy          =      -0.2870572665582915 [Eh]
	 Opposite-Spin Energy      =      -0.8647988645917793 [Eh]
	 Correlation Energy        =      -1.1518561311500708 [Eh]
	 Total Energy              =    -303.2330006121636643 [Eh]

	 ================> DF-SCS-MP2 Energies <==================
	-----------------------------------------------------------
	 SCS Same-Spin Scale       =       0.3333333333333333 [-]
	 SCS Opposite-Spin Scale   =       1.2000000000000000 [-]
	 SCS Same-Spin Energy      =      -0.0956857555194305 [Eh]
	 SCS Opposite-Spin Energy  =      -1.0377586375101351 [Eh]
	 SCS Correlation Energy    =      -1.1334443930295657 [Eh]
	 SCS Total Energy          =    -303.2145888740431587 [Eh]
	-----------------------------------------------------------

  Dipole Moment: [D]
     X:    -6.2281      Y:    -1.6875      Z:     0.1393     Total:     6.4542

*** Psi4 exiting successfully. Buy a developer a beer!
