                               Psi4 1.3.2 release

  ==> Input File <==

--------------------------------------------------------------------------
#psi4
#
memory 32 gb

molecule  {
-1 1
  O        0.6232130    -0.7170940    -0.0000140
  O       -0.2658470     1.3958930    -0.0000020
  O        1.9606930    -0.1412830     0.0000110
  C       -1.7044271    -0.5379696     0.2500040
  C       -0.3632540     0.1675050    -0.0000040
  H       -1.5968530    -1.6227110     0.0000310
  H       -2.2707620    -0.2273260    -0.8817580
  H       -2.2707590    -0.2273030     0.8817680
units angstrom
no_reorient  #important for SAPT in psi4, default
symmetry c1  #important for SAPT in psi4, default
}

set PROPERTIES_ORIGIN ["COM"]
properties('MP2/aug-cc-pvtz', properties = ['dipole'])
--------------------------------------------------------------------------

    Molecular point group: c1
  Charge       = -1
  Multiplicity = 1
  Basis Set: AUG-CC-PVTZ
    Blend: AUG-CC-PVTZ
  Basis Set: (AUG-CC-PVTZ AUX)
    Blend: AUG-CC-PVTZ-JKFIT

    Orbital Energies [Eh]
    ---------------------

    Doubly Occupied:

       1A    -20.407881     2A    -20.344681     3A    -20.298941
       4A    -11.191536     5A    -11.097094     6A     -1.251384
       7A     -1.154733     8A     -0.928015     9A     -0.837984
      10A     -0.579763    11A     -0.509970    12A     -0.481634
      13A     -0.447738    14A     -0.416914    15A     -0.352733
      16A     -0.308310    17A     -0.281624    18A     -0.251368
      19A     -0.188513    20A     -0.163295

  @DF-RHF Final Energy:  -302.02678687682686

   => Energetics <=

    Nuclear Repulsion Energy =            167.8335122861298032
    One-Electron Energy =                -756.7323751318562017
    Two-Electron Energy =                 286.8720759688995372
    Total Energy =                       -302.0267868768268613
  Basis Set: (AUG-CC-PVTZ AUX)
    Blend: AUG-CC-PVTZ-RI
    Molecular point group: c1

    Geometry (in Angstrom), charge = -1, multiplicity = 1:

       Center              X                  Y                   Z               Mass
    ------------   -----------------  -----------------  -----------------  -----------------
         O            0.542174205873    -0.744535687096    -0.040009101711    15.994914619570
         O           -0.346885794127     1.368451312904    -0.039997101711    15.994914619570
         O            1.879654205873    -0.168724687096    -0.039984101711    15.994914619570
         C           -1.785465894127    -0.565411287096     0.210008898289    12.000000000000
         C           -0.444292794127     0.140063312904    -0.039999101711    12.000000000000
         H           -1.677891794127    -1.650152687096    -0.039964101711     1.007825032230
         H           -2.351800794127    -0.254767687096    -0.921753101711     1.007825032230
         H           -2.351797794127    -0.254744687096     0.841772898289     1.007825032230

  Basis Set: AUG-CC-PVTZ
    Blend: AUG-CC-PVTZ
  Basis Set: (AUG-CC-PVTZ AUX)
    Blend: AUG-CC-PVTZ-JKFIT
	 Reference Energy          =    -302.0267868768268613 [Eh]
	 Singles Energy            =      -0.0000000000000000 [Eh]
	 Same-Spin Energy          =      -0.2875797675088104 [Eh]
	 Opposite-Spin Energy      =      -0.8669146328892260 [Eh]
	 Correlation Energy        =      -1.1544944003980364 [Eh]
	 Total Energy              =    -303.1812812772249117 [Eh]

	 ================> DF-SCS-MP2 Energies <==================
	-----------------------------------------------------------
	 SCS Same-Spin Scale       =       0.3333333333333333 [-]
	 SCS Opposite-Spin Scale   =       1.2000000000000000 [-]
	 SCS Same-Spin Energy      =      -0.0958599225029368 [Eh]
	 SCS Opposite-Spin Energy  =      -1.0402975594670711 [Eh]
	 SCS Correlation Energy    =      -1.1361574819700080 [Eh]
	 SCS Total Energy          =    -303.1629443587968922 [Eh]
	-----------------------------------------------------------

  Dipole Moment: [D]
     X:    -6.1036      Y:    -1.6653      Z:     0.3335     Total:     6.3355

*** Psi4 exiting successfully. Buy a developer a beer!
