                               Psi4 1.3.2 release

  ==> Input File <==

--------------------------------------------------------------------------
#psi4
#
memory 32 gb

molecule  {
0 1
 Cl       -1.4573922    -0.2403856    -0.0535428
 Cl        1.4752610    -0.2153420    -0.0000010
  C       -0.0000050     0.7610500    -0.0000010
  H       -0.0000100     1.3776410     0.8954590
  H        0.0000080     1.3777120    -0.8954150
units angstrom
no_reorient  #important for SAPT in psi4, default
symmetry c1  #important for SAPT in psi4, default
}

set PROPERTIES_ORIGIN ["COM"]
properties('MP2/aug-cc-pvtz', properties = ['dipole'])
--------------------------------------------------------------------------

    Molecular point group: c1
  Charge       = 0
  Multiplicity = 1
  Basis Set: AUG-CC-PVTZ
    Blend: AUG-CC-PVTZ
  Basis Set: (AUG-CC-PVTZ AUX)
    Blend: AUG-CC-PVTZ-JKFIT

    Orbital Energies [Eh]
    ---------------------

    Doubly Occupied:

       1A   -104.850525     2A   -104.849984     3A    -11.366773
       4A    -10.574916     5A    -10.574416     6A     -8.041770
       7A     -8.041269     8A     -8.039800     9A     -8.039707
      10A     -8.039302    11A     -8.039208    12A     -1.193466
      13A     -1.096775    14A     -0.896081    15A     -0.675274
      16A     -0.618038    17A     -0.585306    18A     -0.474036
      19A     -0.472094    20A     -0.447625    21A     -0.446310

  @DF-RHF Final Energy:  -958.07886973278062

   => Energetics <=

    Nuclear Repulsion Energy =            134.5954562402319539
    One-Electron Energy =               -1590.6233042841647602
    Two-Electron Energy =                 497.9489783111522456
    Total Energy =                       -958.0788697327806176
  Basis Set: (AUG-CC-PVTZ AUX)
    Blend: AUG-CC-PVTZ-RI
    Molecular point group: c1

    Geometry (in Angstrom), charge = 0, multiplicity = 1:

       Center              X                  Y                   Z               Mass
    ------------   -----------------  -----------------  -----------------  -----------------
         CL          -1.464834301819    -0.192421375569    -0.031240738333    34.968852682000
         CL           1.467818898181    -0.167377775569     0.022301061667    34.968852682000
         C           -0.007447101819     0.809014224431     0.022301061667    12.000000000000
         H           -0.007452101819     1.425605224431     0.917761061667     1.007825032230
         H           -0.007434101819     1.425676224431    -0.873112938333     1.007825032230

  Basis Set: AUG-CC-PVTZ
    Blend: AUG-CC-PVTZ
  Basis Set: (AUG-CC-PVTZ AUX)
    Blend: AUG-CC-PVTZ-JKFIT
	 Reference Energy          =    -958.0788697327806176 [Eh]
	 Singles Energy            =      -0.0000000000000000 [Eh]
	 Same-Spin Energy          =      -0.1623495562291552 [Eh]
	 Opposite-Spin Energy      =      -0.4945100595610463 [Eh]
	 Correlation Energy        =      -0.6568596157902015 [Eh]
	 Total Energy              =    -958.7357293485707714 [Eh]

	 ================> DF-SCS-MP2 Energies <==================
	-----------------------------------------------------------
	 SCS Same-Spin Scale       =       0.3333333333333333 [-]
	 SCS Opposite-Spin Scale   =       1.2000000000000000 [-]
	 SCS Same-Spin Energy      =      -0.0541165187430517 [Eh]
	 SCS Opposite-Spin Energy  =      -0.5934120714732555 [Eh]
	 SCS Correlation Energy    =      -0.6475285902163072 [Eh]
	 SCS Total Energy          =    -958.7263983229969426 [Eh]
	-----------------------------------------------------------

  Dipole Moment: [D]
     X:    -0.0184      Y:     1.6438      Z:     0.0287     Total:     1.6441

*** Psi4 exiting successfully. Buy a developer a beer!
