                               Psi4 1.3.2 release

  ==> Input File <==

--------------------------------------------------------------------------
#psi4
#
memory 32 gb

molecule  {
0 1
 Cl       -1.5179990    -0.1332068     0.1603635
 Cl        1.4752610    -0.2153420    -0.0000010
  C       -0.0000050     0.7610500    -0.0000010
  H       -0.0000100     1.3776410     0.8954590
  H        0.0000080     1.3777120    -0.8954150
units angstrom
no_reorient  #important for SAPT in psi4, default
symmetry c1  #important for SAPT in psi4, default
}

set PROPERTIES_ORIGIN ["COM"]
properties('MP2/aug-cc-pvtz', properties = ['dipole'])
--------------------------------------------------------------------------

    Molecular point group: c1
  Charge       = 0
  Multiplicity = 1
  Basis Set: AUG-CC-PVTZ
    Blend: AUG-CC-PVTZ
  Basis Set: (AUG-CC-PVTZ AUX)
    Blend: AUG-CC-PVTZ-JKFIT

    Orbital Energies [Eh]
    ---------------------

    Doubly Occupied:

       1A   -104.852383     2A   -104.850925     3A    -11.366172
       4A    -10.576615     5A    -10.575291     6A     -8.043475
       7A     -8.042148     8A     -8.041507     9A     -8.041409
      10A     -8.040179    11A     -8.040076    12A     -1.192357
      13A     -1.100098    14A     -0.894893    15A     -0.675596
      16A     -0.614401    17A     -0.588227    18A     -0.476483
      19A     -0.468767    20A     -0.452946    21A     -0.444078

  @DF-RHF Final Energy:  -958.07717246674633

   => Energetics <=

    Nuclear Repulsion Energy =            133.5578664435146834
    One-Electron Energy =               -1588.5140298189558052
    Two-Electron Energy =                 496.8789909086947887
    Total Energy =                       -958.0771724667463332
  Basis Set: (AUG-CC-PVTZ AUX)
    Blend: AUG-CC-PVTZ-RI
    Molecular point group: c1

    Geometry (in Angstrom), charge = 0, multiplicity = 1:

       Center              X                  Y                   Z               Mass
    ------------   -----------------  -----------------  -----------------  -----------------
         CL          -1.500196723558    -0.129885456711     0.093567778091    34.968852682000
         CL           1.493063276442    -0.212020656711    -0.066796721909    34.968852682000
         C            0.017797276442     0.764371343289    -0.066796721909    12.000000000000
         H            0.017792276442     1.380962343289     0.828663278091     1.007825032230
         H            0.017810276442     1.381033343289    -0.962210721909     1.007825032230

  Basis Set: AUG-CC-PVTZ
    Blend: AUG-CC-PVTZ
  Basis Set: (AUG-CC-PVTZ AUX)
    Blend: AUG-CC-PVTZ-JKFIT
	 Reference Energy          =    -958.0771724667463332 [Eh]
	 Singles Energy            =      -0.0000000000000000 [Eh]
	 Same-Spin Energy          =      -0.1623572710526756 [Eh]
	 Opposite-Spin Energy      =      -0.4946283428036055 [Eh]
	 Correlation Energy        =      -0.6569856138562811 [Eh]
	 Total Energy              =    -958.7341580806025831 [Eh]

	 ================> DF-SCS-MP2 Energies <==================
	-----------------------------------------------------------
	 SCS Same-Spin Scale       =       0.3333333333333333 [-]
	 SCS Opposite-Spin Scale   =       1.2000000000000000 [-]
	 SCS Same-Spin Energy      =      -0.0541190903508919 [Eh]
	 SCS Opposite-Spin Energy  =      -0.5935540113643265 [Eh]
	 SCS Correlation Energy    =      -0.6476731017152184 [Eh]
	 SCS Total Energy          =    -958.7248455684615465 [Eh]
	-----------------------------------------------------------

  Dipole Moment: [D]
     X:     0.0488      Y:     1.5843      Z:    -0.0871     Total:     1.5875

*** Psi4 exiting successfully. Buy a developer a beer!
