                               Psi4 1.4a3.dev225

  ==> Input File <==

--------------------------------------------------------------------------
#psi4
#
memory 32 gb

molecule  {
0 1
 Cl        1.4750960    -0.2153180    -0.0000010
 Cl       -1.4750970    -0.2153180    -0.0000010
  C       -0.0416955     0.7884464    -0.0000010
  H        0.0000000     1.3778720    -0.8950780
  H       -0.0000010     1.3778290     0.8951050
units angstrom
no_reorient  #important for SAPT in psi4, default
symmetry c1  #important for SAPT in psi4, default
}

set PROPERTIES_ORIGIN ["COM"]
properties('MP2/aug-cc-pvtz', properties = ['dipole'])
--------------------------------------------------------------------------

    Molecular point group: c1
  Charge       = 0
  Multiplicity = 1
  Basis Set: AUG-CC-PVTZ
    Blend: AUG-CC-PVTZ
  Basis Set: (AUG-CC-PVTZ AUX)
    Blend: AUG-CC-PVTZ-JKFIT

    Orbital Energies [Eh]
    ---------------------

    Doubly Occupied:

       1A   -104.854752     2A   -104.845308     3A    -11.367513
       4A    -10.579318     5A    -10.569142     6A     -8.046214
       7A     -8.044192     8A     -8.044091     9A     -8.035896
      10A     -8.034048    11A     -8.033967    12A     -1.191142
      13A     -1.093278    14A     -0.901231    15A     -0.683028
      16A     -0.616134    17A     -0.580812    18A     -0.473782
      19A     -0.471043    20A     -0.448471    21A     -0.446668

  @DF-RHF Final Energy:  -958.07819055413302

   => Energetics <=

    Nuclear Repulsion Energy =            133.8977759149785811
    One-Electron Energy =               -1589.2318749182247757
    Two-Electron Energy =                 497.2559084491131216
    Total Energy =                       -958.0781905541330161
  Basis Set: (AUG-CC-PVTZ AUX)
    Blend: AUG-CC-PVTZ-RI
    Molecular point group: c1

    Geometry (in Angstrom), charge = 0, multiplicity = 1:

       Center              X                  Y                   Z               Mass
    ------------   -----------------  -----------------  -----------------  -----------------
         CL           1.481056237969    -0.181725231968    -0.000000348133    34.968852682000
         CL          -1.469136762031    -0.181725231968    -0.000000348133    34.968852682000
         C           -0.035735262031     0.822039168032    -0.000000348133    12.000000000000
         H            0.005960237969     1.411464768032    -0.895077348133     1.007825032230
         H            0.005959237969     1.411421768032     0.895105651867     1.007825032230

  Basis Set: AUG-CC-PVTZ
    Blend: AUG-CC-PVTZ
  Basis Set: (AUG-CC-PVTZ AUX)
    Blend: AUG-CC-PVTZ-JKFIT
	 Reference Energy          =    -958.0781905541330161 [Eh]
	 Singles Energy            =      -0.0000000000000000 [Eh]
	 Same-Spin Energy          =      -0.1621075522252897 [Eh]
	 Opposite-Spin Energy      =      -0.4944014563538113 [Eh]
	 Correlation Energy        =      -0.6565090085791010 [Eh]
	 Total Energy              =    -958.7346995627120805 [Eh]

	 ================> DF-SCS-MP2 Energies <==================
	-----------------------------------------------------------
	 SCS Same-Spin Scale       =       0.3333333333333333 [-]
	 SCS Opposite-Spin Scale   =       1.2000000000000000 [-]
	 SCS Same-Spin Energy      =      -0.0540358507417632 [Eh]
	 SCS Opposite-Spin Energy  =      -0.5932817476245735 [Eh]
	 SCS Correlation Energy    =      -0.6473175983663367 [Eh]
	 SCS Total Energy          =    -958.7255081524994011 [Eh]
	-----------------------------------------------------------

  Dipole Moment: [D]
     X:    -0.2541      Y:     1.6749      Z:     0.0000     Total:     1.6941

*** Psi4 exiting successfully. Buy a developer a beer!
