                               Psi4 1.3.2 release

  ==> Input File <==

--------------------------------------------------------------------------
#psi4
#
memory 32 gb

molecule  {
0 1
 Cl       -1.4752590    -0.2153430    -0.0000010
 Cl        1.4752610    -0.2153420    -0.0000010
  C        0.0833850     0.8162415    -0.0000010
  H       -0.0000100     1.3776410     0.8954590
  H        0.0000080     1.3777120    -0.8954150
units angstrom
no_reorient  #important for SAPT in psi4, default
symmetry c1  #important for SAPT in psi4, default
}

set PROPERTIES_ORIGIN ["COM"]
properties('MP2/aug-cc-pvtz', properties = ['dipole'])
--------------------------------------------------------------------------

    Molecular point group: c1
  Charge       = 0
  Multiplicity = 1
  Basis Set: AUG-CC-PVTZ
    Blend: AUG-CC-PVTZ
  Basis Set: (AUG-CC-PVTZ AUX)
    Blend: AUG-CC-PVTZ-JKFIT

    Orbital Energies [Eh]
    ---------------------

    Doubly Occupied:

       1A   -104.859052     2A   -104.839480     3A    -11.369364
       4A    -10.583789     5A    -10.562935     6A     -8.050723
       7A     -8.048650     8A     -8.048538     9A     -8.029602
      10A     -8.027854    11A     -8.027784    12A     -1.191945
      13A     -1.087200    14A     -0.906382    15A     -0.691180
      16A     -0.618447    17A     -0.574583    18A     -0.474066
      19A     -0.469049    20A     -0.449045    21A     -0.443512

  @DF-RHF Final Energy:  -958.07468662989072

   => Energetics <=

    Nuclear Repulsion Energy =            133.4724829288424530
    One-Electron Energy =               -1588.3879735247460303
    Two-Electron Energy =                 496.8408039660127997
    Total Energy =                       -958.0746866298907207
  Basis Set: (AUG-CC-PVTZ AUX)
    Blend: AUG-CC-PVTZ-RI
    Molecular point group: c1

    Geometry (in Angstrom), charge = 0, multiplicity = 1:

       Center              X                  Y                   Z               Mass
    ------------   -----------------  -----------------  -----------------  -----------------
         CL          -1.487178570301    -0.185698579255    -0.000000552211    34.968852682000
         CL           1.463341429699    -0.185697579255    -0.000000552211    34.968852682000
         C            0.071465429699     0.845885920745    -0.000000552211    12.000000000000
         H           -0.011929570301     1.407285420745     0.895459447789     1.007825032230
         H           -0.011911570301     1.407356420745    -0.895414552211     1.007825032230

  Basis Set: AUG-CC-PVTZ
    Blend: AUG-CC-PVTZ
  Basis Set: (AUG-CC-PVTZ AUX)
    Blend: AUG-CC-PVTZ-JKFIT
	 Reference Energy          =    -958.0746866298907207 [Eh]
	 Singles Energy            =      -0.0000000000000000 [Eh]
	 Same-Spin Energy          =      -0.1620041427499618 [Eh]
	 Opposite-Spin Energy      =      -0.4944737069257771 [Eh]
	 Correlation Energy        =      -0.6564778496757389 [Eh]
	 Total Energy              =    -958.7311644795664733 [Eh]

	 ================> DF-SCS-MP2 Energies <==================
	-----------------------------------------------------------
	 SCS Same-Spin Scale       =       0.3333333333333333 [-]
	 SCS Opposite-Spin Scale   =       1.2000000000000000 [-]
	 SCS Same-Spin Energy      =      -0.0540013809166539 [Eh]
	 SCS Opposite-Spin Energy  =      -0.5933684483109325 [Eh]
	 SCS Correlation Energy    =      -0.6473698292275865 [Eh]
	 SCS Total Energy          =    -958.7220564591183347 [Eh]
	-----------------------------------------------------------

  Dipole Moment: [D]
     X:     0.5084      Y:     1.7191      Z:     0.0000     Total:     1.7927

*** Psi4 exiting successfully. Buy a developer a beer!
