                               Psi4 1.3.2 release

  ==> Input File <==

--------------------------------------------------------------------------
#psi4
#
memory 32 gb

molecule  {
0 1
 Cl       -1.4752590    -0.2153430    -0.0000010
 Cl        1.4752610    -0.2153420    -0.0000010
  C        0.1667751     0.8714330    -0.0000010
  H       -0.0000100     1.3776410     0.8954590
  H        0.0000080     1.3777120    -0.8954150
units angstrom
no_reorient  #important for SAPT in psi4, default
symmetry c1  #important for SAPT in psi4, default
}

set PROPERTIES_ORIGIN ["COM"]
properties('MP2/aug-cc-pvtz', properties = ['dipole'])
--------------------------------------------------------------------------

    Molecular point group: c1
  Charge       = 0
  Multiplicity = 1
  Basis Set: AUG-CC-PVTZ
    Blend: AUG-CC-PVTZ
  Basis Set: (AUG-CC-PVTZ AUX)
    Blend: AUG-CC-PVTZ-JKFIT

    Orbital Energies [Eh]
    ---------------------

    Doubly Occupied:

       1A   -104.868288     2A   -104.826333     3A    -11.375366
       4A    -10.593339     5A    -10.549454     6A     -8.060337
       7A     -8.058167     8A     -8.058022     9A     -8.015986
      10A     -8.014395    11A     -8.014340    12A     -1.199410
      13A     -1.072496    14A     -0.915791    15A     -0.706676
      16A     -0.628646    17A     -0.565411    18A     -0.478755
      19A     -0.459593    20A     -0.444254    21A     -0.435131

  @DF-RHF Final Energy:  -958.06193313723668

   => Energetics <=

    Nuclear Repulsion Energy =            132.6875828675716491
    One-Electron Energy =               -1586.8186539223463569
    Two-Electron Energy =                 496.0691379175381144
    Total Energy =                       -958.0619331372366787
  Basis Set: (AUG-CC-PVTZ AUX)
    Blend: AUG-CC-PVTZ-RI
    Molecular point group: c1

    Geometry (in Angstrom), charge = 0, multiplicity = 1:

       Center              X                  Y                   Z               Mass
    ------------   -----------------  -----------------  -----------------  -----------------
         CL          -1.499098060534    -0.193587459891    -0.000000552211    34.968852682000
         CL           1.451421939466    -0.193586459891    -0.000000552211    34.968852682000
         C            0.142936039466     0.893188540109    -0.000000552211    12.000000000000
         H           -0.023849060534     1.399396540109     0.895459447789     1.007825032230
         H           -0.023831060534     1.399467540109    -0.895414552211     1.007825032230

  Basis Set: AUG-CC-PVTZ
    Blend: AUG-CC-PVTZ
  Basis Set: (AUG-CC-PVTZ AUX)
    Blend: AUG-CC-PVTZ-JKFIT
	 Reference Energy          =    -958.0619331372366787 [Eh]
	 Singles Energy            =      -0.0000000000000000 [Eh]
	 Same-Spin Energy          =      -0.1620895361693901 [Eh]
	 Opposite-Spin Energy      =      -0.4949677388325416 [Eh]
	 Correlation Energy        =      -0.6570572750019317 [Eh]
	 Total Energy              =    -958.7189904122385542 [Eh]

	 ================> DF-SCS-MP2 Energies <==================
	-----------------------------------------------------------
	 SCS Same-Spin Scale       =       0.3333333333333333 [-]
	 SCS Opposite-Spin Scale   =       1.2000000000000000 [-]
	 SCS Same-Spin Energy      =      -0.0540298453897967 [Eh]
	 SCS Opposite-Spin Energy  =      -0.5939612865990499 [Eh]
	 SCS Correlation Energy    =      -0.6479911319888466 [Eh]
	 SCS Total Energy          =    -958.7099242692255530 [Eh]
	-----------------------------------------------------------

  Dipole Moment: [D]
     X:     1.0173      Y:     1.8007      Z:     0.0000     Total:     2.0682

*** Psi4 exiting successfully. Buy a developer a beer!
