                               Psi4 1.3.2 release

  ==> Input File <==

--------------------------------------------------------------------------
#psi4
#
memory 32 gb

molecule  {
0 1
 Cl       -1.4920747    -0.1894476    -0.0000010
 Cl        1.4752610    -0.2153420    -0.0000010
  C       -0.0000050     0.7610500    -0.0000010
  H       -0.0000100     1.3776410     0.8954590
  H        0.0000080     1.3777120    -0.8954150
units angstrom
no_reorient  #important for SAPT in psi4, default
symmetry c1  #important for SAPT in psi4, default
}

set PROPERTIES_ORIGIN ["COM"]
properties('MP2/aug-cc-pvtz', properties = ['dipole'])
--------------------------------------------------------------------------

    Molecular point group: c1
  Charge       = 0
  Multiplicity = 1
  Basis Set: AUG-CC-PVTZ
    Blend: AUG-CC-PVTZ
  Basis Set: (AUG-CC-PVTZ AUX)
    Blend: AUG-CC-PVTZ-JKFIT

    Orbital Energies [Eh]
    ---------------------

    Doubly Occupied:

       1A   -104.851231     2A   -104.850702     3A    -11.366526
       4A    -10.575559     5A    -10.575072     6A     -8.042417
       7A     -8.041929     8A     -8.040449     9A     -8.040353
      10A     -8.039963    11A     -8.039866    12A     -1.192758
      13A     -1.098473    14A     -0.895505    15A     -0.675198
      16A     -0.616226    17A     -0.587026    18A     -0.475272
      19A     -0.470200    20A     -0.450436    21A     -0.445617

  @DF-RHF Final Energy:  -958.07891630117012

   => Energetics <=

    Nuclear Repulsion Energy =            134.0373477751674045
    One-Electron Energy =               -1589.4909707836786765
    Two-Electron Energy =                 497.3747067073412609
    Total Energy =                       -958.0789163011701248
  Basis Set: (AUG-CC-PVTZ AUX)
    Blend: AUG-CC-PVTZ-RI
    Molecular point group: c1

    Geometry (in Angstrom), charge = 0, multiplicity = 1:

       Center              X                  Y                   Z               Mass
    ------------   -----------------  -----------------  -----------------  -----------------
         CL          -1.485070598604    -0.162700436029    -0.000000552211    34.968852682000
         CL           1.482265101396    -0.188594836029    -0.000000552211    34.968852682000
         C            0.006999101396     0.787797163971    -0.000000552211    12.000000000000
         H            0.006994101396     1.404388163971     0.895459447789     1.007825032230
         H            0.007012101396     1.404459163971    -0.895414552211     1.007825032230

  Basis Set: AUG-CC-PVTZ
    Blend: AUG-CC-PVTZ
  Basis Set: (AUG-CC-PVTZ AUX)
    Blend: AUG-CC-PVTZ-JKFIT
	 Reference Energy          =    -958.0789163011701248 [Eh]
	 Singles Energy            =      -0.0000000000000000 [Eh]
	 Same-Spin Energy          =      -0.1623157586546723 [Eh]
	 Opposite-Spin Energy      =      -0.4945029302107840 [Eh]
	 Correlation Energy        =      -0.6568186888654562 [Eh]
	 Total Energy              =    -958.7357349900355530 [Eh]

	 ================> DF-SCS-MP2 Energies <==================
	-----------------------------------------------------------
	 SCS Same-Spin Scale       =       0.3333333333333333 [-]
	 SCS Opposite-Spin Scale   =       1.2000000000000000 [-]
	 SCS Same-Spin Energy      =      -0.0541052528848908 [Eh]
	 SCS Opposite-Spin Energy  =      -0.5934035162529407 [Eh]
	 SCS Correlation Energy    =      -0.6475087691378315 [Eh]
	 SCS Total Energy          =    -958.7264250703079824 [Eh]
	-----------------------------------------------------------

  Dipole Moment: [D]
     X:     0.0178      Y:     1.6154      Z:     0.0000     Total:     1.6155

*** Psi4 exiting successfully. Buy a developer a beer!
