                               Psi4 1.3.2 release

  ==> Input File <==

--------------------------------------------------------------------------
#psi4
#
memory 32 gb

molecule  {
0 1
 Cl       -1.5692383    -0.0557882    -0.0000010
 Cl        1.4752610    -0.2153420    -0.0000010
  C       -0.0000050     0.7610500    -0.0000010
  H       -0.0000100     1.3776410     0.8954590
  H        0.0000080     1.3777120    -0.8954150
units angstrom
no_reorient  #important for SAPT in psi4, default
symmetry c1  #important for SAPT in psi4, default
}

set PROPERTIES_ORIGIN ["COM"]
properties('MP2/aug-cc-pvtz', properties = ['dipole'])
--------------------------------------------------------------------------

    Molecular point group: c1
  Charge       = 0
  Multiplicity = 1
  Basis Set: AUG-CC-PVTZ
    Blend: AUG-CC-PVTZ
  Basis Set: (AUG-CC-PVTZ AUX)
    Blend: AUG-CC-PVTZ-JKFIT

    Orbital Energies [Eh]
    ---------------------

    Doubly Occupied:

       1A   -104.854196     2A   -104.851036     3A    -11.365848
       4A    -10.578292     5A    -10.575388     6A     -8.045156
       7A     -8.043186     8A     -8.043083     9A     -8.042246
      10A     -8.040284    11A     -8.040174    12A     -1.191440
      13A     -1.102392    14A     -0.894085    15A     -0.675253
      16A     -0.611912    17A     -0.590693    18A     -0.478176
      19A     -0.465781    20A     -0.456576    21A     -0.443741

  @DF-RHF Final Energy:  -958.07683653209710

   => Energetics <=

    Nuclear Repulsion Energy =            132.7823482498201031
    One-Electron Energy =               -1586.9404963164088258
    Two-Electron Energy =                 496.0813115344915332
    Total Energy =                       -958.0768365320971043
  Basis Set: (AUG-CC-PVTZ AUX)
    Blend: AUG-CC-PVTZ-RI
    Molecular point group: c1

    Geometry (in Angstrom), charge = 0, multiplicity = 1:

       Center              X                  Y                   Z               Mass
    ------------   -----------------  -----------------  -----------------  -----------------
         CL          -1.530093463465    -0.084713806275    -0.000000552211    34.968852682000
         CL           1.514405836535    -0.244267606275    -0.000000552211    34.968852682000
         C            0.039139836535     0.732124393725    -0.000000552211    12.000000000000
         H            0.039134836535     1.348715393725     0.895459447789     1.007825032230
         H            0.039152836535     1.348786393725    -0.895414552211     1.007825032230

  Basis Set: AUG-CC-PVTZ
    Blend: AUG-CC-PVTZ
  Basis Set: (AUG-CC-PVTZ AUX)
    Blend: AUG-CC-PVTZ-JKFIT
	 Reference Energy          =    -958.0768365320971043 [Eh]
	 Singles Energy            =      -0.0000000000000000 [Eh]
	 Same-Spin Energy          =      -0.1623225752545202 [Eh]
	 Opposite-Spin Energy      =      -0.4946530736146049 [Eh]
	 Correlation Energy        =      -0.6569756488691251 [Eh]
	 Total Energy              =    -958.7338121809661970 [Eh]

	 ================> DF-SCS-MP2 Energies <==================
	-----------------------------------------------------------
	 SCS Same-Spin Scale       =       0.3333333333333333 [-]
	 SCS Opposite-Spin Scale   =       1.2000000000000000 [-]
	 SCS Same-Spin Energy      =      -0.0541075250848400 [Eh]
	 SCS Opposite-Spin Energy  =      -0.5935836883375258 [Eh]
	 SCS Correlation Energy    =      -0.6476912134223659 [Eh]
	 SCS Total Energy          =    -958.7245277455194810 [Eh]
	-----------------------------------------------------------

  Dipole Moment: [D]
     X:     0.1049      Y:     1.5388      Z:     0.0000     Total:     1.5424

*** Psi4 exiting successfully. Buy a developer a beer!
