                               Psi4 1.3.2 release

  ==> Input File <==

--------------------------------------------------------------------------
#psi4
#
memory 32 gb

molecule  {
0 1
 Cl       -1.3651165    -0.3642003    -0.0000010
 Cl        1.4752610    -0.2153420    -0.0000010
  C       -0.0000050     0.7610500    -0.0000010
  H       -0.0000100     1.3776410     0.8954590
  H        0.0000080     1.3777120    -0.8954150
units angstrom
no_reorient  #important for SAPT in psi4, default
symmetry c1  #important for SAPT in psi4, default
}

set PROPERTIES_ORIGIN ["COM"]
properties('MP2/aug-cc-pvtz', properties = ['dipole'])
--------------------------------------------------------------------------

    Molecular point group: c1
  Charge       = 0
  Multiplicity = 1
  Basis Set: AUG-CC-PVTZ
    Blend: AUG-CC-PVTZ
  Basis Set: (AUG-CC-PVTZ AUX)
    Blend: AUG-CC-PVTZ-JKFIT

    Orbital Energies [Eh]
    ---------------------

    Doubly Occupied:

       1A   -104.849920     2A   -104.846732     3A    -11.367360
       4A    -10.574392     5A    -10.571453     6A     -8.041236
       7A     -8.039251     8A     -8.039166     9A     -8.038293
      10A     -8.036321    11A     -8.036229    12A     -1.195659
      13A     -1.092122    14A     -0.897601    15A     -0.675436
      16A     -0.622700    17A     -0.580712    18A     -0.477097
      19A     -0.470713    20A     -0.448399    21A     -0.439617

  @DF-RHF Final Energy:  -958.07716803986102

   => Energetics <=

    Nuclear Repulsion Energy =            136.1225153994493269
    One-Electron Energy =               -1593.7185504970846068
    Two-Electron Energy =                 499.5188670577742300
    Total Energy =                       -958.0771680398609078
  Basis Set: (AUG-CC-PVTZ AUX)
    Blend: AUG-CC-PVTZ-RI
    Molecular point group: c1

    Geometry (in Angstrom), charge = 0, multiplicity = 1:

       Center              X                  Y                   Z               Mass
    ------------   -----------------  -----------------  -----------------  -----------------
         CL          -1.410993937047    -0.264663890252    -0.000000552211    34.968852682000
         CL           1.429383562953    -0.115805590252    -0.000000552211    34.968852682000
         C           -0.045882437047     0.860586409748    -0.000000552211    12.000000000000
         H           -0.045887437047     1.477177409748     0.895459447789     1.007825032230
         H           -0.045869437047     1.477248409748    -0.895414552211     1.007825032230

  Basis Set: AUG-CC-PVTZ
    Blend: AUG-CC-PVTZ
  Basis Set: (AUG-CC-PVTZ AUX)
    Blend: AUG-CC-PVTZ-JKFIT
	 Reference Energy          =    -958.0771680398610215 [Eh]
	 Singles Energy            =      -0.0000000000000000 [Eh]
	 Same-Spin Energy          =      -0.1625010869357656 [Eh]
	 Opposite-Spin Energy      =      -0.4946459567937618 [Eh]
	 Correlation Energy        =      -0.6571470437295274 [Eh]
	 Total Energy              =    -958.7343150835905590 [Eh]

	 ================> DF-SCS-MP2 Energies <==================
	-----------------------------------------------------------
	 SCS Same-Spin Scale       =       0.3333333333333333 [-]
	 SCS Opposite-Spin Scale   =       1.2000000000000000 [-]
	 SCS Same-Spin Energy      =      -0.0541670289785885 [Eh]
	 SCS Opposite-Spin Energy  =      -0.5935751481525141 [Eh]
	 SCS Correlation Energy    =      -0.6477421771311026 [Eh]
	 SCS Total Energy          =    -958.7249102169921571 [Eh]
	-----------------------------------------------------------

  Dipole Moment: [D]
     X:    -0.1094      Y:     1.7097      Z:     0.0000     Total:     1.7132

*** Psi4 exiting successfully. Buy a developer a beer!
