                               Psi4 1.3.2 release

  ==> Input File <==

--------------------------------------------------------------------------
#psi4
#
memory 32 gb

molecule  {
0 1
 Cl       -1.4835196    -0.2023736     0.0267740
 Cl        1.4752610    -0.2153420    -0.0000010
  C       -0.0000050     0.7610500    -0.0000010
  H       -0.0000100     1.3776410     0.8954590
  H        0.0000080     1.3777120    -0.8954150
units angstrom
no_reorient  #important for SAPT in psi4, default
symmetry c1  #important for SAPT in psi4, default
}

set PROPERTIES_ORIGIN ["COM"]
properties('MP2/aug-cc-pvtz', properties = ['dipole'])
--------------------------------------------------------------------------

    Molecular point group: c1
  Charge       = 0
  Multiplicity = 1
  Basis Set: AUG-CC-PVTZ
    Blend: AUG-CC-PVTZ
  Basis Set: (AUG-CC-PVTZ AUX)
    Blend: AUG-CC-PVTZ-JKFIT

    Orbital Energies [Eh]
    ---------------------

    Doubly Occupied:

       1A   -104.850920     2A   -104.850660     3A    -11.366589
       4A    -10.575274     5A    -10.575035     6A     -8.042131
       7A     -8.041892     8A     -8.040163     9A     -8.040068
      10A     -8.039925    11A     -8.039829    12A     -1.192926
      13A     -1.098054    14A     -0.895649    15A     -0.675214
      16A     -0.616679    17A     -0.586603    18A     -0.474965
      19A     -0.470671    20A     -0.449749    21A     -0.445789

  @DF-RHF Final Energy:  -958.07894586415853

   => Energetics <=

    Nuclear Repulsion Energy =            134.1747964878397283
    One-Electron Energy =               -1589.7699147809457827
    Two-Electron Energy =                 497.5161724289475274
    Total Energy =                       -958.0789458641584133
  Basis Set: (AUG-CC-PVTZ AUX)
    Blend: AUG-CC-PVTZ-RI
    Molecular point group: c1

    Geometry (in Angstrom), charge = 0, multiplicity = 1:

       Center              X                  Y                   Z               Mass
    ------------   -----------------  -----------------  -----------------  -----------------
         CL          -1.480078930107    -0.170242405963     0.015621933089    34.968852682000
         CL           1.478701669893    -0.183210805963    -0.011153066911    34.968852682000
         C            0.003435669893     0.793181194037    -0.011153066911    12.000000000000
         H            0.003430669893     1.409772194037     0.884306933089     1.007825032230
         H            0.003448669893     1.409843194037    -0.906567066911     1.007825032230

  Basis Set: AUG-CC-PVTZ
    Blend: AUG-CC-PVTZ
  Basis Set: (AUG-CC-PVTZ AUX)
    Blend: AUG-CC-PVTZ-JKFIT
	 Reference Energy          =    -958.0789458641585270 [Eh]
	 Singles Energy            =      -0.0000000000000000 [Eh]
	 Same-Spin Energy          =      -0.1623225298573931 [Eh]
	 Opposite-Spin Energy      =      -0.4945015773483671 [Eh]
	 Correlation Energy        =      -0.6568241072057602 [Eh]
	 Total Energy              =    -958.7357699713643342 [Eh]

	 ================> DF-SCS-MP2 Energies <==================
	-----------------------------------------------------------
	 SCS Same-Spin Scale       =       0.3333333333333333 [-]
	 SCS Opposite-Spin Scale   =       1.2000000000000000 [-]
	 SCS Same-Spin Energy      =      -0.0541075099524644 [Eh]
	 SCS Opposite-Spin Energy  =      -0.5934018928180405 [Eh]
	 SCS Correlation Energy    =      -0.6475094027705048 [Eh]
	 SCS Total Energy          =    -958.7264552669290651 [Eh]
	-----------------------------------------------------------

  Dipole Moment: [D]
     X:     0.0088      Y:     1.6227      Z:    -0.0144     Total:     1.6227

*** Psi4 exiting successfully. Buy a developer a beer!
