                               Psi4 1.3.2 release

  ==> Input File <==

--------------------------------------------------------------------------
#psi4
#
memory 32 gb

molecule  {
0 1
 Cl       -1.4579939    -0.2409410    -0.0000010
 Cl        1.4752610    -0.2153420    -0.0000010
  C       -0.0000050     0.7610500    -0.0000010
  H       -0.0000100     1.3776410     0.8954590
  H        0.0000080     1.3777120    -0.8954150
units angstrom
no_reorient  #important for SAPT in psi4, default
symmetry c1  #important for SAPT in psi4, default
}

set PROPERTIES_ORIGIN ["COM"]
properties('MP2/aug-cc-pvtz', properties = ['dipole'])
--------------------------------------------------------------------------

    Molecular point group: c1
  Charge       = 0
  Multiplicity = 1
  Basis Set: AUG-CC-PVTZ
    Blend: AUG-CC-PVTZ
  Basis Set: (AUG-CC-PVTZ AUX)
    Blend: AUG-CC-PVTZ-JKFIT

    Orbital Energies [Eh]
    ---------------------

    Doubly Occupied:

       1A   -104.850519     2A   -104.849987     3A    -11.366781
       4A    -10.574909     5A    -10.574418     6A     -8.041763
       7A     -8.041272     8A     -8.039793     9A     -8.039701
      10A     -8.039304    11A     -8.039210    12A     -1.193447
      13A     -1.096771    14A     -0.896086    15A     -0.675230
      16A     -0.618053    17A     -0.585339    18A     -0.474031
      19A     -0.472066    20A     -0.447630    21A     -0.446388

  @DF-RHF Final Energy:  -958.07900270026983

   => Energetics <=

    Nuclear Repulsion Energy =            134.5920376452050107
    One-Electron Energy =               -1590.6166841270205623
    Two-Electron Energy =                 497.9456437815456979
    Total Energy =                       -958.0790027002699389
  Basis Set: (AUG-CC-PVTZ AUX)
    Blend: AUG-CC-PVTZ-RI
    Molecular point group: c1

    Geometry (in Angstrom), charge = 0, multiplicity = 1:

       Center              X                  Y                   Z               Mass
    ------------   -----------------  -----------------  -----------------  -----------------
         CL          -1.465185377427    -0.192745436385    -0.000000552211    34.968852682000
         CL           1.468069522573    -0.167146436385    -0.000000552211    34.968852682000
         C           -0.007196477427     0.809245563615    -0.000000552211    12.000000000000
         H           -0.007201477427     1.425836563615     0.895459447789     1.007825032230
         H           -0.007183477427     1.425907563615    -0.895414552211     1.007825032230

  Basis Set: AUG-CC-PVTZ
    Blend: AUG-CC-PVTZ
  Basis Set: (AUG-CC-PVTZ AUX)
    Blend: AUG-CC-PVTZ-JKFIT
	 Reference Energy          =    -958.0790027002698253 [Eh]
	 Singles Energy            =      -0.0000000000000000 [Eh]
	 Same-Spin Energy          =      -0.1623440490259548 [Eh]
	 Opposite-Spin Energy      =      -0.4945003020843295 [Eh]
	 Correlation Energy        =      -0.6568443511102844 [Eh]
	 Total Energy              =    -958.7358470513801194 [Eh]

	 ================> DF-SCS-MP2 Energies <==================
	-----------------------------------------------------------
	 SCS Same-Spin Scale       =       0.3333333333333333 [-]
	 SCS Opposite-Spin Scale   =       1.2000000000000000 [-]
	 SCS Same-Spin Energy      =      -0.0541146830086516 [Eh]
	 SCS Opposite-Spin Energy  =      -0.5934003625011953 [Eh]
	 SCS Correlation Energy    =      -0.6475150455098470 [Eh]
	 SCS Total Energy          =    -958.7265177457796881 [Eh]
	-----------------------------------------------------------

  Dipole Moment: [D]
     X:    -0.0180      Y:     1.6440      Z:     0.0000     Total:     1.6441

*** Psi4 exiting successfully. Buy a developer a beer!
