                               Psi4 1.4a3.dev225

  ==> Input File <==

--------------------------------------------------------------------------
#psi4
#
memory 32 gb

molecule  {
0 1
 Cl        1.4750960    -0.2153180    -0.0000010
 Cl       -1.4750970    -0.2153180    -0.0000010
  C        0.0416975     0.7332596    -0.0000010
  H        0.0000000     1.3778720    -0.8950780
  H       -0.0000010     1.3778290     0.8951050
units angstrom
no_reorient  #important for SAPT in psi4, default
symmetry c1  #important for SAPT in psi4, default
}

set PROPERTIES_ORIGIN ["COM"]
properties('MP2/aug-cc-pvtz', properties = ['dipole'])
--------------------------------------------------------------------------

    Molecular point group: c1
  Charge       = 0
  Multiplicity = 1
  Basis Set: AUG-CC-PVTZ
    Blend: AUG-CC-PVTZ
  Basis Set: (AUG-CC-PVTZ AUX)
    Blend: AUG-CC-PVTZ-JKFIT

    Orbital Energies [Eh]
    ---------------------

    Doubly Occupied:

       1A   -104.855450     2A   -104.846565     3A    -11.366436
       4A    -10.580583     5A    -10.570772     6A     -8.047561
       7A     -8.045443     8A     -8.045331     9A     -8.037586
      10A     -8.035671    11A     -8.035580    12A     -1.198849
      13A     -1.099909    14A     -0.890144    15A     -0.667920
      16A     -0.622918    17A     -0.589723    18A     -0.476003
      19A     -0.469506    20A     -0.450691    21A     -0.442081

  @DF-RHF Final Energy:  -958.07656434097407

   => Energetics <=

    Nuclear Repulsion Energy =            134.7827248141921075
    One-Electron Energy =               -1590.9691302569210620
    Two-Electron Energy =                 498.1098411017549097
    Total Energy =                       -958.0765643409740733
  Basis Set: (AUG-CC-PVTZ AUX)
    Blend: AUG-CC-PVTZ-RI
    Molecular point group: c1

    Geometry (in Angstrom), charge = 0, multiplicity = 1:

       Center              X                  Y                   Z               Mass
    ------------   -----------------  -----------------  -----------------  -----------------
         CL           1.469136333221    -0.173837023133    -0.000000348133    34.968852682000
         CL          -1.481056666779    -0.173837023133    -0.000000348133    34.968852682000
         C            0.035737833221     0.774740576867    -0.000000348133    12.000000000000
         H           -0.005959666779     1.419352976867    -0.895077348133     1.007825032230
         H           -0.005960666779     1.419309976867     0.895105651867     1.007825032230

  Basis Set: AUG-CC-PVTZ
    Blend: AUG-CC-PVTZ
  Basis Set: (AUG-CC-PVTZ AUX)
    Blend: AUG-CC-PVTZ-JKFIT
	 Reference Energy          =    -958.0765643409740733 [Eh]
	 Singles Energy            =      -0.0000000000000000 [Eh]
	 Same-Spin Energy          =      -0.1626994731998678 [Eh]
	 Opposite-Spin Energy      =      -0.4947890201552194 [Eh]
	 Correlation Energy        =      -0.6574884933550872 [Eh]
	 Total Energy              =    -958.7340528343291908 [Eh]

	 ================> DF-SCS-MP2 Energies <==================
	-----------------------------------------------------------
	 SCS Same-Spin Scale       =       0.3333333333333333 [-]
	 SCS Opposite-Spin Scale   =       1.2000000000000000 [-]
	 SCS Same-Spin Energy      =      -0.0542331577332893 [Eh]
	 SCS Opposite-Spin Energy  =      -0.5937468241862632 [Eh]
	 SCS Correlation Energy    =      -0.6479799819195525 [Eh]
	 SCS Total Energy          =    -958.7245443228936210 [Eh]
	-----------------------------------------------------------

  Dipole Moment: [D]
     X:     0.2558      Y:     1.5822      Z:     0.0000     Total:     1.6028

*** Psi4 exiting successfully. Buy a developer a beer!
