                               Psi4 1.3.2 release

  ==> Input File <==

--------------------------------------------------------------------------
#psi4
#
memory 32 gb

molecule  {
0 1
 Cl       -1.5084359    -0.1632626    -0.0000010
 Cl        1.4752610    -0.2153420    -0.0000010
  C       -0.0000050     0.7610500    -0.0000010
  H       -0.0000100     1.3776410     0.8954590
  H        0.0000080     1.3777120    -0.8954150
units angstrom
no_reorient  #important for SAPT in psi4, default
symmetry c1  #important for SAPT in psi4, default
}

set PROPERTIES_ORIGIN ["COM"]
properties('MP2/aug-cc-pvtz', properties = ['dipole'])
--------------------------------------------------------------------------

    Molecular point group: c1
  Charge       = 0
  Multiplicity = 1
  Basis Set: AUG-CC-PVTZ
    Blend: AUG-CC-PVTZ
  Basis Set: (AUG-CC-PVTZ AUX)
    Blend: AUG-CC-PVTZ-JKFIT

    Orbital Energies [Eh]
    ---------------------

    Doubly Occupied:

       1A   -104.851840     2A   -104.850782     3A    -11.366395
       4A    -10.576120     5A    -10.575146     6A     -8.042979
       7A     -8.042003     8A     -8.041011     9A     -8.040914
      10A     -8.040039    11A     -8.039939    12A     -1.192450
      13A     -1.099294    14A     -0.895218    15A     -0.675193
      16A     -0.615327    17A     -0.587828    18A     -0.475875
      19A     -0.469290    20A     -0.451763    21A     -0.445237

  @DF-RHF Final Energy:  -958.07870892360643

   => Energetics <=

    Nuclear Repulsion Energy =            133.7716124428979469
    One-Electron Energy =               -1588.9513590545002444
    Two-Electron Energy =                 497.1010376879957562
    Total Energy =                       -958.0787089236064276
  Basis Set: (AUG-CC-PVTZ AUX)
    Blend: AUG-CC-PVTZ-RI
    Molecular point group: c1

    Geometry (in Angstrom), charge = 0, multiplicity = 1:

       Center              X                  Y                   Z               Mass
    ------------   -----------------  -----------------  -----------------  -----------------
         CL          -1.494616914439    -0.147422199705    -0.000000552211    34.968852682000
         CL           1.489079985561    -0.199501599705    -0.000000552211    34.968852682000
         C            0.013813985561     0.776890400295    -0.000000552211    12.000000000000
         H            0.013808985561     1.393481400295     0.895459447789     1.007825032230
         H            0.013826985561     1.393552400295    -0.895414552211     1.007825032230

  Basis Set: AUG-CC-PVTZ
    Blend: AUG-CC-PVTZ
  Basis Set: (AUG-CC-PVTZ AUX)
    Blend: AUG-CC-PVTZ-JKFIT
	 Reference Energy          =    -958.0787089236064276 [Eh]
	 Singles Energy            =      -0.0000000000000000 [Eh]
	 Same-Spin Energy          =      -0.1623084884924749 [Eh]
	 Opposite-Spin Energy      =      -0.4945167821851938 [Eh]
	 Correlation Energy        =      -0.6568252706776687 [Eh]
	 Total Energy              =    -958.7355341942841278 [Eh]

	 ================> DF-SCS-MP2 Energies <==================
	-----------------------------------------------------------
	 SCS Same-Spin Scale       =       0.3333333333333333 [-]
	 SCS Opposite-Spin Scale   =       1.2000000000000000 [-]
	 SCS Same-Spin Energy      =      -0.0541028294974916 [Eh]
	 SCS Opposite-Spin Energy  =      -0.5934201386222325 [Eh]
	 SCS Correlation Energy    =      -0.6475229681197242 [Eh]
	 SCS Total Energy          =    -958.7262318917261155 [Eh]
	-----------------------------------------------------------

  Dipole Moment: [D]
     X:     0.0356      Y:     1.6006      Z:     0.0000     Total:     1.6010

*** Psi4 exiting successfully. Buy a developer a beer!
