                               Psi4 1.3.2 release

  ==> Input File <==

--------------------------------------------------------------------------
#psi4
#
memory 32 gb

molecule  {
0 1
 Cl       -1.4913284    -0.1891108     0.0535408
 Cl        1.4752610    -0.2153420    -0.0000010
  C       -0.0000050     0.7610500    -0.0000010
  H       -0.0000100     1.3776410     0.8954590
  H        0.0000080     1.3777120    -0.8954150
units angstrom
no_reorient  #important for SAPT in psi4, default
symmetry c1  #important for SAPT in psi4, default
}

set PROPERTIES_ORIGIN ["COM"]
properties('MP2/aug-cc-pvtz', properties = ['dipole'])
--------------------------------------------------------------------------

    Molecular point group: c1
  Charge       = 0
  Multiplicity = 1
  Basis Set: AUG-CC-PVTZ
    Blend: AUG-CC-PVTZ
  Basis Set: (AUG-CC-PVTZ AUX)
    Blend: AUG-CC-PVTZ-JKFIT

    Orbital Energies [Eh]
    ---------------------

    Doubly Occupied:

       1A   -104.851223     2A   -104.850708     3A    -11.366518
       4A    -10.575552     5A    -10.575080     6A     -8.042409
       7A     -8.041936     8A     -8.040442     9A     -8.040346
      10A     -8.039970    11A     -8.039873    12A     -1.192779
      13A     -1.098470    14A     -0.895501    15A     -0.675243
      16A     -0.616221    17A     -0.586984    18A     -0.475272
      19A     -0.470241    20A     -0.450421    21A     -0.445536

  @DF-RHF Final Energy:  -958.07878187217875

   => Energetics <=

    Nuclear Repulsion Energy =            134.0430424411431147
    One-Electron Energy =               -1589.5022010347902324
    Two-Electron Energy =                 497.3803767214683376
    Total Energy =                       -958.0787818721787517
  Basis Set: (AUG-CC-PVTZ AUX)
    Blend: AUG-CC-PVTZ-RI
    Molecular point group: c1

    Geometry (in Angstrom), charge = 0, multiplicity = 1:

       Center              X                  Y                   Z               Mass
    ------------   -----------------  -----------------  -----------------  -----------------
         CL          -1.484635152823    -0.162503922376     0.031239633911    34.968852682000
         CL           1.481954247177    -0.188735122376    -0.022302166089    34.968852682000
         C            0.006688247177     0.787656877624    -0.022302166089    12.000000000000
         H            0.006683247177     1.404247877624     0.873157833911     1.007825032230
         H            0.006701247177     1.404318877624    -0.917716166089     1.007825032230

  Basis Set: AUG-CC-PVTZ
    Blend: AUG-CC-PVTZ
  Basis Set: (AUG-CC-PVTZ AUX)
    Blend: AUG-CC-PVTZ-JKFIT
	 Reference Energy          =    -958.0787818721787517 [Eh]
	 Singles Energy            =      -0.0000000000000000 [Eh]
	 Same-Spin Energy          =      -0.1623214631619775 [Eh]
	 Opposite-Spin Energy      =      -0.4945127768146537 [Eh]
	 Correlation Energy        =      -0.6568342399766312 [Eh]
	 Total Energy              =    -958.7356161121554123 [Eh]

	 ================> DF-SCS-MP2 Energies <==================
	-----------------------------------------------------------
	 SCS Same-Spin Scale       =       0.3333333333333333 [-]
	 SCS Opposite-Spin Scale   =       1.2000000000000000 [-]
	 SCS Same-Spin Energy      =      -0.0541071543873258 [Eh]
	 SCS Opposite-Spin Energy  =      -0.5934153321775844 [Eh]
	 SCS Correlation Energy    =      -0.6475224865649102 [Eh]
	 SCS Total Energy          =    -958.7263043587436186 [Eh]
	-----------------------------------------------------------

  Dipole Moment: [D]
     X:     0.0173      Y:     1.6153      Z:    -0.0289     Total:     1.6156

*** Psi4 exiting successfully. Buy a developer a beer!
