                               Psi4 1.3.2 release

  ==> Input File <==

--------------------------------------------------------------------------
#psi4
#
memory 32 gb

molecule  {
0 1
 Cl       -1.4752590    -0.2153430    -0.0000010
 Cl        1.4752610    -0.2153420    -0.0000010
  C       -0.0000050     0.7610500    -0.0000010
  H       -0.0000100     1.3776410     0.8954590
  H        0.0000080     1.3777120    -0.8954150
units angstrom
no_reorient  #important for SAPT in psi4, default
symmetry c1  #important for SAPT in psi4, default
}

set PROPERTIES_ORIGIN ["COM"]
properties('MP2/aug-cc-pvtz', properties = ['dipole'])
--------------------------------------------------------------------------

    Molecular point group: c1
  Charge       = 0
  Multiplicity = 1
  Basis Set: AUG-CC-PVTZ
    Blend: AUG-CC-PVTZ
  Basis Set: (AUG-CC-PVTZ AUX)
    Blend: AUG-CC-PVTZ-JKFIT

    Orbital Energies [Eh]
    ---------------------

    Doubly Occupied:

       1A   -104.850614     2A   -104.850613     3A    -11.366655
       4A    -10.574997     5A    -10.574989     6A     -8.041849
       7A     -8.041848     8A     -8.039882     9A     -8.039880
      10A     -8.039787    11A     -8.039785    12A     -1.193090
      13A     -1.097632    14A     -0.895794    15A     -0.675210
      16A     -0.617135    17A     -0.586196    18A     -0.474657
      19A     -0.471124    20A     -0.449059    21A     -0.446001

  @DF-RHF Final Energy:  -958.07901506814403

   => Energetics <=

    Nuclear Repulsion Energy =            134.3107668966056281
    One-Electron Energy =               -1590.0459683983669947
    Two-Electron Energy =                 497.6561864336173358
    Total Energy =                       -958.0790150681440309
  Basis Set: (AUG-CC-PVTZ AUX)
    Blend: AUG-CC-PVTZ-RI
    Molecular point group: c1

    Geometry (in Angstrom), charge = 0, multiplicity = 1:

       Center              X                  Y                   Z               Mass
    ------------   -----------------  -----------------  -----------------  -----------------
         CL          -1.475259094363    -0.177809698618    -0.000000552211    34.968852682000
         CL           1.475260905637    -0.177808698618    -0.000000552211    34.968852682000
         C           -0.000005094363     0.798583301382    -0.000000552211    12.000000000000
         H           -0.000010094363     1.415174301382     0.895459447789     1.007825032230
         H            0.000007905637     1.415245301382    -0.895414552211     1.007825032230

  Basis Set: AUG-CC-PVTZ
    Blend: AUG-CC-PVTZ
  Basis Set: (AUG-CC-PVTZ AUX)
    Blend: AUG-CC-PVTZ-JKFIT
	 Reference Energy          =    -958.0790150681440309 [Eh]
	 Singles Energy            =      -0.0000000000000000 [Eh]
	 Same-Spin Energy          =      -0.1623275719956739 [Eh]
	 Opposite-Spin Energy      =      -0.4944973973399023 [Eh]
	 Correlation Energy        =      -0.6568249693355762 [Eh]
	 Total Energy              =    -958.7358400374796474 [Eh]

	 ================> DF-SCS-MP2 Energies <==================
	-----------------------------------------------------------
	 SCS Same-Spin Scale       =       0.3333333333333333 [-]
	 SCS Opposite-Spin Scale   =       1.2000000000000000 [-]
	 SCS Same-Spin Energy      =      -0.0541091906652246 [Eh]
	 SCS Opposite-Spin Energy  =      -0.5933968768078827 [Eh]
	 SCS Correlation Energy    =      -0.6475060674731073 [Eh]
	 SCS Total Energy          =    -958.7265211356171903 [Eh]
	-----------------------------------------------------------

  Dipole Moment: [D]
     X:    -0.0000      Y:     1.6299      Z:     0.0000     Total:     1.6299

*** Psi4 exiting successfully. Buy a developer a beer!
