                               Psi4 1.3.2 release

  ==> Input File <==

--------------------------------------------------------------------------
#psi4
#
memory 32 gb

molecule  {
0 1
 Cl       -1.4752590    -0.2153430    -0.0000010
 Cl        1.4752610    -0.2153420    -0.0000010
  C       -0.0833950     0.7058585    -0.0000010
  H       -0.0000100     1.3776410     0.8954590
  H        0.0000080     1.3777120    -0.8954150
units angstrom
no_reorient  #important for SAPT in psi4, default
symmetry c1  #important for SAPT in psi4, default
}

set PROPERTIES_ORIGIN ["COM"]
properties('MP2/aug-cc-pvtz', properties = ['dipole'])
--------------------------------------------------------------------------

    Molecular point group: c1
  Charge       = 0
  Multiplicity = 1
  Basis Set: AUG-CC-PVTZ
    Blend: AUG-CC-PVTZ
  Basis Set: (AUG-CC-PVTZ AUX)
    Blend: AUG-CC-PVTZ-JKFIT

    Orbital Energies [Eh]
    ---------------------

    Doubly Occupied:

       1A   -104.859904     2A   -104.842508     3A    -11.367084
       4A    -10.586007     5A    -10.566549     6A     -8.053125
       7A     -8.050824     8A     -8.050689     9A     -8.033319
      10A     -8.031456    11A     -8.031366    12A     -1.208413
      13A     -1.099783    14A     -0.884281    15A     -0.661771
      16A     -0.632093    17A     -0.591855    18A     -0.477167
      19A     -0.466271    20A     -0.451525    21A     -0.437254

  @DF-RHF Final Energy:  -958.07019302466733

   => Energetics <=

    Nuclear Repulsion Energy =            135.2569211363476995
    One-Electron Energy =               -1591.8877401107390597
    Two-Electron Energy =                 498.5606259497239989
    Total Energy =                       -958.0701930246673328
  Basis Set: (AUG-CC-PVTZ AUX)
    Blend: AUG-CC-PVTZ-RI
    Molecular point group: c1

    Geometry (in Angstrom), charge = 0, multiplicity = 1:

       Center              X                  Y                   Z               Mass
    ------------   -----------------  -----------------  -----------------  -----------------
         CL          -1.463339618424    -0.169920817982    -0.000000552211    34.968852682000
         CL           1.487180381576    -0.169919817982    -0.000000552211    34.968852682000
         C           -0.071475618424     0.751280682018    -0.000000552211    12.000000000000
         H            0.011909381576     1.423063182018     0.895459447789     1.007825032230
         H            0.011927381576     1.423134182018    -0.895414552211     1.007825032230

  Basis Set: AUG-CC-PVTZ
    Blend: AUG-CC-PVTZ
  Basis Set: (AUG-CC-PVTZ AUX)
    Blend: AUG-CC-PVTZ-JKFIT
	 Reference Energy          =    -958.0701930246673328 [Eh]
	 Singles Energy            =      -0.0000000000000000 [Eh]
	 Same-Spin Energy          =      -0.1632282548625484 [Eh]
	 Opposite-Spin Energy      =      -0.4953155939348217 [Eh]
	 Correlation Energy        =      -0.6585438487973700 [Eh]
	 Total Energy              =    -958.7287368734647544 [Eh]

	 ================> DF-SCS-MP2 Energies <==================
	-----------------------------------------------------------
	 SCS Same-Spin Scale       =       0.3333333333333333 [-]
	 SCS Opposite-Spin Scale   =       1.2000000000000000 [-]
	 SCS Same-Spin Energy      =      -0.0544094182875161 [Eh]
	 SCS Opposite-Spin Energy  =      -0.5943787127217860 [Eh]
	 SCS Correlation Energy    =      -0.6487881310093021 [Eh]
	 SCS Total Energy          =    -958.7189811556766017 [Eh]
	-----------------------------------------------------------

  Dipole Moment: [D]
     X:    -0.5163      Y:     1.5327      Z:     0.0000     Total:     1.6173

*** Psi4 exiting successfully. Buy a developer a beer!
