                               Psi4 1.3.2 release

  ==> Input File <==

--------------------------------------------------------------------------
#psi4
#
memory 32 gb

molecule  {
0 1
 Cl       -1.4665490    -0.2280150    -0.0267760
 Cl        1.4752610    -0.2153420    -0.0000010
  C       -0.0000050     0.7610500    -0.0000010
  H       -0.0000100     1.3776410     0.8954590
  H        0.0000080     1.3777120    -0.8954150
units angstrom
no_reorient  #important for SAPT in psi4, default
symmetry c1  #important for SAPT in psi4, default
}

set PROPERTIES_ORIGIN ["COM"]
properties('MP2/aug-cc-pvtz', properties = ['dipole'])
--------------------------------------------------------------------------

    Molecular point group: c1
  Charge       = 0
  Multiplicity = 1
  Basis Set: AUG-CC-PVTZ
    Blend: AUG-CC-PVTZ
  Basis Set: (AUG-CC-PVTZ AUX)
    Blend: AUG-CC-PVTZ-JKFIT

    Orbital Energies [Eh]
    ---------------------

    Doubly Occupied:

       1A   -104.850569     2A   -104.850301     3A    -11.366716
       4A    -10.574954     5A    -10.574706     6A     -8.041809
       7A     -8.041561     8A     -8.039840     9A     -8.039746
      10A     -8.039593    11A     -8.039499    12A     -1.193270
      13A     -1.097206    14A     -0.895938    15A     -0.675230
      16A     -0.617589    17A     -0.585763    18A     -0.474347
      19A     -0.471599    20A     -0.448352    21A     -0.446173

  @DF-RHF Final Energy:  -958.07898965481400

   => Energetics <=

    Nuclear Repulsion Energy =            134.4509785077909214
    One-Electron Energy =               -1590.3304142094655163
    Two-Electron Energy =                 497.8004460468605430
    Total Energy =                       -958.0789896548139950
  Basis Set: (AUG-CC-PVTZ AUX)
    Blend: AUG-CC-PVTZ-RI
    Molecular point group: c1

    Geometry (in Angstrom), charge = 0, multiplicity = 1:

       Center              X                  Y                   Z               Mass
    ------------   -----------------  -----------------  -----------------  -----------------
         CL          -1.470177045923    -0.185203466451    -0.015623037510    34.968852682000
         CL           1.471632954077    -0.172530466451     0.011151962490    34.968852682000
         C           -0.003633045923     0.803861533549     0.011151962490    12.000000000000
         H           -0.003638045923     1.420452533549     0.906611962490     1.007825032230
         H           -0.003620045923     1.420523533549    -0.884262037510     1.007825032230

  Basis Set: AUG-CC-PVTZ
    Blend: AUG-CC-PVTZ
  Basis Set: (AUG-CC-PVTZ AUX)
    Blend: AUG-CC-PVTZ-JKFIT
	 Reference Energy          =    -958.0789896548139950 [Eh]
	 Singles Energy            =      -0.0000000000000000 [Eh]
	 Same-Spin Energy          =      -0.1623365821717807 [Eh]
	 Opposite-Spin Energy      =      -0.4945002257319674 [Eh]
	 Correlation Energy        =      -0.6568368079037481 [Eh]
	 Total Energy              =    -958.7358264627177959 [Eh]

	 ================> DF-SCS-MP2 Energies <==================
	-----------------------------------------------------------
	 SCS Same-Spin Scale       =       0.3333333333333333 [-]
	 SCS Opposite-Spin Scale   =       1.2000000000000000 [-]
	 SCS Same-Spin Energy      =      -0.0541121940572602 [Eh]
	 SCS Opposite-Spin Energy  =      -0.5934002708783609 [Eh]
	 SCS Correlation Energy    =      -0.6475124649356211 [Eh]
	 SCS Total Energy          =    -958.7265021197496253 [Eh]
	-----------------------------------------------------------

  Dipole Moment: [D]
     X:    -0.0091      Y:     1.6369      Z:     0.0144     Total:     1.6370

*** Psi4 exiting successfully. Buy a developer a beer!
