                               Psi4 1.3.2 release

  ==> Input File <==

--------------------------------------------------------------------------
#psi4
#
memory 32 gb

molecule  {
0 1
 Cl       -1.4035556    -0.3158731    -0.0000010
 Cl        1.4752610    -0.2153420    -0.0000010
  C       -0.0000050     0.7610500    -0.0000010
  H       -0.0000100     1.3776410     0.8954590
  H        0.0000080     1.3777120    -0.8954150
units angstrom
no_reorient  #important for SAPT in psi4, default
symmetry c1  #important for SAPT in psi4, default
}

set PROPERTIES_ORIGIN ["COM"]
properties('MP2/aug-cc-pvtz', properties = ['dipole'])
--------------------------------------------------------------------------

    Molecular point group: c1
  Charge       = 0
  Multiplicity = 1
  Basis Set: AUG-CC-PVTZ
    Blend: AUG-CC-PVTZ
  Basis Set: (AUG-CC-PVTZ AUX)
    Blend: AUG-CC-PVTZ-JKFIT

    Orbital Energies [Eh]
    ---------------------

    Doubly Occupied:

       1A   -104.850185     2A   -104.848059     3A    -11.367140
       4A    -10.574618     5A    -10.572658     6A     -8.041467
       7A     -8.039504     8A     -8.039489     9A     -8.039402
      10A     -8.037535    11A     -8.037443    12A     -1.194684
      13A     -1.094053    14A     -0.896982    15A     -0.675332
      16A     -0.620835    17A     -0.582628    18A     -0.475010
      19A     -0.472077    20A     -0.447578    21A     -0.443004

  @DF-RHF Final Energy:  -958.07826991615855

   => Energetics <=

    Nuclear Repulsion Energy =            135.4847360138388126
    One-Electron Energy =               -1592.4266454188618809
    Two-Electron Energy =                 498.8636394888645782
    Total Energy =                       -958.0782699161585469
  Basis Set: (AUG-CC-PVTZ AUX)
    Blend: AUG-CC-PVTZ-RI
    Molecular point group: c1

    Geometry (in Angstrom), charge = 0, multiplicity = 1:

       Center              X                  Y                   Z               Mass
    ------------   -----------------  -----------------  -----------------  -----------------
         CL          -1.433422107904    -0.236466281603    -0.000000552211    34.968852682000
         CL           1.445394492096    -0.135935181603    -0.000000552211    34.968852682000
         C           -0.029871507904     0.840456818397    -0.000000552211    12.000000000000
         H           -0.029876507904     1.457047818397     0.895459447789     1.007825032230
         H           -0.029858507904     1.457118818397    -0.895414552211     1.007825032230

  Basis Set: AUG-CC-PVTZ
    Blend: AUG-CC-PVTZ
  Basis Set: (AUG-CC-PVTZ AUX)
    Blend: AUG-CC-PVTZ-JKFIT
	 Reference Energy          =    -958.0782699161585469 [Eh]
	 Singles Energy            =      -0.0000000000000000 [Eh]
	 Same-Spin Energy          =      -0.1624227613776859 [Eh]
	 Opposite-Spin Energy      =      -0.4945609000909563 [Eh]
	 Correlation Energy        =      -0.6569836614686422 [Eh]
	 Total Energy              =    -958.7352535776271907 [Eh]

	 ================> DF-SCS-MP2 Energies <==================
	-----------------------------------------------------------
	 SCS Same-Spin Scale       =       0.3333333333333333 [-]
	 SCS Opposite-Spin Scale   =       1.2000000000000000 [-]
	 SCS Same-Spin Energy      =      -0.0541409204592286 [Eh]
	 SCS Opposite-Spin Energy  =      -0.5934730801091476 [Eh]
	 SCS Correlation Energy    =      -0.6476140005683761 [Eh]
	 SCS Total Energy          =    -958.7258839167269571 [Eh]
	-----------------------------------------------------------

  Dipole Moment: [D]
     X:    -0.0726      Y:     1.6845      Z:     0.0000     Total:     1.6861

*** Psi4 exiting successfully. Buy a developer a beer!
