                               Psi4 1.3.2 release

  ==> Input File <==

--------------------------------------------------------------------------
#psi4
#
memory 32 gb

molecule  {
0 1
 Cl       -1.5397751    -0.1100560    -0.0000010
 Cl        1.4752610    -0.2153420    -0.0000010
  C       -0.0000050     0.7610500    -0.0000010
  H       -0.0000100     1.3776410     0.8954590
  H        0.0000080     1.3777120    -0.8954150
units angstrom
no_reorient  #important for SAPT in psi4, default
symmetry c1  #important for SAPT in psi4, default
}

set PROPERTIES_ORIGIN ["COM"]
properties('MP2/aug-cc-pvtz', properties = ['dipole'])
--------------------------------------------------------------------------

    Molecular point group: c1
  Charge       = 0
  Multiplicity = 1
  Basis Set: AUG-CC-PVTZ
    Blend: AUG-CC-PVTZ
  Basis Set: (AUG-CC-PVTZ AUX)
    Blend: AUG-CC-PVTZ-JKFIT

    Orbital Energies [Eh]
    ---------------------

    Doubly Occupied:

       1A   -104.853035     2A   -104.850922     3A    -11.366125
       4A    -10.577220     5A    -10.575277     6A     -8.044082
       7A     -8.042135     8A     -8.042113     9A     -8.042013
      10A     -8.040172    11A     -8.040068    12A     -1.191902
      13A     -1.100878    14A     -0.894649    15A     -0.675207
      16A     -0.613575    17A     -0.589336    18A     -0.477047
      19A     -0.467511    20A     -0.454267    21A     -0.444485

  @DF-RHF Final Energy:  -958.07797736707198

   => Energetics <=

    Nuclear Repulsion Energy =            133.2625464812948621
    One-Electron Energy =               -1587.9170105006348876
    Two-Electron Energy =                 496.5764866522682155
    Total Energy =                       -958.0779773670719806
  Basis Set: (AUG-CC-PVTZ AUX)
    Blend: AUG-CC-PVTZ-RI
    Molecular point group: c1

    Geometry (in Angstrom), charge = 0, multiplicity = 1:

       Center              X                  Y                   Z               Mass
    ------------   -----------------  -----------------  -----------------  -----------------
         CL          -1.512902486476    -0.116377593679    -0.000000552211    34.968852682000
         CL           1.502133613524    -0.221663593679    -0.000000552211    34.968852682000
         C            0.026867613524     0.754728406321    -0.000000552211    12.000000000000
         H            0.026862613524     1.371319406321     0.895459447789     1.007825032230
         H            0.026880613524     1.371390406321    -0.895414552211     1.007825032230

  Basis Set: AUG-CC-PVTZ
    Blend: AUG-CC-PVTZ
  Basis Set: (AUG-CC-PVTZ AUX)
    Blend: AUG-CC-PVTZ-JKFIT
	 Reference Energy          =    -958.0779773670719806 [Eh]
	 Singles Energy            =      -0.0000000000000000 [Eh]
	 Same-Spin Energy          =      -0.1623071163515025 [Eh]
	 Opposite-Spin Energy      =      -0.4945689800826153 [Eh]
	 Correlation Energy        =      -0.6568760964341178 [Eh]
	 Total Energy              =    -958.7348534635060560 [Eh]

	 ================> DF-SCS-MP2 Energies <==================
	-----------------------------------------------------------
	 SCS Same-Spin Scale       =       0.3333333333333333 [-]
	 SCS Opposite-Spin Scale   =       1.2000000000000000 [-]
	 SCS Same-Spin Energy      =      -0.0541023721171675 [Eh]
	 SCS Opposite-Spin Energy  =      -0.5934827760991384 [Eh]
	 SCS Correlation Energy    =      -0.6475851482163059 [Eh]
	 SCS Total Energy          =    -958.7255625152882885 [Eh]
	-----------------------------------------------------------

  Dipole Moment: [D]
     X:     0.0706      Y:     1.5703      Z:     0.0000     Total:     1.5718

*** Psi4 exiting successfully. Buy a developer a beer!
