                               Psi4 1.3.2 release

  ==> Input File <==

--------------------------------------------------------------------------
#psi4
#
memory 32 gb

molecule  {
0 1
 Cl       -1.4402847    -0.2662338    -0.0000010
 Cl        1.4752610    -0.2153420    -0.0000010
  C       -0.0000050     0.7610500    -0.0000010
  H       -0.0000100     1.3776410     0.8954590
  H        0.0000080     1.3777120    -0.8954150
units angstrom
no_reorient  #important for SAPT in psi4, default
symmetry c1  #important for SAPT in psi4, default
}

set PROPERTIES_ORIGIN ["COM"]
properties('MP2/aug-cc-pvtz', properties = ['dipole'])
--------------------------------------------------------------------------

    Molecular point group: c1
  Charge       = 0
  Multiplicity = 1
  Basis Set: AUG-CC-PVTZ
    Blend: AUG-CC-PVTZ
  Basis Set: (AUG-CC-PVTZ AUX)
    Blend: AUG-CC-PVTZ-JKFIT

    Orbital Energies [Eh]
    ---------------------

    Doubly Occupied:

       1A   -104.850416     2A   -104.849353     3A    -11.366905
       4A    -10.574818     5A    -10.573838     6A     -8.041671
       7A     -8.040690     8A     -8.039699     9A     -8.039608
      10A     -8.038721    11A     -8.038628    12A     -1.193831
      13A     -1.095888    14A     -0.896381    15A     -0.675257
      16A     -0.618976    17A     -0.584458    18A     -0.473392
      19A     -0.473026    20A     -0.446779    21A     -0.446145

  @DF-RHF Final Energy:  -958.07887643786410

   => Energetics <=

    Nuclear Repulsion Energy =            134.8813332926748103
    One-Electron Energy =               -1591.2034602447338330
    Two-Electron Energy =                 498.2432505141950401
    Total Energy =                       -958.0788764378639826
  Basis Set: (AUG-CC-PVTZ AUX)
    Blend: AUG-CC-PVTZ-RI
    Molecular point group: c1

    Geometry (in Angstrom), charge = 0, multiplicity = 1:

       Center              X                  Y                   Z               Mass
    ------------   -----------------  -----------------  -----------------  -----------------
         CL          -1.454852540203    -0.207503098240    -0.000000552211    34.968852682000
         CL           1.460693159797    -0.156611298240    -0.000000552211    34.968852682000
         C           -0.014572840203     0.819780701760    -0.000000552211    12.000000000000
         H           -0.014577840203     1.436371701760     0.895459447789     1.007825032230
         H           -0.014559840203     1.436442701760    -0.895414552211     1.007825032230

  Basis Set: AUG-CC-PVTZ
    Blend: AUG-CC-PVTZ
  Basis Set: (AUG-CC-PVTZ AUX)
    Blend: AUG-CC-PVTZ-JKFIT
	 Reference Energy          =    -958.0788764378640963 [Eh]
	 Singles Energy            =      -0.0000000000000000 [Eh]
	 Same-Spin Energy          =      -0.1623653158691835 [Eh]
	 Opposite-Spin Energy      =      -0.4945117668946508 [Eh]
	 Correlation Energy        =      -0.6568770827638344 [Eh]
	 Total Energy              =    -958.7357535206278953 [Eh]

	 ================> DF-SCS-MP2 Energies <==================
	-----------------------------------------------------------
	 SCS Same-Spin Scale       =       0.3333333333333333 [-]
	 SCS Opposite-Spin Scale   =       1.2000000000000000 [-]
	 SCS Same-Spin Energy      =      -0.0541217719563945 [Eh]
	 SCS Opposite-Spin Energy  =      -0.5934141202735810 [Eh]
	 SCS Correlation Energy    =      -0.6475358922299754 [Eh]
	 SCS Total Energy          =    -958.7264123300940355 [Eh]
	-----------------------------------------------------------

  Dipole Moment: [D]
     X:    -0.0361      Y:     1.6578      Z:     0.0000     Total:     1.6582

*** Psi4 exiting successfully. Buy a developer a beer!
