                               Psi4 1.3.2 release

  ==> Input File <==

--------------------------------------------------------------------------
#psi4
#
memory 32 gb

molecule  {
0 1
 Cl       -1.4377499    -0.2642082    -0.1070194
 Cl        1.4752610    -0.2153420    -0.0000010
  C       -0.0000050     0.7610500    -0.0000010
  H       -0.0000100     1.3776410     0.8954590
  H        0.0000080     1.3777120    -0.8954150
units angstrom
no_reorient  #important for SAPT in psi4, default
symmetry c1  #important for SAPT in psi4, default
}

set PROPERTIES_ORIGIN ["COM"]
properties('MP2/aug-cc-pvtz', properties = ['dipole'])
--------------------------------------------------------------------------

    Molecular point group: c1
  Charge       = 0
  Multiplicity = 1
  Basis Set: AUG-CC-PVTZ
    Blend: AUG-CC-PVTZ
  Basis Set: (AUG-CC-PVTZ AUX)
    Blend: AUG-CC-PVTZ-JKFIT

    Orbital Energies [Eh]
    ---------------------

    Doubly Occupied:

       1A   -104.850439     2A   -104.849338     3A    -11.366872
       4A    -10.574844     5A    -10.573823     6A     -8.041697
       7A     -8.040675     8A     -8.039722     9A     -8.039631
      10A     -8.038706    11A     -8.038613    12A     -1.193908
      13A     -1.095894    14A     -0.896363    15A     -0.675434
      16A     -0.618919    17A     -0.584323    18A     -0.473455
      19A     -0.473093    20A     -0.446483    21A     -0.446111

  @DF-RHF Final Energy:  -958.07834647760546

   => Energetics <=

    Nuclear Repulsion Energy =            134.8972795441280255
    One-Electron Energy =               -1591.2345637840967356
    Two-Electron Energy =                 498.2589377623633027
    Total Energy =                       -958.0783464776054643
  Basis Set: (AUG-CC-PVTZ AUX)
    Blend: AUG-CC-PVTZ-RI
    Molecular point group: c1

    Geometry (in Angstrom), charge = 0, multiplicity = 1:

       Center              X                  Y                   Z               Mass
    ------------   -----------------  -----------------  -----------------  -----------------
         CL          -1.453373553248    -0.206321215655    -0.062442882026    34.968852682000
         CL           1.459637346752    -0.157455015655     0.044575517974    34.968852682000
         C           -0.015628653248     0.818936984345     0.044575517974    12.000000000000
         H           -0.015633653248     1.435527984345     0.940035517974     1.007825032230
         H           -0.015615653248     1.435598984345    -0.850838482026     1.007825032230

  Basis Set: AUG-CC-PVTZ
    Blend: AUG-CC-PVTZ
  Basis Set: (AUG-CC-PVTZ AUX)
    Blend: AUG-CC-PVTZ-JKFIT
	 Reference Energy          =    -958.0783464776054643 [Eh]
	 Singles Energy            =      -0.0000000000000000 [Eh]
	 Same-Spin Energy          =      -0.1623873846504254 [Eh]
	 Opposite-Spin Energy      =      -0.4945507676030944 [Eh]
	 Correlation Energy        =      -0.6569381522535198 [Eh]
	 Total Energy              =    -958.7352846298589384 [Eh]

	 ================> DF-SCS-MP2 Energies <==================
	-----------------------------------------------------------
	 SCS Same-Spin Scale       =       0.3333333333333333 [-]
	 SCS Opposite-Spin Scale   =       1.2000000000000000 [-]
	 SCS Same-Spin Energy      =      -0.0541291282168085 [Eh]
	 SCS Opposite-Spin Energy  =      -0.5934609211237133 [Eh]
	 SCS Correlation Energy    =      -0.6475900493405218 [Eh]
	 SCS Total Energy          =    -958.7259365269459295 [Eh]
	-----------------------------------------------------------

  Dipole Moment: [D]
     X:    -0.0375      Y:     1.6571      Z:     0.0571     Total:     1.6585

*** Psi4 exiting successfully. Buy a developer a beer!
