                               Psi4 1.3.2 release

  ==> Input File <==

--------------------------------------------------------------------------
#psi4
#
memory 32 gb

molecule  {
0 1
 Cl       -1.4163559    -0.2867816    -0.1603655
 Cl        1.4752610    -0.2153420    -0.0000010
  C       -0.0000050     0.7610500    -0.0000010
  H       -0.0000100     1.3776410     0.8954590
  H        0.0000080     1.3777120    -0.8954150
units angstrom
no_reorient  #important for SAPT in psi4, default
symmetry c1  #important for SAPT in psi4, default
}

set PROPERTIES_ORIGIN ["COM"]
properties('MP2/aug-cc-pvtz', properties = ['dipole'])
--------------------------------------------------------------------------

    Molecular point group: c1
  Charge       = 0
  Multiplicity = 1
  Basis Set: AUG-CC-PVTZ
    Blend: AUG-CC-PVTZ
  Basis Set: (AUG-CC-PVTZ AUX)
    Blend: AUG-CC-PVTZ-JKFIT

    Orbital Energies [Eh]
    ---------------------

    Doubly Occupied:

       1A   -104.850353     2A   -104.848674     3A    -11.366955
       4A    -10.574776     5A    -10.573216     6A     -8.041627
       7A     -8.040064     8A     -8.039647     9A     -8.039556
      10A     -8.038096    11A     -8.038003    12A     -1.194417
      13A     -1.094989    14A     -0.896642    15A     -0.675687
      16A     -0.619774    17A     -0.583253    18A     -0.474302
      19A     -0.472723    20A     -0.446530    21A     -0.444519

  @DF-RHF Final Energy:  -958.07744488888170

   => Energetics <=

    Nuclear Repulsion Energy =            135.2164342285580574
    One-Electron Energy =               -1591.8801525418296023
    Two-Electron Energy =                 498.5862734243899013
    Total Energy =                       -958.0774448888817005
  Basis Set: (AUG-CC-PVTZ AUX)
    Blend: AUG-CC-PVTZ-RI
    Molecular point group: c1

    Geometry (in Angstrom), charge = 0, multiplicity = 1:

       Center              X                  Y                   Z               Mass
    ------------   -----------------  -----------------  -----------------  -----------------
         CL          -1.440890735302    -0.219492181469    -0.093568882513    34.968852682000
         CL           1.450726164698    -0.148052581469     0.066795617487    34.968852682000
         C           -0.024539835302     0.828339418531     0.066795617487    12.000000000000
         H           -0.024544835302     1.444930418531     0.962255617487     1.007825032230
         H           -0.024526835302     1.445001418531    -0.828618382513     1.007825032230

  Basis Set: AUG-CC-PVTZ
    Blend: AUG-CC-PVTZ
  Basis Set: (AUG-CC-PVTZ AUX)
    Blend: AUG-CC-PVTZ-JKFIT
	 Reference Energy          =    -958.0774448888817005 [Eh]
	 Singles Energy            =      -0.0000000000000000 [Eh]
	 Same-Spin Energy          =      -0.1624410768729579 [Eh]
	 Opposite-Spin Energy      =      -0.4946196242932170 [Eh]
	 Correlation Energy        =      -0.6570607011661749 [Eh]
	 Total Energy              =    -958.7345055900478883 [Eh]

	 ================> DF-SCS-MP2 Energies <==================
	-----------------------------------------------------------
	 SCS Same-Spin Scale       =       0.3333333333333333 [-]
	 SCS Opposite-Spin Scale   =       1.2000000000000000 [-]
	 SCS Same-Spin Energy      =      -0.0541470256243193 [Eh]
	 SCS Opposite-Spin Energy  =      -0.5935435491518604 [Eh]
	 SCS Correlation Energy    =      -0.6476905747761796 [Eh]
	 SCS Total Energy          =    -958.7251354636579208 [Eh]
	-----------------------------------------------------------

  Dipole Moment: [D]
     X:    -0.0575      Y:     1.6697      Z:     0.0851     Total:     1.6729

*** Psi4 exiting successfully. Buy a developer a beer!
