                               Psi4 1.3.2 release

  ==> Input File <==

--------------------------------------------------------------------------
#psi4
#
memory 32 gb

molecule  {
0 1
 Cl       -1.5055808    -0.1617209     0.1070174
 Cl        1.4752610    -0.2153420    -0.0000010
  C       -0.0000050     0.7610500    -0.0000010
  H       -0.0000100     1.3776410     0.8954590
  H        0.0000080     1.3777120    -0.8954150
units angstrom
no_reorient  #important for SAPT in psi4, default
symmetry c1  #important for SAPT in psi4, default
}

set PROPERTIES_ORIGIN ["COM"]
properties('MP2/aug-cc-pvtz', properties = ['dipole'])
--------------------------------------------------------------------------

    Molecular point group: c1
  Charge       = 0
  Multiplicity = 1
  Basis Set: AUG-CC-PVTZ
    Blend: AUG-CC-PVTZ
  Basis Set: (AUG-CC-PVTZ AUX)
    Blend: AUG-CC-PVTZ-JKFIT

    Orbital Energies [Eh]
    ---------------------

    Doubly Occupied:

       1A   -104.851813     2A   -104.850811     3A    -11.366358
       4A    -10.576093     5A    -10.575178     6A     -8.042952
       7A     -8.042035     8A     -8.040984     9A     -8.040887
      10A     -8.040068    11A     -8.039968    12A     -1.192535
      13A     -1.099291    14A     -0.895201    15A     -0.675372
      16A     -0.615305    17A     -0.587664    18A     -0.475879
      19A     -0.469453    20A     -0.451715    21A     -0.444900

  @DF-RHF Final Energy:  -958.07816853137456

   => Energetics <=

    Nuclear Repulsion Energy =            133.7921252884139278
    One-Electron Energy =               -1588.9916639806483545
    Two-Electron Energy =                 497.1213701608598967
    Total Energy =                       -958.0781685313745584
  Basis Set: (AUG-CC-PVTZ AUX)
    Blend: AUG-CC-PVTZ-RI
    Molecular point group: c1

    Geometry (in Angstrom), charge = 0, multiplicity = 1:

       Center              X                  Y                   Z               Mass
    ------------   -----------------  -----------------  -----------------  -----------------
         CL          -1.492951041132    -0.146522659627     0.062441777604    34.968852682000
         CL           1.487890758868    -0.200143759627    -0.044576622396    34.968852682000
         C            0.012624758868     0.776248240373    -0.044576622396    12.000000000000
         H            0.012619758868     1.392839240373     0.850883377604     1.007825032230
         H            0.012637758868     1.392910240373    -0.939990622396     1.007825032230

  Basis Set: AUG-CC-PVTZ
    Blend: AUG-CC-PVTZ
  Basis Set: (AUG-CC-PVTZ AUX)
    Blend: AUG-CC-PVTZ-JKFIT
	 Reference Energy          =    -958.0781685313745584 [Eh]
	 Singles Energy            =      -0.0000000000000000 [Eh]
	 Same-Spin Energy          =      -0.1623313135397517 [Eh]
	 Opposite-Spin Energy      =      -0.4945563254159560 [Eh]
	 Correlation Energy        =      -0.6568876389557077 [Eh]
	 Total Energy              =    -958.7350561703302674 [Eh]

	 ================> DF-SCS-MP2 Energies <==================
	-----------------------------------------------------------
	 SCS Same-Spin Scale       =       0.3333333333333333 [-]
	 SCS Opposite-Spin Scale   =       1.2000000000000000 [-]
	 SCS Same-Spin Energy      =      -0.0541104378465839 [Eh]
	 SCS Opposite-Spin Energy  =      -0.5934675904991472 [Eh]
	 SCS Correlation Energy    =      -0.6475780283457311 [Eh]
	 SCS Total Energy          =    -958.7257465597202781 [Eh]
	-----------------------------------------------------------

  Dipole Moment: [D]
     X:     0.0336      Y:     1.6001      Z:    -0.0579     Total:     1.6015

*** Psi4 exiting successfully. Buy a developer a beer!
