                               Psi4 1.4a3.dev225

  ==> Input File <==

--------------------------------------------------------------------------
#psi4
#
memory 32 gb

molecule  {
0 1
 Cl        1.4750960    -0.2153180    -0.0000010
 Cl       -1.4750970    -0.2153180    -0.0000010
  C       -0.0166776     0.7718904    -0.0000010
  H        0.0000000     1.3778720    -0.8950780
  H       -0.0000010     1.3778290     0.8951050
units angstrom
no_reorient  #important for SAPT in psi4, default
symmetry c1  #important for SAPT in psi4, default
}

set PROPERTIES_ORIGIN ["COM"]
properties('MP2/aug-cc-pvtz', properties = ['dipole'])
--------------------------------------------------------------------------

    Molecular point group: c1
  Charge       = 0
  Multiplicity = 1
  Basis Set: AUG-CC-PVTZ
    Blend: AUG-CC-PVTZ
  Basis Set: (AUG-CC-PVTZ AUX)
    Blend: AUG-CC-PVTZ-JKFIT

    Orbital Energies [Eh]
    ---------------------

    Doubly Occupied:

       1A   -104.852254     2A   -104.848552     3A    -11.366853
       4A    -10.576711     5A    -10.572693     6A     -8.043583
       7A     -8.041594     8A     -8.041496     9A     -8.039506
      10A     -8.037589    11A     -8.037500    12A     -1.191961
      13A     -1.096151    14A     -0.898004    15A     -0.678256
      16A     -0.616275    17A     -0.584278    18A     -0.474216
      19A     -0.471321    20A     -0.448199    21A     -0.447170

  @DF-RHF Final Energy:  -958.07904467214530

   => Energetics <=

    Nuclear Repulsion Energy =            134.1523770453439681
    One-Electron Energy =               -1589.7345173305416210
    Two-Electron Energy =                 497.5030956130524373
    Total Energy =                       -958.0790446721453009
  Basis Set: (AUG-CC-PVTZ AUX)
    Blend: AUG-CC-PVTZ-RI
    Molecular point group: c1

    Geometry (in Angstrom), charge = 0, multiplicity = 1:

       Center              X                  Y                   Z               Mass
    ------------   -----------------  -----------------  -----------------  -----------------
         CL           1.477480266545    -0.179358775035    -0.000000348133    34.968852682000
         CL          -1.472712733455    -0.179358775035    -0.000000348133    34.968852682000
         C           -0.014293333455     0.807849624965    -0.000000348133    12.000000000000
         H            0.002384266545     1.413831224965    -0.895077348133     1.007825032230
         H            0.002383266545     1.413788224965     0.895105651867     1.007825032230

  Basis Set: AUG-CC-PVTZ
    Blend: AUG-CC-PVTZ
  Basis Set: (AUG-CC-PVTZ AUX)
    Blend: AUG-CC-PVTZ-JKFIT
	 Reference Energy          =    -958.0790446721453009 [Eh]
	 Singles Energy            =      -0.0000000000000000 [Eh]
	 Same-Spin Energy          =      -0.1622255972895565 [Eh]
	 Opposite-Spin Energy      =      -0.4944361555649835 [Eh]
	 Correlation Energy        =      -0.6566617528545401 [Eh]
	 Total Energy              =    -958.7357064249998757 [Eh]

	 ================> DF-SCS-MP2 Energies <==================
	-----------------------------------------------------------
	 SCS Same-Spin Scale       =       0.3333333333333333 [-]
	 SCS Opposite-Spin Scale   =       1.2000000000000000 [-]
	 SCS Same-Spin Energy      =      -0.0540751990965188 [Eh]
	 SCS Opposite-Spin Energy  =      -0.5933233866779802 [Eh]
	 SCS Correlation Energy    =      -0.6473985857744990 [Eh]
	 SCS Total Energy          =    -958.7264432579197546 [Eh]
	-----------------------------------------------------------

  Dipole Moment: [D]
     X:    -0.1017      Y:     1.6478      Z:     0.0000     Total:     1.6510

*** Psi4 exiting successfully. Buy a developer a beer!
