                               Psi4 1.4a3.dev225

  ==> Input File <==

--------------------------------------------------------------------------
#psi4
#
memory 32 gb

molecule  {
0 1
 Cl        1.4750960    -0.2153180    -0.0000010
 Cl       -1.4750970    -0.2153180    -0.0000010
  C        0.0166796     0.7498156    -0.0000010
  H        0.0000000     1.3778720    -0.8950780
  H       -0.0000010     1.3778290     0.8951050
units angstrom
no_reorient  #important for SAPT in psi4, default
symmetry c1  #important for SAPT in psi4, default
}

set PROPERTIES_ORIGIN ["COM"]
properties('MP2/aug-cc-pvtz', properties = ['dipole'])
--------------------------------------------------------------------------

    Molecular point group: c1
  Charge       = 0
  Multiplicity = 1
  Basis Set: AUG-CC-PVTZ
    Blend: AUG-CC-PVTZ
  Basis Set: (AUG-CC-PVTZ AUX)
    Blend: AUG-CC-PVTZ-JKFIT

    Orbital Energies [Eh]
    ---------------------

    Doubly Occupied:

       1A   -104.852601     2A   -104.848989     3A    -11.366429
       4A    -10.577260     5A    -10.573301     6A     -8.044162
       7A     -8.042138     8A     -8.042036     9A     -8.040140
      10A     -8.038193    11A     -8.038100    12A     -1.194980
      13A     -1.098845    14A     -0.893566    15A     -0.672167
      16A     -0.618973    17A     -0.587887    18A     -0.475186
      19A     -0.470688    20A     -0.449810    21A     -0.444553

  @DF-RHF Final Energy:  -958.07846540249022

   => Energetics <=

    Nuclear Repulsion Energy =            134.5055422716479825
    One-Electron Energy =               -1590.4280050966137878
    Two-Electron Energy =                 497.8439974224755815
    Total Energy =                       -958.0784654024902238
  Basis Set: (AUG-CC-PVTZ AUX)
    Blend: AUG-CC-PVTZ-RI
    Molecular point group: c1

    Geometry (in Angstrom), charge = 0, multiplicity = 1:

       Center              X                  Y                   Z               Mass
    ------------   -----------------  -----------------  -----------------  -----------------
         CL           1.472712304646    -0.176203480066    -0.000000348133    34.968852682000
         CL          -1.477480695354    -0.176203480066    -0.000000348133    34.968852682000
         C            0.014295904646     0.788930119934    -0.000000348133    12.000000000000
         H           -0.002383695354     1.416986519934    -0.895077348133     1.007825032230
         H           -0.002384695354     1.416943519934     0.895105651867     1.007825032230

  Basis Set: AUG-CC-PVTZ
    Blend: AUG-CC-PVTZ
  Basis Set: (AUG-CC-PVTZ AUX)
    Blend: AUG-CC-PVTZ-JKFIT
	 Reference Energy          =    -958.0784654024902238 [Eh]
	 Singles Energy            =      -0.0000000000000000 [Eh]
	 Same-Spin Energy          =      -0.1624600034989223 [Eh]
	 Opposite-Spin Energy      =      -0.4945872867739589 [Eh]
	 Correlation Energy        =      -0.6570472902728812 [Eh]
	 Total Energy              =    -958.7355126927631090 [Eh]

	 ================> DF-SCS-MP2 Energies <==================
	-----------------------------------------------------------
	 SCS Same-Spin Scale       =       0.3333333333333333 [-]
	 SCS Opposite-Spin Scale   =       1.2000000000000000 [-]
	 SCS Same-Spin Energy      =      -0.0541533344996407 [Eh]
	 SCS Opposite-Spin Energy  =      -0.5935047441287506 [Eh]
	 SCS Correlation Energy    =      -0.6476580786283914 [Eh]
	 SCS Total Energy          =    -958.7261234811186341 [Eh]
	-----------------------------------------------------------

  Dipole Moment: [D]
     X:     0.1020      Y:     1.6108      Z:     0.0000     Total:     1.6141

*** Psi4 exiting successfully. Buy a developer a beer!
