                               Psi4 1.3.2 release

  ==> Input File <==

--------------------------------------------------------------------------
#psi4
#
memory 32 gb

molecule  {
0 1
 Cl       -1.4752590    -0.2153430    -0.0000010
 Cl        1.4752610    -0.2153420    -0.0000010
  C       -0.1667851     0.6506670    -0.0000010
  H       -0.0000100     1.3776410     0.8954590
  H        0.0000080     1.3777120    -0.8954150
units angstrom
no_reorient  #important for SAPT in psi4, default
symmetry c1  #important for SAPT in psi4, default
}

set PROPERTIES_ORIGIN ["COM"]
properties('MP2/aug-cc-pvtz', properties = ['dipole'])
--------------------------------------------------------------------------

    Molecular point group: c1
  Charge       = 0
  Multiplicity = 1
  Basis Set: AUG-CC-PVTZ
    Blend: AUG-CC-PVTZ
  Basis Set: (AUG-CC-PVTZ AUX)
    Blend: AUG-CC-PVTZ-JKFIT

    Orbital Energies [Eh]
    ---------------------

    Doubly Occupied:

       1A   -104.868161     2A   -104.833935     3A    -11.369964
       4A    -10.597012     5A    -10.557724     6A     -8.064492
       7A     -8.061665     8A     -8.061465     9A     -8.024405
      10A     -8.022642    11A     -8.022548    12A     -1.239184
      13A     -1.093770    14A     -0.872198    15A     -0.654941
      16A     -0.654369    17A     -0.597959    18A     -0.477451
      19A     -0.455684    20A     -0.450852    21A     -0.425213

  @DF-RHF Final Energy:  -958.04265944827273

   => Energetics <=

    Nuclear Repulsion Energy =            136.3729068376095199
    One-Electron Energy =               -1594.0198675846895640
    Two-Electron Energy =                 499.6043012988073997
    Total Energy =                       -958.0426594482727296
  Basis Set: (AUG-CC-PVTZ AUX)
    Blend: AUG-CC-PVTZ-RI
    Molecular point group: c1

    Geometry (in Angstrom), charge = 0, multiplicity = 1:

       Center              X                  Y                   Z               Mass
    ------------   -----------------  -----------------  -----------------  -----------------
         CL          -1.451420128192    -0.162031937345    -0.000000552211    34.968852682000
         CL           1.499099871808    -0.162030937345    -0.000000552211    34.968852682000
         C           -0.142946228192     0.703978062655    -0.000000552211    12.000000000000
         H            0.023828871808     1.430952062655     0.895459447789     1.007825032230
         H            0.023846871808     1.431023062655    -0.895414552211     1.007825032230

  Basis Set: AUG-CC-PVTZ
    Blend: AUG-CC-PVTZ
  Basis Set: (AUG-CC-PVTZ AUX)
    Blend: AUG-CC-PVTZ-JKFIT
	 Reference Energy          =    -958.0426594482727296 [Eh]
	 Singles Energy            =      -0.0000000000000000 [Eh]
	 Same-Spin Energy          =      -0.1648620302520345 [Eh]
	 Opposite-Spin Energy      =      -0.4972005796762650 [Eh]
	 Correlation Energy        =      -0.6620626099282996 [Eh]
	 Total Energy              =    -958.7047220582010141 [Eh]

	 ================> DF-SCS-MP2 Energies <==================
	-----------------------------------------------------------
	 SCS Same-Spin Scale       =       0.3333333333333333 [-]
	 SCS Opposite-Spin Scale   =       1.2000000000000000 [-]
	 SCS Same-Spin Energy      =      -0.0549540100840115 [Eh]
	 SCS Opposite-Spin Energy  =      -0.5966406956115180 [Eh]
	 SCS Correlation Energy    =      -0.6515947056955295 [Eh]
	 SCS Total Energy          =    -958.6942541539682452 [Eh]
	-----------------------------------------------------------

  Dipole Moment: [D]
     X:    -1.0678      Y:     1.4202      Z:     0.0000     Total:     1.7768

*** Psi4 exiting successfully. Buy a developer a beer!
