                               Psi4 1.3.2 release

  ==> Input File <==

--------------------------------------------------------------------------
#psi4
#
memory 32 gb

molecule  {
0 1
  O        0.6994600    -0.4500560    -0.0003020
  O       -0.6284610     1.3947560    -0.0020030
  C       -1.6319141    -0.8217844     0.0955418
  C        1.8458840     0.4351200     0.0004070
  C       -0.5027280     0.1807070    -0.0019040
  C       -2.9987110    -0.1525370     0.0051210
  C        3.0735570    -0.4468320     0.0021160
  H       -1.5041170    -1.4634550    -0.8835050
  H       -1.4975140    -1.4764990     0.8637890
  H        1.7981280     1.0776150    -0.8832090
  H        1.7963140     1.0785080     0.8832640
  H       -3.1225840     0.4871600    -0.8707550
  H       -3.7909030    -0.9055920     0.0019890
  H       -3.1170220     0.4736390     0.8915280
  H        3.9763110     0.1705960     0.0027210
  H        3.0870080    -1.0834370     0.8892710
  H        3.0888280    -1.0843650    -0.8843420
units angstrom
no_reorient  #important for SAPT in psi4, default
symmetry c1  #important for SAPT in psi4, default
}

set PROPERTIES_ORIGIN ["COM"]
properties('MP2/aug-cc-pvtz', properties = ['dipole'])
--------------------------------------------------------------------------

    Molecular point group: c1
  Charge       = 0
  Multiplicity = 1
  Basis Set: AUG-CC-PVTZ
    Blend: AUG-CC-PVTZ
  Basis Set: (AUG-CC-PVTZ AUX)
    Blend: AUG-CC-PVTZ-JKFIT

    Orbital Energies [Eh]
    ---------------------

    Doubly Occupied:

       1A    -20.599363     2A    -20.542784     3A    -11.378429
       4A    -11.287346     5A    -11.245583     6A    -11.224323
       7A    -11.220294     8A     -1.449607     9A     -1.350023
      10A     -1.069080    11A     -1.028888    12A     -0.906767
      13A     -0.843294    14A     -0.770743    15A     -0.698693
      16A     -0.681946    17A     -0.662072    18A     -0.624846
      19A     -0.581281    20A     -0.567971    21A     -0.557135
      22A     -0.532084    23A     -0.520443    24A     -0.510287
      25A     -0.506662    26A     -0.481417    27A     -0.457030
      28A     -0.442365

  @DF-RHF Final Energy:  -345.02839221317583

   => Energetics <=

    Nuclear Repulsion Energy =            312.1263367638683803
    One-Electron Energy =               -1088.8279471481141627
    Two-Electron Energy =                 431.6732181710699479
    Total Energy =                       -345.0283922131758345
  Basis Set: (AUG-CC-PVTZ AUX)
    Blend: AUG-CC-PVTZ-RI
    Molecular point group: c1

    Geometry (in Angstrom), charge = 0, multiplicity = 1:

       Center              X                  Y                   Z               Mass
    ------------   -----------------  -----------------  -----------------  -----------------
         O            0.706428708273    -0.476502263564    -0.011954501486    15.994914619570
         O           -0.621492291727     1.368309736436    -0.013655501486    15.994914619570
         C           -1.624945391727    -0.848230663564     0.083889298514    12.000000000000
         C            1.852852708273     0.408673736436    -0.011245501486    12.000000000000
         C           -0.495759291727     0.154260736436    -0.013556501486    12.000000000000
         C           -2.991742291727    -0.178983263564    -0.006531501486    12.000000000000
         C            3.080525708273    -0.473278263564    -0.009536501486    12.000000000000
         H           -1.497148291727    -1.489901263564    -0.895157501486     1.007825032230
         H           -1.490545291727    -1.502945263564     0.852136498514     1.007825032230
         H            1.805096708273     1.051168736436    -0.894861501486     1.007825032230
         H            1.803282708273     1.052061736436     0.871611498514     1.007825032230
         H           -3.115615291727     0.460713736436    -0.882407501486     1.007825032230
         H           -3.783934291727    -0.932038263564    -0.009663501486     1.007825032230
         H           -3.110053291727     0.447192736436     0.879875498514     1.007825032230
         H            3.983279708273     0.144149736436    -0.008931501486     1.007825032230
         H            3.093976708273    -1.109883263564     0.877618498514     1.007825032230
         H            3.095796708273    -1.110811263564    -0.895994501486     1.007825032230

  Basis Set: AUG-CC-PVTZ
    Blend: AUG-CC-PVTZ
  Basis Set: (AUG-CC-PVTZ AUX)
    Blend: AUG-CC-PVTZ-JKFIT
	 Reference Energy          =    -345.0283922131758345 [Eh]
	 Singles Energy            =      -0.0000000000000000 [Eh]
	 Same-Spin Energy          =      -0.3399148045196367 [Eh]
	 Opposite-Spin Energy      =      -1.1308303237062525 [Eh]
	 Correlation Energy        =      -1.4707451282258892 [Eh]
	 Total Energy              =    -346.4991373414017062 [Eh]

	 ================> DF-SCS-MP2 Energies <==================
	-----------------------------------------------------------
	 SCS Same-Spin Scale       =       0.3333333333333333 [-]
	 SCS Opposite-Spin Scale   =       1.2000000000000000 [-]
	 SCS Same-Spin Energy      =      -0.1133049348398789 [Eh]
	 SCS Opposite-Spin Energy  =      -1.3569963884475029 [Eh]
	 SCS Correlation Energy    =      -1.4703013232873818 [Eh]
	 SCS Total Energy          =    -346.4986935364632359 [Eh]
	-----------------------------------------------------------

  Dipole Moment: [D]
     X:     0.8333      Y:    -1.5681      Z:     0.0459     Total:     1.7763

*** Psi4 exiting successfully. Buy a developer a beer!
