                               Psi4 1.3.2 release

  ==> Input File <==

--------------------------------------------------------------------------
#psi4
#
memory 32 gb

molecule  {
0 1
  O        0.6994600    -0.4500560    -0.0003020
  O       -0.6284610     1.3947560    -0.0020030
  C       -1.6320007    -0.8218006     0.1455418
  C        1.8458840     0.4351200     0.0004070
  C       -0.5027280     0.1807070    -0.0019040
  C       -2.9987110    -0.1525370     0.0051210
  C        3.0735570    -0.4468320     0.0021160
  H       -1.5041170    -1.4634550    -0.8835050
  H       -1.4975140    -1.4764990     0.8637890
  H        1.7981280     1.0776150    -0.8832090
  H        1.7963140     1.0785080     0.8832640
  H       -3.1225840     0.4871600    -0.8707550
  H       -3.7909030    -0.9055920     0.0019890
  H       -3.1170220     0.4736390     0.8915280
  H        3.9763110     0.1705960     0.0027210
  H        3.0870080    -1.0834370     0.8892710
  H        3.0888280    -1.0843650    -0.8843420
units angstrom
no_reorient  #important for SAPT in psi4, default
symmetry c1  #important for SAPT in psi4, default
}

set PROPERTIES_ORIGIN ["COM"]
properties('MP2/aug-cc-pvtz', properties = ['dipole'])
--------------------------------------------------------------------------

    Molecular point group: c1
  Charge       = 0
  Multiplicity = 1
  Basis Set: AUG-CC-PVTZ
    Blend: AUG-CC-PVTZ
  Basis Set: (AUG-CC-PVTZ AUX)
    Blend: AUG-CC-PVTZ-JKFIT

    Orbital Energies [Eh]
    ---------------------

    Doubly Occupied:

       1A    -20.599331     2A    -20.543003     3A    -11.379420
       4A    -11.287352     5A    -11.247136     6A    -11.224311
       7A    -11.221350     8A     -1.449649     9A     -1.350179
      10A     -1.069111    11A     -1.028970    12A     -0.906957
      13A     -0.844512    14A     -0.772444    15A     -0.702804
      16A     -0.681272    17A     -0.663431    18A     -0.621292
      19A     -0.582147    20A     -0.568156    21A     -0.557307
      22A     -0.539336    23A     -0.520391    24A     -0.510452
      25A     -0.505186    26A     -0.472918    27A     -0.457186
      28A     -0.440486

  @DF-RHF Final Energy:  -345.01513572211724

   => Energetics <=

    Nuclear Repulsion Energy =            312.0566258263265809
    One-Electron Energy =               -1088.6513424535935428
    Two-Electron Energy =                 431.5795809051497258
    Total Energy =                       -345.0151357221172361
  Basis Set: (AUG-CC-PVTZ AUX)
    Blend: AUG-CC-PVTZ-RI
    Molecular point group: c1

    Geometry (in Angstrom), charge = 0, multiplicity = 1:

       Center              X                  Y                   Z               Mass
    ------------   -----------------  -----------------  -----------------  -----------------
         O            0.706438889713    -0.476500358952    -0.017832930889    15.994914619570
         O           -0.621482110287     1.368311641048    -0.019533930889    15.994914619570
         C           -1.625021810287    -0.848244958952     0.128010869111    12.000000000000
         C            1.852862889713     0.408675641048    -0.017123930889    12.000000000000
         C           -0.495749110287     0.154262641048    -0.019434930889    12.000000000000
         C           -2.991732110287    -0.178981358952    -0.012409930889    12.000000000000
         C            3.080535889713    -0.473276358952    -0.015414930889    12.000000000000
         H           -1.497138110287    -1.489899358952    -0.901035930889     1.007825032230
         H           -1.490535110287    -1.502943358952     0.846258069111     1.007825032230
         H            1.805106889713     1.051170641048    -0.900739930889     1.007825032230
         H            1.803292889713     1.052063641048     0.865733069111     1.007825032230
         H           -3.115605110287     0.460715641048    -0.888285930889     1.007825032230
         H           -3.783924110287    -0.932036358952    -0.015541930889     1.007825032230
         H           -3.110043110287     0.447194641048     0.873997069111     1.007825032230
         H            3.983289889713     0.144151641048    -0.014809930889     1.007825032230
         H            3.093986889713    -1.109881358952     0.871740069111     1.007825032230
         H            3.095806889713    -1.110809358952    -0.901872930889     1.007825032230

  Basis Set: AUG-CC-PVTZ
    Blend: AUG-CC-PVTZ
  Basis Set: (AUG-CC-PVTZ AUX)
    Blend: AUG-CC-PVTZ-JKFIT
	 Reference Energy          =    -345.0151357221172361 [Eh]
	 Singles Energy            =      -0.0000000000000000 [Eh]
	 Same-Spin Energy          =      -0.3400846452000695 [Eh]
	 Opposite-Spin Energy      =      -1.1314627721281902 [Eh]
	 Correlation Energy        =      -1.4715474173282597 [Eh]
	 Total Energy              =    -346.4866831394455176 [Eh]

	 ================> DF-SCS-MP2 Energies <==================
	-----------------------------------------------------------
	 SCS Same-Spin Scale       =       0.3333333333333333 [-]
	 SCS Opposite-Spin Scale   =       1.2000000000000000 [-]
	 SCS Same-Spin Energy      =      -0.1133615484000232 [Eh]
	 SCS Opposite-Spin Energy  =      -1.3577553265538282 [Eh]
	 SCS Correlation Energy    =      -1.4711168749538515 [Eh]
	 SCS Total Energy          =    -346.4862525970710863 [Eh]
	-----------------------------------------------------------

  Dipole Moment: [D]
     X:     0.8256      Y:    -1.5519      Z:     0.0688     Total:     1.7592

*** Psi4 exiting successfully. Buy a developer a beer!
