                               Psi4 1.3.2 release

  ==> Input File <==

--------------------------------------------------------------------------
#psi4
#
memory 32 gb

molecule  {
0 1
  O        0.6994600    -0.4500560    -0.0003020
  O       -0.6284610     1.3947560    -0.0020030
  C       -1.6318276    -0.8217682     0.0455419
  C        1.8458840     0.4351200     0.0004070
  C       -0.5027280     0.1807070    -0.0019040
  C       -2.9987110    -0.1525370     0.0051210
  C        3.0735570    -0.4468320     0.0021160
  H       -1.5041170    -1.4634550    -0.8835050
  H       -1.4975140    -1.4764990     0.8637890
  H        1.7981280     1.0776150    -0.8832090
  H        1.7963140     1.0785080     0.8832640
  H       -3.1225840     0.4871600    -0.8707550
  H       -3.7909030    -0.9055920     0.0019890
  H       -3.1170220     0.4736390     0.8915280
  H        3.9763110     0.1705960     0.0027210
  H        3.0870080    -1.0834370     0.8892710
  H        3.0888280    -1.0843650    -0.8843420
units angstrom
no_reorient  #important for SAPT in psi4, default
symmetry c1  #important for SAPT in psi4, default
}

set PROPERTIES_ORIGIN ["COM"]
properties('MP2/aug-cc-pvtz', properties = ['dipole'])
--------------------------------------------------------------------------

    Molecular point group: c1
  Charge       = 0
  Multiplicity = 1
  Basis Set: AUG-CC-PVTZ
    Blend: AUG-CC-PVTZ
  Basis Set: (AUG-CC-PVTZ AUX)
    Blend: AUG-CC-PVTZ-JKFIT

    Orbital Energies [Eh]
    ---------------------

    Doubly Occupied:

       1A    -20.599384     2A    -20.542655     3A    -11.377828
       4A    -11.287343     5A    -11.244637     6A    -11.224330
       7A    -11.219659     8A     -1.449582     9A     -1.349930
      10A     -1.069052    11A     -1.028832    12A     -0.906663
      13A     -0.842599    14A     -0.769733    15A     -0.695729
      16A     -0.682592    17A     -0.660932    18A     -0.627409
      19A     -0.580754    20A     -0.567923    21A     -0.557054
      22A     -0.524860    23A     -0.520244    24A     -0.510178
      25A     -0.508989    26A     -0.488315    27A     -0.456934
      28A     -0.443317

  @DF-RHF Final Energy:  -345.03631896334798

   => Energetics <=

    Nuclear Repulsion Energy =            312.1672139733385620
    One-Electron Energy =               -1088.9321536197858222
    Two-Electron Energy =                 431.7286206830992796
    Total Energy =                       -345.0363189633479806
  Basis Set: (AUG-CC-PVTZ AUX)
    Blend: AUG-CC-PVTZ-RI
    Molecular point group: c1

    Geometry (in Angstrom), charge = 0, multiplicity = 1:

       Center              X                  Y                   Z               Mass
    ------------   -----------------  -----------------  -----------------  -----------------
         O            0.706418538590    -0.476504168175    -0.006076083839    15.994914619570
         O           -0.621502461410     1.368307831825    -0.007777083839    15.994914619570
         C           -1.624869061410    -0.848216368175     0.039767816161    12.000000000000
         C            1.852842538590     0.408671831825    -0.005367083839    12.000000000000
         C           -0.495769461410     0.154258831825    -0.007678083839    12.000000000000
         C           -2.991752461410    -0.178985168175    -0.000653083839    12.000000000000
         C            3.080515538590    -0.473280168175    -0.003658083839    12.000000000000
         H           -1.497158461410    -1.489903168175    -0.889279083839     1.007825032230
         H           -1.490555461410    -1.502947168175     0.858014916161     1.007825032230
         H            1.805086538590     1.051166831825    -0.888983083839     1.007825032230
         H            1.803272538590     1.052059831825     0.877489916161     1.007825032230
         H           -3.115625461410     0.460711831825    -0.876529083839     1.007825032230
         H           -3.783944461410    -0.932040168175    -0.003785083839     1.007825032230
         H           -3.110063461410     0.447190831825     0.885753916161     1.007825032230
         H            3.983269538590     0.144147831825    -0.003053083839     1.007825032230
         H            3.093966538590    -1.109885168175     0.883496916161     1.007825032230
         H            3.095786538590    -1.110813168175    -0.890116083839     1.007825032230

  Basis Set: AUG-CC-PVTZ
    Blend: AUG-CC-PVTZ
  Basis Set: (AUG-CC-PVTZ AUX)
    Blend: AUG-CC-PVTZ-JKFIT
	 Reference Energy          =    -345.0363189633479806 [Eh]
	 Singles Energy            =      -0.0000000000000000 [Eh]
	 Same-Spin Energy          =      -0.3398126680361048 [Eh]
	 Opposite-Spin Energy      =      -1.1304556319378727 [Eh]
	 Correlation Energy        =      -1.4702682999739776 [Eh]
	 Total Energy              =    -346.5065872633219328 [Eh]

	 ================> DF-SCS-MP2 Energies <==================
	-----------------------------------------------------------
	 SCS Same-Spin Scale       =       0.3333333333333333 [-]
	 SCS Opposite-Spin Scale   =       1.2000000000000000 [-]
	 SCS Same-Spin Energy      =      -0.1132708893453683 [Eh]
	 SCS Opposite-Spin Energy  =      -1.3565467583254471 [Eh]
	 SCS Correlation Energy    =      -1.4698176476708154 [Eh]
	 SCS Total Energy          =    -346.5061366110188033 [Eh]
	-----------------------------------------------------------

  Dipole Moment: [D]
     X:     0.8382      Y:    -1.5779      Z:     0.0225     Total:     1.7869

*** Psi4 exiting successfully. Buy a developer a beer!
