                               Psi4 1.3.2 release

  ==> Input File <==

--------------------------------------------------------------------------
#psi4
#
memory 32 gb

molecule  {
0 1
  O        0.6994600    -0.4500560    -0.0003020
  O       -0.6284610     1.3947560    -0.0020030
  C       -1.6322603    -0.8218492     0.2955415
  C        1.8458840     0.4351200     0.0004070
  C       -0.5027280     0.1807070    -0.0019040
  C       -2.9987110    -0.1525370     0.0051210
  C        3.0735570    -0.4468320     0.0021160
  H       -1.5041170    -1.4634550    -0.8835050
  H       -1.4975140    -1.4764990     0.8637890
  H        1.7981280     1.0776150    -0.8832090
  H        1.7963140     1.0785080     0.8832640
  H       -3.1225840     0.4871600    -0.8707550
  H       -3.7909030    -0.9055920     0.0019890
  H       -3.1170220     0.4736390     0.8915280
  H        3.9763110     0.1705960     0.0027210
  H        3.0870080    -1.0834370     0.8892710
  H        3.0888280    -1.0843650    -0.8843420
units angstrom
no_reorient  #important for SAPT in psi4, default
symmetry c1  #important for SAPT in psi4, default
}

set PROPERTIES_ORIGIN ["COM"]
properties('MP2/aug-cc-pvtz', properties = ['dipole'])
--------------------------------------------------------------------------

    Molecular point group: c1
  Charge       = 0
  Multiplicity = 1
  Basis Set: AUG-CC-PVTZ
    Blend: AUG-CC-PVTZ
  Basis Set: (AUG-CC-PVTZ AUX)
    Blend: AUG-CC-PVTZ-JKFIT

    Orbital Energies [Eh]
    ---------------------

    Doubly Occupied:

       1A    -20.599172     2A    -20.544141     3A    -11.384549
       4A    -11.287374     5A    -11.255366     6A    -11.226825
       7A    -11.224250     8A     -1.449860     9A     -1.350969
      10A     -1.069350    11A     -1.029395    12A     -0.908596
      13A     -0.851782    14A     -0.780880    15A     -0.715873
      16A     -0.679842    17A     -0.666558    18A     -0.609015
      19A     -0.587226    20A     -0.570857    21A     -0.559922
      22A     -0.551790    23A     -0.519831    24A     -0.511046
      25A     -0.501569    26A     -0.457951    27A     -0.453588
      28A     -0.424094

  @DF-RHF Final Energy:  -344.94280612072509

   => Energetics <=

    Nuclear Repulsion Energy =            311.6773042308826689
    One-Electron Energy =               -1087.6968770423552542
    Two-Electron Energy =                 431.0767666907474904
    Total Energy =                       -344.9428061207250948
  Basis Set: (AUG-CC-PVTZ AUX)
    Blend: AUG-CC-PVTZ-RI
    Molecular point group: c1

    Geometry (in Angstrom), charge = 0, multiplicity = 1:

       Center              X                  Y                   Z               Mass
    ------------   -----------------  -----------------  -----------------  -----------------
         O            0.706469410518    -0.476494645119    -0.035468183827    15.994914619570
         O           -0.621451589482     1.368317354881    -0.037169183827    15.994914619570
         C           -1.625250889482    -0.848287845119     0.260375316173    12.000000000000
         C            1.852893410518     0.408681354881    -0.034759183827    12.000000000000
         C           -0.495718589482     0.154268354881    -0.037070183827    12.000000000000
         C           -2.991701589482    -0.178975645119    -0.030045183827    12.000000000000
         C            3.080566410518    -0.473270645119    -0.033050183827    12.000000000000
         H           -1.497107589482    -1.489893645119    -0.918671183827     1.007825032230
         H           -1.490504589482    -1.502937645119     0.828622816173     1.007825032230
         H            1.805137410518     1.051176354881    -0.918375183827     1.007825032230
         H            1.803323410518     1.052069354881     0.848097816173     1.007825032230
         H           -3.115574589482     0.460721354881    -0.905921183827     1.007825032230
         H           -3.783893589482    -0.932030645119    -0.033177183827     1.007825032230
         H           -3.110012589482     0.447200354881     0.856361816173     1.007825032230
         H            3.983320410518     0.144157354881    -0.032445183827     1.007825032230
         H            3.094017410518    -1.109875645119     0.854104816173     1.007825032230
         H            3.095837410518    -1.110803645119    -0.919508183827     1.007825032230

  Basis Set: AUG-CC-PVTZ
    Blend: AUG-CC-PVTZ
  Basis Set: (AUG-CC-PVTZ AUX)
    Blend: AUG-CC-PVTZ-JKFIT
	 Reference Energy          =    -344.9428061207250948 [Eh]
	 Singles Energy            =      -0.0000000000000000 [Eh]
	 Same-Spin Energy          =      -0.3410233094946259 [Eh]
	 Opposite-Spin Energy      =      -1.1349797639574062 [Eh]
	 Correlation Energy        =      -1.4760030734520320 [Eh]
	 Total Energy              =    -346.4188091941771290 [Eh]

	 ================> DF-SCS-MP2 Energies <==================
	-----------------------------------------------------------
	 SCS Same-Spin Scale       =       0.3333333333333333 [-]
	 SCS Opposite-Spin Scale   =       1.2000000000000000 [-]
	 SCS Same-Spin Energy      =      -0.1136744364982086 [Eh]
	 SCS Opposite-Spin Energy  =      -1.3619757167488873 [Eh]
	 SCS Correlation Energy    =      -1.4756501532470958 [Eh]
	 SCS Total Energy          =    -346.4184562739721969 [Eh]
	-----------------------------------------------------------

  Dipole Moment: [D]
     X:     0.7890      Y:    -1.4761      Z:     0.1273     Total:     1.6786

*** Psi4 exiting successfully. Buy a developer a beer!
