                               Psi4 1.3.2 release

  ==> Input File <==

--------------------------------------------------------------------------
#psi4
#
memory 32 gb

molecule  {
0 1
  O        0.6994600    -0.4500560    -0.0003020
  O       -0.6284610     1.3947560    -0.0020030
  C       -1.6320872    -0.8218168     0.1955417
  C        1.8458840     0.4351200     0.0004070
  C       -0.5027280     0.1807070    -0.0019040
  C       -2.9987110    -0.1525370     0.0051210
  C        3.0735570    -0.4468320     0.0021160
  H       -1.5041170    -1.4634550    -0.8835050
  H       -1.4975140    -1.4764990     0.8637890
  H        1.7981280     1.0776150    -0.8832090
  H        1.7963140     1.0785080     0.8832640
  H       -3.1225840     0.4871600    -0.8707550
  H       -3.7909030    -0.9055920     0.0019890
  H       -3.1170220     0.4736390     0.8915280
  H        3.9763110     0.1705960     0.0027210
  H        3.0870080    -1.0834370     0.8892710
  H        3.0888280    -1.0843650    -0.8843420
units angstrom
no_reorient  #important for SAPT in psi4, default
symmetry c1  #important for SAPT in psi4, default
}

set PROPERTIES_ORIGIN ["COM"]
properties('MP2/aug-cc-pvtz', properties = ['dipole'])
--------------------------------------------------------------------------

    Molecular point group: c1
  Charge       = 0
  Multiplicity = 1
  Basis Set: AUG-CC-PVTZ
    Blend: AUG-CC-PVTZ
  Basis Set: (AUG-CC-PVTZ AUX)
    Blend: AUG-CC-PVTZ-JKFIT

    Orbital Energies [Eh]
    ---------------------

    Doubly Occupied:

       1A    -20.599289     2A    -20.543307     3A    -11.380786
       4A    -11.287359     5A    -11.249294     6A    -11.224295
       7A    -11.222809     8A     -1.449707     9A     -1.350392
      10A     -1.069156    11A     -1.029079    12A     -0.907278
      13A     -0.846309    14A     -0.774800    15A     -0.707403
      16A     -0.680693    17A     -0.664691    18A     -0.617269
      19A     -0.583388    20A     -0.568607    21A     -0.557710
      22A     -0.545451    23A     -0.520262    24A     -0.510646
      25A     -0.503988    26A     -0.464748    27A     -0.457392
      28A     -0.437138

  @DF-RHF Final Energy:  -344.99648379008448

   => Energetics <=

    Nuclear Repulsion Energy =            311.9583397305024732
    One-Electron Energy =               -1088.4031556022521272
    Two-Electron Energy =                 431.4483320816651144
    Total Energy =                       -344.9964837900844827
  Basis Set: (AUG-CC-PVTZ AUX)
    Blend: AUG-CC-PVTZ-RI
    Molecular point group: c1

    Geometry (in Angstrom), charge = 0, multiplicity = 1:

       Center              X                  Y                   Z               Mass
    ------------   -----------------  -----------------  -----------------  -----------------
         O            0.706449059396    -0.476498454341    -0.023711348535    15.994914619570
         O           -0.621471940604     1.368313545659    -0.025412348535    15.994914619570
         C           -1.625098140604    -0.848259254341     0.172132351465    12.000000000000
         C            1.852873059396     0.408677545659    -0.023002348535    12.000000000000
         C           -0.495738940604     0.154264545659    -0.025313348535    12.000000000000
         C           -2.991721940604    -0.178979454341    -0.018288348535    12.000000000000
         C            3.080546059396    -0.473274454341    -0.021293348535    12.000000000000
         H           -1.497127940604    -1.489897454341    -0.906914348535     1.007825032230
         H           -1.490524940604    -1.502941454341     0.840379651465     1.007825032230
         H            1.805117059396     1.051172545659    -0.906618348535     1.007825032230
         H            1.803303059396     1.052065545659     0.859854651465     1.007825032230
         H           -3.115594940604     0.460717545659    -0.894164348535     1.007825032230
         H           -3.783913940604    -0.932034454341    -0.021420348535     1.007825032230
         H           -3.110032940604     0.447196545659     0.868118651465     1.007825032230
         H            3.983300059396     0.144153545659    -0.020688348535     1.007825032230
         H            3.093997059396    -1.109879454341     0.865861651465     1.007825032230
         H            3.095817059396    -1.110807454341    -0.907751348535     1.007825032230

  Basis Set: AUG-CC-PVTZ
    Blend: AUG-CC-PVTZ
  Basis Set: (AUG-CC-PVTZ AUX)
    Blend: AUG-CC-PVTZ-JKFIT
	 Reference Energy          =    -344.9964837900844827 [Eh]
	 Singles Energy            =      -0.0000000000000000 [Eh]
	 Same-Spin Energy          =      -0.3403240991253252 [Eh]
	 Opposite-Spin Energy      =      -1.1323615073658966 [Eh]
	 Correlation Energy        =      -1.4726856064912219 [Eh]
	 Total Energy              =    -346.4691693965756940 [Eh]

	 ================> DF-SCS-MP2 Energies <==================
	-----------------------------------------------------------
	 SCS Same-Spin Scale       =       0.3333333333333333 [-]
	 SCS Opposite-Spin Scale   =       1.2000000000000000 [-]
	 SCS Same-Spin Energy      =      -0.1134413663751084 [Eh]
	 SCS Opposite-Spin Energy  =      -1.3588338088390759 [Eh]
	 SCS Correlation Energy    =      -1.4722751752141843 [Eh]
	 SCS Total Energy          =    -346.4687589652986617 [Eh]
	-----------------------------------------------------------

  Dipole Moment: [D]
     X:     0.8153      Y:    -1.5304      Z:     0.0906     Total:     1.7364

*** Psi4 exiting successfully. Buy a developer a beer!
