                               Psi4 1.3.2 release

  ==> Input File <==

--------------------------------------------------------------------------
#psi4
#
memory 32 gb

molecule  {
0 1
  O        0.6994600    -0.4500560    -0.0003020
  O       -0.6284610     1.3947560    -0.0020030
  C       -1.6317410    -0.8217520    -0.0044580
  C        1.8458840     0.4351200     0.0004070
  C       -0.5027280     0.1807070    -0.0019040
  C       -2.9987110    -0.1525370     0.0051210
  C        3.0735570    -0.4468320     0.0021160
  H       -1.5041170    -1.4634550    -0.8835050
  H       -1.4975140    -1.4764990     0.8637890
  H        1.7981280     1.0776150    -0.8832090
  H        1.7963140     1.0785080     0.8832640
  H       -3.1225840     0.4871600    -0.8707550
  H       -3.7909030    -0.9055920     0.0019890
  H       -3.1170220     0.4736390     0.8915280
  H        3.9763110     0.1705960     0.0027210
  H        3.0870080    -1.0834370     0.8892710
  H        3.0888280    -1.0843650    -0.8843420
units angstrom
no_reorient  #important for SAPT in psi4, default
symmetry c1  #important for SAPT in psi4, default
}

set PROPERTIES_ORIGIN ["COM"]
properties('MP2/aug-cc-pvtz', properties = ['dipole'])
--------------------------------------------------------------------------

    Molecular point group: c1
  Charge       = 0
  Multiplicity = 1
  Basis Set: AUG-CC-PVTZ
    Blend: AUG-CC-PVTZ
  Basis Set: (AUG-CC-PVTZ AUX)
    Blend: AUG-CC-PVTZ-JKFIT

    Orbital Energies [Eh]
    ---------------------

    Doubly Occupied:

       1A    -20.599393     2A    -20.542619     3A    -11.377627
       4A    -11.287342     5A    -11.244300     6A    -11.224333
       7A    -11.219453     8A     -1.449576     9A     -1.349902
      10A     -1.069019    11A     -1.028799    12A     -0.906622
      13A     -0.842385    14A     -0.769411    15A     -0.694600
      16A     -0.682894    17A     -0.660486    18A     -0.628374
      19A     -0.580557    20A     -0.567933    21A     -0.557012
      22A     -0.521772    23A     -0.518874    24A     -0.511289
      25A     -0.510114    26A     -0.491119    27A     -0.456901
      28A     -0.443616

  @DF-RHF Final Energy:  -345.03895906311504

   => Energetics <=

    Nuclear Repulsion Energy =            312.1791173456259685
    One-Electron Energy =               -1088.9635133327237781
    Two-Electron Energy =                 431.7454369239827656
    Total Energy =                       -345.0389590631150440
  Basis Set: (AUG-CC-PVTZ AUX)
    Blend: AUG-CC-PVTZ-RI
    Molecular point group: c1

    Geometry (in Angstrom), charge = 0, multiplicity = 1:

       Center              X                  Y                   Z               Mass
    ------------   -----------------  -----------------  -----------------  -----------------
         O            0.706408357151    -0.476506072786    -0.000197666193    15.994914619570
         O           -0.621512642849     1.368305927214    -0.001898666193    15.994914619570
         C           -1.624792642849    -0.848202072786    -0.004353666193    12.000000000000
         C            1.852832357151     0.408669927214     0.000511333807    12.000000000000
         C           -0.495779642849     0.154256927214    -0.001799666193    12.000000000000
         C           -2.991762642849    -0.178987072786     0.005225333807    12.000000000000
         C            3.080505357151    -0.473282072786     0.002220333807    12.000000000000
         H           -1.497168642849    -1.489905072786    -0.883400666193     1.007825032230
         H           -1.490565642849    -1.502949072786     0.863893333807     1.007825032230
         H            1.805076357151     1.051164927214    -0.883104666193     1.007825032230
         H            1.803262357151     1.052057927214     0.883368333807     1.007825032230
         H           -3.115635642849     0.460709927214    -0.870650666193     1.007825032230
         H           -3.783954642849    -0.932042072786     0.002093333807     1.007825032230
         H           -3.110073642849     0.447188927214     0.891632333807     1.007825032230
         H            3.983259357151     0.144145927214     0.002825333807     1.007825032230
         H            3.093956357151    -1.109887072786     0.889375333807     1.007825032230
         H            3.095776357151    -1.110815072786    -0.884237666193     1.007825032230

  Basis Set: AUG-CC-PVTZ
    Blend: AUG-CC-PVTZ
  Basis Set: (AUG-CC-PVTZ AUX)
    Blend: AUG-CC-PVTZ-JKFIT
	 Reference Energy          =    -345.0389590631150440 [Eh]
	 Singles Energy            =      -0.0000000000000000 [Eh]
	 Same-Spin Energy          =      -0.3397770142216375 [Eh]
	 Opposite-Spin Energy      =      -1.1303317695607440 [Eh]
	 Correlation Energy        =      -1.4701087837823814 [Eh]
	 Total Energy              =    -346.5090678468974374 [Eh]

	 ================> DF-SCS-MP2 Energies <==================
	-----------------------------------------------------------
	 SCS Same-Spin Scale       =       0.3333333333333333 [-]
	 SCS Opposite-Spin Scale   =       1.2000000000000000 [-]
	 SCS Same-Spin Energy      =      -0.1132590047405458 [Eh]
	 SCS Opposite-Spin Energy  =      -1.3563981234728928 [Eh]
	 SCS Correlation Energy    =      -1.4696571282134387 [Eh]
	 SCS Total Energy          =    -346.5086161913284855 [Eh]
	-----------------------------------------------------------

  Dipole Moment: [D]
     X:     0.8402      Y:    -1.5810      Z:    -0.0011     Total:     1.7904

*** Psi4 exiting successfully. Buy a developer a beer!
