                               Psi4 1.3.2 release

  ==> Input File <==

--------------------------------------------------------------------------
#psi4
#
memory 32 gb

molecule  {
0 1
  O        0.6994600    -0.4500560    -0.0003020
  O       -0.6284610     1.3947560    -0.0020030
  C       -1.6321738    -0.8218330     0.2455416
  C        1.8458840     0.4351200     0.0004070
  C       -0.5027280     0.1807070    -0.0019040
  C       -2.9987110    -0.1525370     0.0051210
  C        3.0735570    -0.4468320     0.0021160
  H       -1.5041170    -1.4634550    -0.8835050
  H       -1.4975140    -1.4764990     0.8637890
  H        1.7981280     1.0776150    -0.8832090
  H        1.7963140     1.0785080     0.8832640
  H       -3.1225840     0.4871600    -0.8707550
  H       -3.7909030    -0.9055920     0.0019890
  H       -3.1170220     0.4736390     0.8915280
  H        3.9763110     0.1705960     0.0027210
  H        3.0870080    -1.0834370     0.8892710
  H        3.0888280    -1.0843650    -0.8843420
units angstrom
no_reorient  #important for SAPT in psi4, default
symmetry c1  #important for SAPT in psi4, default
}

set PROPERTIES_ORIGIN ["COM"]
properties('MP2/aug-cc-pvtz', properties = ['dipole'])
--------------------------------------------------------------------------

    Molecular point group: c1
  Charge       = 0
  Multiplicity = 1
  Basis Set: AUG-CC-PVTZ
    Blend: AUG-CC-PVTZ
  Basis Set: (AUG-CC-PVTZ AUX)
    Blend: AUG-CC-PVTZ-JKFIT

    Orbital Energies [Eh]
    ---------------------

    Doubly Occupied:

       1A    -20.599236     2A    -20.543690     3A    -11.382506
       4A    -11.287366     5A    -11.252044     6A    -11.224645
       7A    -11.224274     8A     -1.449779     9A     -1.350659
      10A     -1.069230    11A     -1.029219    12A     -0.907795
      13A     -0.848735    14A     -0.777691    15A     -0.711905
      16A     -0.680222    17A     -0.665736    18A     -0.613111
      19A     -0.585063    20A     -0.569486    21A     -0.558585
      22A     -0.549684    23A     -0.520075    24A     -0.510848
      25A     -0.502814    26A     -0.458261    27A     -0.457580
      28A     -0.431674

  @DF-RHF Final Energy:  -344.97237754964112

   => Energetics <=

    Nuclear Repulsion Energy =            311.8317957811077576
    One-Electron Energy =               -1088.0845246260528256
    Two-Electron Energy =                 431.2803512953039444
    Total Energy =                       -344.9723775496411236
  Basis Set: (AUG-CC-PVTZ AUX)
    Blend: AUG-CC-PVTZ-RI
    Molecular point group: c1

    Geometry (in Angstrom), charge = 0, multiplicity = 1:

       Center              X                  Y                   Z               Mass
    ------------   -----------------  -----------------  -----------------  -----------------
         O            0.706459240836    -0.476496549730    -0.029589766181    15.994914619570
         O           -0.621461759164     1.368315450270    -0.031290766181    15.994914619570
         C           -1.625174559164    -0.848273549730     0.216253833819    12.000000000000
         C            1.852883240836     0.408679450270    -0.028880766181    12.000000000000
         C           -0.495728759164     0.154266450270    -0.031191766181    12.000000000000
         C           -2.991711759164    -0.178977549730    -0.024166766181    12.000000000000
         C            3.080556240836    -0.473272549730    -0.027171766181    12.000000000000
         H           -1.497117759164    -1.489895549730    -0.912792766181     1.007825032230
         H           -1.490514759164    -1.502939549730     0.834501233819     1.007825032230
         H            1.805127240836     1.051174450270    -0.912496766181     1.007825032230
         H            1.803313240836     1.052067450270     0.853976233819     1.007825032230
         H           -3.115584759164     0.460719450270    -0.900042766181     1.007825032230
         H           -3.783903759164    -0.932032549730    -0.027298766181     1.007825032230
         H           -3.110022759164     0.447198450270     0.862240233819     1.007825032230
         H            3.983310240836     0.144155450270    -0.026566766181     1.007825032230
         H            3.094007240836    -1.109877549730     0.859983233819     1.007825032230
         H            3.095827240836    -1.110805549730    -0.913629766181     1.007825032230

  Basis Set: AUG-CC-PVTZ
    Blend: AUG-CC-PVTZ
  Basis Set: (AUG-CC-PVTZ AUX)
    Blend: AUG-CC-PVTZ-JKFIT
	 Reference Energy          =    -344.9723775496411236 [Eh]
	 Singles Energy            =      -0.0000000000000000 [Eh]
	 Same-Spin Energy          =      -0.3406357954368282 [Eh]
	 Opposite-Spin Energy      =      -1.1335330579183527 [Eh]
	 Correlation Energy        =      -1.4741688533551809 [Eh]
	 Total Energy              =    -346.4465464029963186 [Eh]

	 ================> DF-SCS-MP2 Energies <==================
	-----------------------------------------------------------
	 SCS Same-Spin Scale       =       0.3333333333333333 [-]
	 SCS Opposite-Spin Scale   =       1.2000000000000000 [-]
	 SCS Same-Spin Energy      =      -0.1135452651456094 [Eh]
	 SCS Opposite-Spin Energy  =      -1.3602396695020231 [Eh]
	 SCS Correlation Energy    =      -1.4737849346476326 [Eh]
	 SCS Total Energy          =    -346.4461624842887773 [Eh]
	-----------------------------------------------------------

  Dipole Moment: [D]
     X:     0.8030      Y:    -1.5046      Z:     0.1105     Total:     1.7090

*** Psi4 exiting successfully. Buy a developer a beer!
