                               Psi4 1.3.2 release

  ==> Input File <==

--------------------------------------------------------------------------
#psi4
#
memory 32 gb

molecule  {
0 1
  S        0.2011420    -0.7740460    -0.0125590
  O       -1.2094190     1.4662670    -0.0184260
  C        1.4537980     0.5412620     0.0354980
  C        2.8478080    -0.0717200    -0.0067890
  C       -1.1782821     0.1865539    -0.0194057
  C       -2.5578740    -0.5297180     0.0165720
  H        1.2827490     1.2035910    -0.8153790
  H        1.3032950     1.1268910     0.9448060
  H        3.0193930    -0.7314540     0.8473820
  H        3.0002020    -0.6488010    -0.9221550
  H        3.5981220     0.7231720     0.0226780
  H       -2.8743340    -0.6368580     1.0585370
  H       -2.4550100    -1.5249000    -0.4208200
  H       -3.3176630     0.0418070    -0.5195010
units angstrom
no_reorient  #important for SAPT in psi4, default
symmetry c1  #important for SAPT in psi4, default
}

set PROPERTIES_ORIGIN ["COM"]
properties('MP2/aug-cc-pvtz', properties = ['dipole'])
--------------------------------------------------------------------------

    Molecular point group: c1
  Charge       = 0
  Multiplicity = 1
  Basis Set: AUG-CC-PVTZ
    Blend: AUG-CC-PVTZ
  Basis Set: (AUG-CC-PVTZ AUX)
    Blend: AUG-CC-PVTZ-JKFIT

    Orbital Energies [Eh]
    ---------------------

    Doubly Occupied:

       1A    -91.981268     2A    -20.539742     3A    -11.362031
       4A    -11.269119     5A    -11.243640     6A    -11.236465
       7A     -8.984705     8A     -6.666074     9A     -6.664607
      10A     -6.664088    11A     -1.345896    12A     -1.102777
      13A     -1.027601    14A     -0.966202    15A     -0.846337
      16A     -0.727711    17A     -0.647231    18A     -0.641343
      19A     -0.612328    20A     -0.597817    21A     -0.576740
      22A     -0.550151    23A     -0.528572    24A     -0.522697
      25A     -0.488642    26A     -0.466442    27A     -0.413127
      28A     -0.378511

  @DF-RHF Final Energy:  -628.61691944739187

   => Energetics <=

    Nuclear Repulsion Energy =            294.7159730177338588
    One-Electron Energy =               -1448.5620578715031570
    Two-Electron Energy =                 525.2291654063774331
    Total Energy =                       -628.6169194473918651
  Basis Set: (AUG-CC-PVTZ AUX)
    Blend: AUG-CC-PVTZ-RI
    Molecular point group: c1

    Geometry (in Angstrom), charge = 0, multiplicity = 1:

       Center              X                  Y                   Z               Mass
    ------------   -----------------  -----------------  -----------------  -----------------
         S            0.225593147851    -0.771849030635    -0.010745306642    31.972071174400
         O           -1.184967852149     1.468463969365    -0.016612306642    15.994914619570
         C            1.478249147851     0.543458969365     0.037311693358    12.000000000000
         C            2.872259147851    -0.069523030635    -0.004975306642    12.000000000000
         C           -1.153830952149     0.188750869365    -0.017592006642    12.000000000000
         C           -2.533422852149    -0.527521030635     0.018385693358    12.000000000000
         H            1.307200147851     1.205787969365    -0.813565306642     1.007825032230
         H            1.327746147851     1.129087969365     0.946619693358     1.007825032230
         H            3.043844147851    -0.729257030635     0.849195693358     1.007825032230
         H            3.024653147851    -0.646604030635    -0.920341306642     1.007825032230
         H            3.622573147851     0.725368969365     0.024491693358     1.007825032230
         H           -2.849882852149    -0.634661030635     1.060350693358     1.007825032230
         H           -2.430558852149    -1.522703030635    -0.419006306642     1.007825032230
         H           -3.293211852149     0.044003969365    -0.517687306642     1.007825032230

  Basis Set: AUG-CC-PVTZ
    Blend: AUG-CC-PVTZ
  Basis Set: (AUG-CC-PVTZ AUX)
    Blend: AUG-CC-PVTZ-JKFIT
	 Reference Energy          =    -628.6169194473918651 [Eh]
	 Singles Energy            =      -0.0000000000000000 [Eh]
	 Same-Spin Energy          =      -0.2926486500150959 [Eh]
	 Opposite-Spin Energy      =      -0.9567501698858649 [Eh]
	 Correlation Energy        =      -1.2493988199009607 [Eh]
	 Total Energy              =    -629.8663182672928542 [Eh]

	 ================> DF-SCS-MP2 Energies <==================
	-----------------------------------------------------------
	 SCS Same-Spin Scale       =       0.3333333333333333 [-]
	 SCS Opposite-Spin Scale   =       1.2000000000000000 [-]
	 SCS Same-Spin Energy      =      -0.0975495500050320 [Eh]
	 SCS Opposite-Spin Energy  =      -1.1481002038630379 [Eh]
	 SCS Correlation Energy    =      -1.2456497538680700 [Eh]
	 SCS Total Energy          =    -629.8625692012599302 [Eh]
	-----------------------------------------------------------

  Dipole Moment: [D]
     X:     1.2784      Y:    -1.6333      Z:     0.0960     Total:     2.0763

*** Psi4 exiting successfully. Buy a developer a beer!
