                               Psi4 1.3.2 release

  ==> Input File <==

--------------------------------------------------------------------------
#psi4
#
memory 32 gb

molecule  {
0 1
  S        0.2011420    -0.7740460    -0.0125590
  O       -1.2094190     1.4662670    -0.0184260
  C        1.4537980     0.5412620     0.0354980
  C        2.8478080    -0.0717200    -0.0067890
  C       -1.3424059     0.3008461    -0.0202203
  C       -2.5578740    -0.5297180     0.0165720
  H        1.2827490     1.2035910    -0.8153790
  H        1.3032950     1.1268910     0.9448060
  H        3.0193930    -0.7314540     0.8473820
  H        3.0002020    -0.6488010    -0.9221550
  H        3.5981220     0.7231720     0.0226780
  H       -2.8743340    -0.6368580     1.0585370
  H       -2.4550100    -1.5249000    -0.4208200
  H       -3.3176630     0.0418070    -0.5195010
units angstrom
no_reorient  #important for SAPT in psi4, default
symmetry c1  #important for SAPT in psi4, default
}

set PROPERTIES_ORIGIN ["COM"]
properties('MP2/aug-cc-pvtz', properties = ['dipole'])
--------------------------------------------------------------------------

    Molecular point group: c1
  Charge       = 0
  Multiplicity = 1
  Basis Set: AUG-CC-PVTZ
    Blend: AUG-CC-PVTZ
  Basis Set: (AUG-CC-PVTZ AUX)
    Blend: AUG-CC-PVTZ-JKFIT

    Orbital Energies [Eh]
    ---------------------

    Doubly Occupied:

       1A    -91.953536     2A    -20.568798     3A    -11.368515
       4A    -11.256051     5A    -11.250678     6A    -11.226087
       7A     -8.954460     8A     -6.635493     9A     -6.634552
      10A     -6.633854    11A     -1.434628    12A     -1.074902
      13A     -1.041735    14A     -0.943613    15A     -0.824434
      16A     -0.740328    17A     -0.663170    18A     -0.652732
      19A     -0.635657    20A     -0.619195    21A     -0.577580
      22A     -0.559685    23A     -0.535861    24A     -0.520371
      25A     -0.506883    26A     -0.455079    27A     -0.393070
      28A     -0.357845

  @DF-RHF Final Energy:  -628.62883897631798

   => Energetics <=

    Nuclear Repulsion Energy =            293.4125443716754376
    One-Electron Energy =               -1446.0451826506221096
    Two-Electron Energy =                 524.0037993026286358
    Total Energy =                       -628.6288389763179794
  Basis Set: (AUG-CC-PVTZ AUX)
    Blend: AUG-CC-PVTZ-RI
    Molecular point group: c1

    Geometry (in Angstrom), charge = 0, multiplicity = 1:

       Center              X                  Y                   Z               Mass
    ------------   -----------------  -----------------  -----------------  -----------------
         S            0.244525123597    -0.785032841627    -0.010651341066    31.972071174400
         O           -1.166035876403     1.455280158373    -0.016518341066    15.994914619570
         C            1.497181123597     0.530275158373     0.037405658934    12.000000000000
         C            2.891191123597    -0.082706841627    -0.004881341066    12.000000000000
         C           -1.299022776403     0.289859258373    -0.018312641066    12.000000000000
         C           -2.514490876403    -0.540704841627     0.018479658934    12.000000000000
         H            1.326132123597     1.192604158373    -0.813471341066     1.007825032230
         H            1.346678123597     1.115904158373     0.946713658934     1.007825032230
         H            3.062776123597    -0.742440841627     0.849289658934     1.007825032230
         H            3.043585123597    -0.659787841627    -0.920247341066     1.007825032230
         H            3.641505123597     0.712185158373     0.024585658934     1.007825032230
         H           -2.830950876403    -0.647844841627     1.060444658934     1.007825032230
         H           -2.411626876403    -1.535886841627    -0.418912341066     1.007825032230
         H           -3.274279876403     0.030820158373    -0.517593341066     1.007825032230

  Basis Set: AUG-CC-PVTZ
    Blend: AUG-CC-PVTZ
  Basis Set: (AUG-CC-PVTZ AUX)
    Blend: AUG-CC-PVTZ-JKFIT
	 Reference Energy          =    -628.6288389763179794 [Eh]
	 Singles Energy            =      -0.0000000000000000 [Eh]
	 Same-Spin Energy          =      -0.2899593396871188 [Eh]
	 Opposite-Spin Energy      =      -0.9515326129442614 [Eh]
	 Correlation Energy        =      -1.2414919526313801 [Eh]
	 Total Energy              =    -629.8703309289493291 [Eh]

	 ================> DF-SCS-MP2 Energies <==================
	-----------------------------------------------------------
	 SCS Same-Spin Scale       =       0.3333333333333333 [-]
	 SCS Opposite-Spin Scale   =       1.2000000000000000 [-]
	 SCS Same-Spin Energy      =      -0.0966531132290396 [Eh]
	 SCS Opposite-Spin Energy  =      -1.1418391355331137 [Eh]
	 SCS Correlation Energy    =      -1.2384922487621532 [Eh]
	 SCS Total Energy          =    -629.8673312250800791 [Eh]
	-----------------------------------------------------------

  Dipole Moment: [D]
     X:    -0.3733      Y:    -0.7590      Z:     0.1057     Total:     0.8524

*** Psi4 exiting successfully. Buy a developer a beer!
