                               Psi4 1.3.2 release

  ==> Input File <==

--------------------------------------------------------------------------
#psi4
#
memory 32 gb

molecule  {
0 1
  S        0.1831577    -0.7993977    -0.0126824
  O       -1.2094190     1.4662670    -0.0184260
  C        1.4537980     0.5412620     0.0354980
  C        2.8478080    -0.0717200    -0.0067890
  C       -1.2603440     0.2437000    -0.0198130
  C       -2.5578740    -0.5297180     0.0165720
  H        1.2827490     1.2035910    -0.8153790
  H        1.3032950     1.1268910     0.9448060
  H        3.0193930    -0.7314540     0.8473820
  H        3.0002020    -0.6488010    -0.9221550
  H        3.5981220     0.7231720     0.0226780
  H       -2.8743340    -0.6368580     1.0585370
  H       -2.4550100    -1.5249000    -0.4208200
  H       -3.3176630     0.0418070    -0.5195010
units angstrom
no_reorient  #important for SAPT in psi4, default
symmetry c1  #important for SAPT in psi4, default
}

set PROPERTIES_ORIGIN ["COM"]
properties('MP2/aug-cc-pvtz', properties = ['dipole'])
--------------------------------------------------------------------------

    Molecular point group: c1
  Charge       = 0
  Multiplicity = 1
  Basis Set: AUG-CC-PVTZ
    Blend: AUG-CC-PVTZ
  Basis Set: (AUG-CC-PVTZ AUX)
    Blend: AUG-CC-PVTZ-JKFIT

    Orbital Energies [Eh]
    ---------------------

    Doubly Occupied:

       1A    -91.970317     2A    -20.554064     3A    -11.364426
       4A    -11.265587     5A    -11.244686     6A    -11.231436
       7A     -8.971558     8A     -6.652689     9A     -6.651528
      10A     -6.650938    11A     -1.389404    12A     -1.082772
      13A     -1.030898    14A     -0.956757    15A     -0.835335
      16A     -0.731963    17A     -0.653112    18A     -0.635136
      19A     -0.629932    20A     -0.608685    21A     -0.576874
      22A     -0.555374    23A     -0.526017    24A     -0.519756
      25A     -0.501579    26A     -0.458687    27A     -0.409631
      28A     -0.371587

  @DF-RHF Final Energy:  -628.63167822861601

   => Energetics <=

    Nuclear Repulsion Energy =            293.2659132219151275
    One-Electron Energy =               -1445.7337278413667718
    Two-Electron Energy =                 523.8361363908356907
    Total Energy =                       -628.6316782286160105
  Basis Set: (AUG-CC-PVTZ AUX)
    Blend: AUG-CC-PVTZ-RI
    Molecular point group: c1

    Geometry (in Angstrom), charge = 0, multiplicity = 1:

       Center              X                  Y                   Z               Mass
    ------------   -----------------  -----------------  -----------------  -----------------
         S            0.222602064481    -0.796001137697    -0.010783798551    31.972071174400
         O           -1.169974635519     1.469663562303    -0.016527398551    15.994914619570
         C            1.493242364481     0.544658562303     0.037396601449    12.000000000000
         C            2.887252364481    -0.068323437697    -0.004890398551    12.000000000000
         C           -1.220899635519     0.247096562303    -0.017914398551    12.000000000000
         C           -2.518429635519    -0.526321437697     0.018470601449    12.000000000000
         H            1.322193364481     1.206987562303    -0.813480398551     1.007825032230
         H            1.342739364481     1.130287562303     0.946704601449     1.007825032230
         H            3.058837364481    -0.728057437697     0.849280601449     1.007825032230
         H            3.039646364481    -0.645404437697    -0.920256398551     1.007825032230
         H            3.637566364481     0.726568562303     0.024576601449     1.007825032230
         H           -2.834889635519    -0.633461437697     1.060435601449     1.007825032230
         H           -2.415565635519    -1.521503437697    -0.418921398551     1.007825032230
         H           -3.278218635519     0.045203562303    -0.517602398551     1.007825032230

  Basis Set: AUG-CC-PVTZ
    Blend: AUG-CC-PVTZ
  Basis Set: (AUG-CC-PVTZ AUX)
    Blend: AUG-CC-PVTZ-JKFIT
	 Reference Energy          =    -628.6316782286160105 [Eh]
	 Singles Energy            =      -0.0000000000000000 [Eh]
	 Same-Spin Energy          =      -0.2907051437947566 [Eh]
	 Opposite-Spin Energy      =      -0.9536206553072613 [Eh]
	 Correlation Energy        =      -1.2443257991020178 [Eh]
	 Total Energy              =    -629.8760040277180678 [Eh]

	 ================> DF-SCS-MP2 Energies <==================
	-----------------------------------------------------------
	 SCS Same-Spin Scale       =       0.3333333333333333 [-]
	 SCS Opposite-Spin Scale   =       1.2000000000000000 [-]
	 SCS Same-Spin Energy      =      -0.0969017145982522 [Eh]
	 SCS Opposite-Spin Energy  =      -1.1443447863687135 [Eh]
	 SCS Correlation Energy    =      -1.2412465009669658 [Eh]
	 SCS Total Energy          =    -629.8729247295830191 [Eh]
	-----------------------------------------------------------

  Dipole Moment: [D]
     X:     0.5273      Y:    -1.2197      Z:     0.1001     Total:     1.3326

*** Psi4 exiting successfully. Buy a developer a beer!
