                               Psi4 1.3.2 release

  ==> Input File <==

--------------------------------------------------------------------------
#psi4
#
memory 32 gb

molecule  {
0 1
  S        0.2011420    -0.7740460    -0.0125590
  O       -1.0819603     1.4542531    -0.0222079
  C        1.4537980     0.5412620     0.0354980
  C        2.8478080    -0.0717200    -0.0067890
  C       -1.2603440     0.2437000    -0.0198130
  C       -2.5578740    -0.5297180     0.0165720
  H        1.2827490     1.2035910    -0.8153790
  H        1.3032950     1.1268910     0.9448060
  H        3.0193930    -0.7314540     0.8473820
  H        3.0002020    -0.6488010    -0.9221550
  H        3.5981220     0.7231720     0.0226780
  H       -2.8743340    -0.6368580     1.0585370
  H       -2.4550100    -1.5249000    -0.4208200
  H       -3.3176630     0.0418070    -0.5195010
units angstrom
no_reorient  #important for SAPT in psi4, default
symmetry c1  #important for SAPT in psi4, default
}

set PROPERTIES_ORIGIN ["COM"]
properties('MP2/aug-cc-pvtz', properties = ['dipole'])
--------------------------------------------------------------------------

    Molecular point group: c1
  Charge       = 0
  Multiplicity = 1
  Basis Set: AUG-CC-PVTZ
    Blend: AUG-CC-PVTZ
  Basis Set: (AUG-CC-PVTZ AUX)
    Blend: AUG-CC-PVTZ-JKFIT

    Orbital Energies [Eh]
    ---------------------

    Doubly Occupied:

       1A    -91.962584     2A    -20.554395     3A    -11.366627
       4A    -11.258861     5A    -11.252257     6A    -11.228481
       7A     -8.964611     8A     -6.645742     9A     -6.644725
      10A     -6.644061    11A     -1.391847    12A     -1.082546
      13A     -1.034681    14A     -0.955605    15A     -0.833559
      16A     -0.731468    17A     -0.655222    18A     -0.634854
      19A     -0.633872    20A     -0.611114    21A     -0.578495
      22A     -0.556571    23A     -0.528004    24A     -0.516060
      25A     -0.500334    26A     -0.460061    27A     -0.405052
      28A     -0.365337

  @DF-RHF Final Energy:  -628.62924449519483

   => Energetics <=

    Nuclear Repulsion Energy =            295.1714708407303647
    One-Electron Energy =               -1449.6073799013126973
    Two-Electron Energy =                 525.8066645653875639
    Total Energy =                       -628.6292444951948255
  Basis Set: (AUG-CC-PVTZ AUX)
    Blend: AUG-CC-PVTZ-RI
    Molecular point group: c1

    Geometry (in Angstrom), charge = 0, multiplicity = 1:

       Center              X                  Y                   Z               Mass
    ------------   -----------------  -----------------  -----------------  -----------------
         S            0.215461912459    -0.776593756766    -0.010116843432    31.972071174400
         O           -1.067640387541     1.451705343234    -0.019765743432    15.994914619570
         C            1.468117912459     0.538714243234     0.037940156568    12.000000000000
         C            2.862127912459    -0.074267756766    -0.004346843432    12.000000000000
         C           -1.246024087541     0.241152243234    -0.017370843432    12.000000000000
         C           -2.543554087541    -0.532265756766     0.019014156568    12.000000000000
         H            1.297068912459     1.201043243234    -0.812936843432     1.007825032230
         H            1.317614912459     1.124343243234     0.947248156568     1.007825032230
         H            3.033712912459    -0.734001756766     0.849824156568     1.007825032230
         H            3.014521912459    -0.651348756766    -0.919712843432     1.007825032230
         H            3.612441912459     0.720624243234     0.025120156568     1.007825032230
         H           -2.860014087541    -0.639405756766     1.060979156568     1.007825032230
         H           -2.440690087541    -1.527447756766    -0.418377843432     1.007825032230
         H           -3.303343087541     0.039259243234    -0.517058843432     1.007825032230

  Basis Set: AUG-CC-PVTZ
    Blend: AUG-CC-PVTZ
  Basis Set: (AUG-CC-PVTZ AUX)
    Blend: AUG-CC-PVTZ-JKFIT
	 Reference Energy          =    -628.6292444951948255 [Eh]
	 Singles Energy            =      -0.0000000000000000 [Eh]
	 Same-Spin Energy          =      -0.2912059064893660 [Eh]
	 Opposite-Spin Energy      =      -0.9537094362917549 [Eh]
	 Correlation Energy        =      -1.2449153427811208 [Eh]
	 Total Energy              =    -629.8741598379759807 [Eh]

	 ================> DF-SCS-MP2 Energies <==================
	-----------------------------------------------------------
	 SCS Same-Spin Scale       =       0.3333333333333333 [-]
	 SCS Opposite-Spin Scale   =       1.2000000000000000 [-]
	 SCS Same-Spin Energy      =      -0.0970686354964553 [Eh]
	 SCS Opposite-Spin Energy  =      -1.1444513235501057 [Eh]
	 SCS Correlation Energy    =      -1.2415199590465611 [Eh]
	 SCS Total Energy          =    -629.8707644542413391 [Eh]
	-----------------------------------------------------------

  Dipole Moment: [D]
     X:     0.0888      Y:    -1.1464      Z:     0.1057     Total:     1.1547

*** Psi4 exiting successfully. Buy a developer a beer!
