                               Psi4 1.3.2 release

  ==> Input File <==

--------------------------------------------------------------------------
#psi4
#
memory 32 gb

molecule  {
0 1
  S        0.2011420    -0.7740460    -0.0125590
  O       -1.2094190     1.4662670    -0.0184260
  C        1.4537980     0.5412620     0.0354980
  C        2.8478080    -0.0717200    -0.0067890
  C       -1.2160650     0.1600364    -0.0663180
  C       -2.5578740    -0.5297180     0.0165720
  H        1.2827490     1.2035910    -0.8153790
  H        1.3032950     1.1268910     0.9448060
  H        3.0193930    -0.7314540     0.8473820
  H        3.0002020    -0.6488010    -0.9221550
  H        3.5981220     0.7231720     0.0226780
  H       -2.8743340    -0.6368580     1.0585370
  H       -2.4550100    -1.5249000    -0.4208200
  H       -3.3176630     0.0418070    -0.5195010
units angstrom
no_reorient  #important for SAPT in psi4, default
symmetry c1  #important for SAPT in psi4, default
}

set PROPERTIES_ORIGIN ["COM"]
properties('MP2/aug-cc-pvtz', properties = ['dipole'])
--------------------------------------------------------------------------

    Molecular point group: c1
  Charge       = 0
  Multiplicity = 1
  Basis Set: AUG-CC-PVTZ
    Blend: AUG-CC-PVTZ
  Basis Set: (AUG-CC-PVTZ AUX)
    Blend: AUG-CC-PVTZ-JKFIT

    Orbital Energies [Eh]
    ---------------------

    Doubly Occupied:

       1A    -91.981330     2A    -20.538298     3A    -11.365165
       4A    -11.268782     5A    -11.245381     6A    -11.236256
       7A     -8.984194     8A     -6.665518     9A     -6.664171
      10A     -6.663659    11A     -1.330782    12A     -1.099791
      13A     -1.034398    14A     -0.969118    15A     -0.845689
      16A     -0.729341    17A     -0.647146    18A     -0.640378
      19A     -0.612737    20A     -0.601074    21A     -0.578015
      22A     -0.547571    23A     -0.527097    24A     -0.520113
      25A     -0.481274    26A     -0.466234    27A     -0.415499
      28A     -0.375807

  @DF-RHF Final Energy:  -628.61256324279998

   => Energetics <=

    Nuclear Repulsion Energy =            294.2269422402674763
    One-Electron Energy =               -1447.6093762099055766
    Two-Electron Energy =                 524.7698707268380076
    Total Energy =                       -628.6125632427999790
  Basis Set: (AUG-CC-PVTZ AUX)
    Blend: AUG-CC-PVTZ-RI
    Molecular point group: c1

    Geometry (in Angstrom), charge = 0, multiplicity = 1:

       Center              X                  Y                   Z               Mass
    ------------   -----------------  -----------------  -----------------  -----------------
         S            0.229951473374    -0.768790189280    -0.005333888397    31.972071174400
         O           -1.180609526626     1.471522810720    -0.011200888397    15.994914619570
         C            1.482607473374     0.546517810720     0.042723111603    12.000000000000
         C            2.876617473374    -0.066464189280     0.000436111603    12.000000000000
         C           -1.187255526626     0.165292210720    -0.059092888397    12.000000000000
         C           -2.529064526626    -0.524462189280     0.023797111603    12.000000000000
         H            1.311558473374     1.208846810720    -0.808153888397     1.007825032230
         H            1.332104473374     1.132146810720     0.952031111603     1.007825032230
         H            3.048202473374    -0.726198189280     0.854607111603     1.007825032230
         H            3.029011473374    -0.643545189280    -0.914929888397     1.007825032230
         H            3.626931473374     0.728427810720     0.029903111603     1.007825032230
         H           -2.845524526626    -0.631602189280     1.065762111603     1.007825032230
         H           -2.426200526626    -1.519644189280    -0.413594888397     1.007825032230
         H           -3.288853526626     0.047062810720    -0.512275888397     1.007825032230

  Basis Set: AUG-CC-PVTZ
    Blend: AUG-CC-PVTZ
  Basis Set: (AUG-CC-PVTZ AUX)
    Blend: AUG-CC-PVTZ-JKFIT
	 Reference Energy          =    -628.6125632427999790 [Eh]
	 Singles Energy            =      -0.0000000000000000 [Eh]
	 Same-Spin Energy          =      -0.2933907091679828 [Eh]
	 Opposite-Spin Energy      =      -0.9581834725692675 [Eh]
	 Correlation Energy        =      -1.2515741817372503 [Eh]
	 Total Energy              =    -629.8641374245372617 [Eh]

	 ================> DF-SCS-MP2 Energies <==================
	-----------------------------------------------------------
	 SCS Same-Spin Scale       =       0.3333333333333333 [-]
	 SCS Opposite-Spin Scale   =       1.2000000000000000 [-]
	 SCS Same-Spin Energy      =      -0.0977969030559943 [Eh]
	 SCS Opposite-Spin Energy  =      -1.1498201670831210 [Eh]
	 SCS Correlation Energy    =      -1.2476170701391152 [Eh]
	 SCS Total Energy          =    -629.8601803129390646 [Eh]
	-----------------------------------------------------------

  Dipole Moment: [D]
     X:     1.1197      Y:    -1.6838      Z:     0.1064     Total:     2.0250

*** Psi4 exiting successfully. Buy a developer a beer!
