                               Psi4 1.3.2 release

  ==> Input File <==

--------------------------------------------------------------------------
#psi4
#
memory 32 gb

molecule  {
0 1
  S        0.2011420    -0.7740460    -0.0125590
  O       -1.2094190     1.4662670    -0.0184260
  C        1.4537980     0.5412620     0.0354980
  C        2.8478080    -0.0717200    -0.0067890
  C       -1.2603440     0.2437000    -0.0198130
  C       -2.4720010    -0.4785317     0.0141640
  H        1.2827490     1.2035910    -0.8153790
  H        1.3032950     1.1268910     0.9448060
  H        3.0193930    -0.7314540     0.8473820
  H        3.0002020    -0.6488010    -0.9221550
  H        3.5981220     0.7231720     0.0226780
  H       -2.8743340    -0.6368580     1.0585370
  H       -2.4550100    -1.5249000    -0.4208200
  H       -3.3176630     0.0418070    -0.5195010
units angstrom
no_reorient  #important for SAPT in psi4, default
symmetry c1  #important for SAPT in psi4, default
}

set PROPERTIES_ORIGIN ["COM"]
properties('MP2/aug-cc-pvtz', properties = ['dipole'])
--------------------------------------------------------------------------

    Molecular point group: c1
  Charge       = 0
  Multiplicity = 1
  Basis Set: AUG-CC-PVTZ
    Blend: AUG-CC-PVTZ
  Basis Set: (AUG-CC-PVTZ AUX)
    Blend: AUG-CC-PVTZ-JKFIT

    Orbital Energies [Eh]
    ---------------------

    Doubly Occupied:

       1A    -91.968072     2A    -20.551481     3A    -11.359451
       4A    -11.262218     5A    -11.249681     6A    -11.231149
       7A     -8.969883     8A     -6.651049     9A     -6.649910
      10A     -6.649275    11A     -1.390820    12A     -1.089397
      13A     -1.044649    14A     -0.957200    15A     -0.834117
      16A     -0.739154    17A     -0.658207    18A     -0.642840
      19A     -0.636049    20A     -0.606380    21A     -0.570804
      22A     -0.548657    23A     -0.521158    24A     -0.512651
      25A     -0.493604    26A     -0.463614    27A     -0.414374
      28A     -0.369479

  @DF-RHF Final Energy:  -628.62096931102269

   => Energetics <=

    Nuclear Repulsion Energy =            295.7799683091959082
    One-Electron Energy =               -1450.7312300749604219
    Two-Electron Energy =                 526.3302924547417661
    Total Energy =                       -628.6209693110226908
  Basis Set: (AUG-CC-PVTZ AUX)
    Blend: AUG-CC-PVTZ-RI
    Molecular point group: c1

    Geometry (in Angstrom), charge = 0, multiplicity = 1:

       Center              X                  Y                   Z               Mass
    ------------   -----------------  -----------------  -----------------  -----------------
         S            0.225153530606    -0.784345367969    -0.010420556720    31.972071174400
         O           -1.185407469394     1.455967632031    -0.016287556720    15.994914619570
         C            1.477809530606     0.530962632031     0.037636443280    12.000000000000
         C            2.871819530606    -0.082019367969    -0.004650556720    12.000000000000
         C           -1.236332469394     0.233400632031    -0.017674556720    12.000000000000
         C           -2.447989469394    -0.488831067969     0.016302443280    12.000000000000
         H            1.306760530606     1.193291632031    -0.813240556720     1.007825032230
         H            1.327306530606     1.116591632031     0.946944443280     1.007825032230
         H            3.043404530606    -0.741753367969     0.849520443280     1.007825032230
         H            3.024213530606    -0.659100367969    -0.920016556720     1.007825032230
         H            3.622133530606     0.712872632031     0.024816443280     1.007825032230
         H           -2.850322469394    -0.647157367969     1.060675443280     1.007825032230
         H           -2.430998469394    -1.535199367969    -0.418681556720     1.007825032230
         H           -3.293651469394     0.031507632031    -0.517362556720     1.007825032230

  Basis Set: AUG-CC-PVTZ
    Blend: AUG-CC-PVTZ
  Basis Set: (AUG-CC-PVTZ AUX)
    Blend: AUG-CC-PVTZ-JKFIT
	 Reference Energy          =    -628.6209693110226908 [Eh]
	 Singles Energy            =      -0.0000000000000000 [Eh]
	 Same-Spin Energy          =      -0.2919674203483001 [Eh]
	 Opposite-Spin Energy      =      -0.9547406452654332 [Eh]
	 Correlation Energy        =      -1.2467080656137335 [Eh]
	 Total Energy              =    -629.8676773766363794 [Eh]

	 ================> DF-SCS-MP2 Energies <==================
	-----------------------------------------------------------
	 SCS Same-Spin Scale       =       0.3333333333333333 [-]
	 SCS Opposite-Spin Scale   =       1.2000000000000000 [-]
	 SCS Same-Spin Energy      =      -0.0973224734494334 [Eh]
	 SCS Opposite-Spin Energy  =      -1.1456887743185198 [Eh]
	 SCS Correlation Energy    =      -1.2430112477679531 [Eh]
	 SCS Total Energy          =    -629.8639805587906721 [Eh]
	-----------------------------------------------------------

  Dipole Moment: [D]
     X:     0.3413      Y:    -1.3032      Z:     0.1192     Total:     1.3524

*** Psi4 exiting successfully. Buy a developer a beer!
