                               Psi4 1.4a3.dev225

  ==> Input File <==

--------------------------------------------------------------------------
#psi4
#
memory 32 gb

molecule  {
0 1
  S        0.2011420    -0.7740460    -0.0125590
  O       -1.2094190     1.4662670    -0.0184260
  C        1.4882684     0.5774565     0.0368204
  C        2.8478080    -0.0717200    -0.0067890
  C       -1.2603440     0.2437000    -0.0198130
  C       -2.5578740    -0.5297180     0.0165720
  H        1.2827490     1.2035910    -0.8153790
  H        1.3032950     1.1268910     0.9448060
  H        3.0193930    -0.7314540     0.8473820
  H        3.0002020    -0.6488010    -0.9221550
  H        3.5981220     0.7231720     0.0226780
  H       -2.8743340    -0.6368580     1.0585370
  H       -2.4550100    -1.5249000    -0.4208200
  H       -3.3176630     0.0418070    -0.5195010
units angstrom
no_reorient  #important for SAPT in psi4, default
symmetry c1  #important for SAPT in psi4, default
}

set PROPERTIES_ORIGIN ["COM"]
properties('MP2/aug-cc-pvtz', properties = ['dipole'])
--------------------------------------------------------------------------

    Molecular point group: c1
  Charge       = 0
  Multiplicity = 1
  Basis Set: AUG-CC-PVTZ
    Blend: AUG-CC-PVTZ
  Basis Set: (AUG-CC-PVTZ AUX)
    Blend: AUG-CC-PVTZ-JKFIT

    Orbital Energies [Eh]
    ---------------------

    Doubly Occupied:

       1A    -91.966906     2A    -20.552449     3A    -11.363460
       4A    -11.264797     5A    -11.244586     6A    -11.231822
       7A     -8.968179     8A     -6.649287     9A     -6.648149
      10A     -6.647572    11A     -1.388500    12A     -1.083715
      13A     -1.031330    14A     -0.956304    15A     -0.838822
      16A     -0.730864    17A     -0.651609    18A     -0.641620
      19A     -0.629116    20A     -0.608873    21A     -0.576885
      22A     -0.558612    23A     -0.528443    24A     -0.525050
      25A     -0.503887    26A     -0.450266    27A     -0.407828
      28A     -0.369912

  @DF-RHF Final Energy:  -628.63147850306586

   => Energetics <=

    Nuclear Repulsion Energy =            293.2593409797480035
    One-Electron Energy =               -1445.7439529046721418
    Two-Electron Energy =                 523.8531334218582742
    Total Energy =                       -628.6314785030658641
  Basis Set: (AUG-CC-PVTZ AUX)
    Blend: AUG-CC-PVTZ-RI
    Molecular point group: c1

    Geometry (in Angstrom), charge = 0, multiplicity = 1:

       Center              X                  Y                   Z               Mass
    ------------   -----------------  -----------------  -----------------  -----------------
         S            0.231082913039    -0.782616036855    -0.010850865074    31.972071174400
         O           -1.179478086961     1.457696963145    -0.016717865074    15.994914619570
         C            1.518209313039     0.568886463145     0.038528534926    12.000000000000
         C            2.877748913039    -0.080290036855    -0.005080865074    12.000000000000
         C           -1.230403086961     0.235129963145    -0.018104865074    12.000000000000
         C           -2.527933086961    -0.538288036855     0.018280134926    12.000000000000
         H            1.312689913039     1.195020963145    -0.813670865074     1.007825032230
         H            1.333235913039     1.118320963145     0.946514134926     1.007825032230
         H            3.049333913039    -0.740024036855     0.849090134926     1.007825032230
         H            3.030142913039    -0.657371036855    -0.920446865074     1.007825032230
         H            3.628062913039     0.714601963145     0.024386134926     1.007825032230
         H           -2.844393086961    -0.645428036855     1.060245134926     1.007825032230
         H           -2.425069086961    -1.533470036855    -0.419111865074     1.007825032230
         H           -3.287722086961     0.033236963145    -0.517792865074     1.007825032230

  Basis Set: AUG-CC-PVTZ
    Blend: AUG-CC-PVTZ
  Basis Set: (AUG-CC-PVTZ AUX)
    Blend: AUG-CC-PVTZ-JKFIT
	 Reference Energy          =    -628.6314785030658641 [Eh]
	 Singles Energy            =      -0.0000000000000000 [Eh]
	 Same-Spin Energy          =      -0.2906268815268307 [Eh]
	 Opposite-Spin Energy      =      -0.9532192784005480 [Eh]
	 Correlation Energy        =      -1.2438461599273787 [Eh]
	 Total Energy              =    -629.8753246629931937 [Eh]

	 ================> DF-SCS-MP2 Energies <==================
	-----------------------------------------------------------
	 SCS Same-Spin Scale       =       0.3333333333333333 [-]
	 SCS Opposite-Spin Scale   =       1.2000000000000000 [-]
	 SCS Same-Spin Energy      =      -0.0968756271756102 [Eh]
	 SCS Opposite-Spin Energy  =      -1.1438631340806575 [Eh]
	 SCS Correlation Energy    =      -1.2407387612562677 [Eh]
	 SCS Total Energy          =    -629.8722172643221029 [Eh]
	-----------------------------------------------------------

  Dipole Moment: [D]
     X:     0.6018      Y:    -1.1853      Z:     0.1022     Total:     1.3333

*** Psi4 exiting successfully. Buy a developer a beer!
