                               Psi4 1.3.2 release

  ==> Input File <==

--------------------------------------------------------------------------
#psi4
#
memory 32 gb

molecule  {
0 1
  S        0.2186811    -0.7483842    -0.0124378
  O       -1.2094190     1.4662670    -0.0184260
  C        1.4537980     0.5412620     0.0354980
  C        2.8478080    -0.0717200    -0.0067890
  C       -1.2603440     0.2437000    -0.0198130
  C       -2.5578740    -0.5297180     0.0165720
  H        1.2827490     1.2035910    -0.8153790
  H        1.3032950     1.1268910     0.9448060
  H        3.0193930    -0.7314540     0.8473820
  H        3.0002020    -0.6488010    -0.9221550
  H        3.5981220     0.7231720     0.0226780
  H       -2.8743340    -0.6368580     1.0585370
  H       -2.4550100    -1.5249000    -0.4208200
  H       -3.3176630     0.0418070    -0.5195010
units angstrom
no_reorient  #important for SAPT in psi4, default
symmetry c1  #important for SAPT in psi4, default
}

set PROPERTIES_ORIGIN ["COM"]
properties('MP2/aug-cc-pvtz', properties = ['dipole'])
--------------------------------------------------------------------------

    Molecular point group: c1
  Charge       = 0
  Multiplicity = 1
  Basis Set: AUG-CC-PVTZ
    Blend: AUG-CC-PVTZ
  Basis Set: (AUG-CC-PVTZ AUX)
    Blend: AUG-CC-PVTZ-JKFIT

    Orbital Energies [Eh]
    ---------------------

    Doubly Occupied:

       1A    -91.967440     2A    -20.553374     3A    -11.364399
       4A    -11.260335     5A    -11.246461     6A    -11.231912
       7A     -8.969705     8A     -6.650897     9A     -6.649808
      10A     -6.649126    11A     -1.389823    12A     -1.091488
      13A     -1.030590    14A     -0.958890    15A     -0.835933
      16A     -0.732402    17A     -0.657190    18A     -0.637635
      19A     -0.630444    20A     -0.609252    21A     -0.577791
      22A     -0.554659    23A     -0.527492    24A     -0.520437
      25A     -0.501818    26A     -0.465720    27A     -0.408478
      28A     -0.368248

  @DF-RHF Final Energy:  -628.63233856454576

   => Energetics <=

    Nuclear Repulsion Energy =            294.7423596195716868
    One-Electron Energy =               -1448.6658997195866050
    Two-Electron Energy =                 525.2912015354690993
    Total Energy =                       -628.6323385645457620
  Basis Set: (AUG-CC-PVTZ AUX)
    Blend: AUG-CC-PVTZ-RI
    Molecular point group: c1

    Geometry (in Angstrom), charge = 0, multiplicity = 1:

       Center              X                  Y                   Z               Mass
    ------------   -----------------  -----------------  -----------------  -----------------
         S            0.247207833101    -0.760665939561    -0.010614373017    31.972071174400
         O           -1.180892266899     1.453985260439    -0.016602573017    15.994914619570
         C            1.482324733101     0.528980260439     0.037321426983    12.000000000000
         C            2.876334733101    -0.084001739561    -0.004965573017    12.000000000000
         C           -1.231817266899     0.231418260439    -0.017989573017    12.000000000000
         C           -2.529347266899    -0.541999739561     0.018395426983    12.000000000000
         H            1.311275733101     1.191309260439    -0.813555573017     1.007825032230
         H            1.331821733101     1.114609260439     0.946629426983     1.007825032230
         H            3.047919733101    -0.743735739561     0.849205426983     1.007825032230
         H            3.028728733101    -0.661082739561    -0.920331573017     1.007825032230
         H            3.626648733101     0.710890260439     0.024501426983     1.007825032230
         H           -2.845807266899    -0.649139739561     1.060360426983     1.007825032230
         H           -2.426483266899    -1.537181739561    -0.418996573017     1.007825032230
         H           -3.289136266899     0.029525260439    -0.517677573017     1.007825032230

  Basis Set: AUG-CC-PVTZ
    Blend: AUG-CC-PVTZ
  Basis Set: (AUG-CC-PVTZ AUX)
    Blend: AUG-CC-PVTZ-JKFIT
	 Reference Energy          =    -628.6323385645457620 [Eh]
	 Singles Energy            =      -0.0000000000000000 [Eh]
	 Same-Spin Energy          =      -0.2909831300535155 [Eh]
	 Opposite-Spin Energy      =      -0.9532107897944897 [Eh]
	 Correlation Energy        =      -1.2441939198480052 [Eh]
	 Total Energy              =    -629.8765324843938060 [Eh]

	 ================> DF-SCS-MP2 Energies <==================
	-----------------------------------------------------------
	 SCS Same-Spin Scale       =       0.3333333333333333 [-]
	 SCS Opposite-Spin Scale   =       1.2000000000000000 [-]
	 SCS Same-Spin Energy      =      -0.0969943766845052 [Eh]
	 SCS Opposite-Spin Energy  =      -1.1438529477533876 [Eh]
	 SCS Correlation Energy    =      -1.2408473244378928 [Eh]
	 SCS Total Energy          =    -629.8731858889836985 [Eh]
	-----------------------------------------------------------

  Dipole Moment: [D]
     X:     0.4954      Y:    -1.2218      Z:     0.1002     Total:     1.3222

*** Psi4 exiting successfully. Buy a developer a beer!
