                               Psi4 1.4a3.dev225

  ==> Input File <==

--------------------------------------------------------------------------
#psi4
#
memory 32 gb

molecule  {
0 1
  S        0.2011420    -0.7740460    -0.0125590
  O       -1.2094190     1.4662670    -0.0184260
  C        1.4193276     0.5050675     0.0341756
  C        2.8478080    -0.0717200    -0.0067890
  C       -1.2603440     0.2437000    -0.0198130
  C       -2.5578740    -0.5297180     0.0165720
  H        1.2827490     1.2035910    -0.8153790
  H        1.3032950     1.1268910     0.9448060
  H        3.0193930    -0.7314540     0.8473820
  H        3.0002020    -0.6488010    -0.9221550
  H        3.5981220     0.7231720     0.0226780
  H       -2.8743340    -0.6368580     1.0585370
  H       -2.4550100    -1.5249000    -0.4208200
  H       -3.3176630     0.0418070    -0.5195010
units angstrom
no_reorient  #important for SAPT in psi4, default
symmetry c1  #important for SAPT in psi4, default
}

set PROPERTIES_ORIGIN ["COM"]
properties('MP2/aug-cc-pvtz', properties = ['dipole'])
--------------------------------------------------------------------------

    Molecular point group: c1
  Charge       = 0
  Multiplicity = 1
  Basis Set: AUG-CC-PVTZ
    Blend: AUG-CC-PVTZ
  Basis Set: (AUG-CC-PVTZ AUX)
    Blend: AUG-CC-PVTZ-JKFIT

    Orbital Energies [Eh]
    ---------------------

    Doubly Occupied:

       1A    -91.970358     2A    -20.554900     3A    -11.365164
       4A    -11.261971     5A    -11.246400     6A    -11.232001
       7A     -8.972711     8A     -6.653935     9A     -6.652813
      10A     -6.652109    11A     -1.390600    12A     -1.091510
      13A     -1.030105    14A     -0.959011    15A     -0.832608
      16A     -0.733278    17A     -0.658703    18A     -0.632000
      19A     -0.631021    20A     -0.608465    21A     -0.577720
      22A     -0.553031    23A     -0.526186    24A     -0.513707
      25A     -0.499012    26A     -0.472946    27A     -0.410211
      28A     -0.369286

  @DF-RHF Final Energy:  -628.62981680506493

   => Energetics <=

    Nuclear Repulsion Energy =            294.7526490754841006
    One-Electron Energy =               -1448.6614146685622018
    Two-Electron Energy =                 525.2789487880130537
    Total Energy =                       -628.6298168050649338
  Basis Set: (AUG-CC-PVTZ AUX)
    Blend: AUG-CC-PVTZ-RI
    Molecular point group: c1

    Geometry (in Angstrom), charge = 0, multiplicity = 1:

       Center              X                  Y                   Z               Mass
    ------------   -----------------  -----------------  -----------------  -----------------
         S            0.239035358409    -0.774265835407    -0.010545782634    31.972071174400
         O           -1.171525641591     1.466047164593    -0.016412782634    15.994914619570
         C            1.457220958409     0.504847664593     0.036188817366    12.000000000000
         C            2.885701358409    -0.071939835407    -0.004775782634    12.000000000000
         C           -1.222450641591     0.243480164593    -0.017799782634    12.000000000000
         C           -2.519980641591    -0.529937835407     0.018585217366    12.000000000000
         H            1.320642358409     1.203371164593    -0.813365782634     1.007825032230
         H            1.341188358409     1.126671164593     0.946819217366     1.007825032230
         H            3.057286358409    -0.731673835407     0.849395217366     1.007825032230
         H            3.038095358409    -0.649020835407    -0.920141782634     1.007825032230
         H            3.636015358409     0.722952164593     0.024691217366     1.007825032230
         H           -2.836440641591    -0.637077835407     1.060550217366     1.007825032230
         H           -2.417116641591    -1.525119835407    -0.418806782634     1.007825032230
         H           -3.279769641591     0.041587164593    -0.517487782634     1.007825032230

  Basis Set: AUG-CC-PVTZ
    Blend: AUG-CC-PVTZ
  Basis Set: (AUG-CC-PVTZ AUX)
    Blend: AUG-CC-PVTZ-JKFIT
	 Reference Energy          =    -628.6298168050649338 [Eh]
	 Singles Energy            =      -0.0000000000000000 [Eh]
	 Same-Spin Energy          =      -0.2911964976137153 [Eh]
	 Opposite-Spin Energy      =      -0.9538025986222642 [Eh]
	 Correlation Energy        =      -1.2449990962359796 [Eh]
	 Total Energy              =    -629.8748159013009627 [Eh]

	 ================> DF-SCS-MP2 Energies <==================
	-----------------------------------------------------------
	 SCS Same-Spin Scale       =       0.3333333333333333 [-]
	 SCS Opposite-Spin Scale   =       1.2000000000000000 [-]
	 SCS Same-Spin Energy      =      -0.0970654992045718 [Eh]
	 SCS Opposite-Spin Energy  =      -1.1445631183467171 [Eh]
	 SCS Correlation Energy    =      -1.2416286175512889 [Eh]
	 SCS Total Energy          =    -629.8714454226162616 [Eh]
	-----------------------------------------------------------

  Dipole Moment: [D]
     X:     0.4329      Y:    -1.2540      Z:     0.0980     Total:     1.3302

*** Psi4 exiting successfully. Buy a developer a beer!
