                               Psi4 1.3.2 release

  ==> Input File <==

--------------------------------------------------------------------------
#psi4
#
memory 32 gb

molecule  {
0 1
  S        0.2011420    -0.7740460    -0.0125590
  O       -1.2094190     1.4662670    -0.0184260
  C        1.3589634     0.6254695     0.0353747
  C        2.8478080    -0.0717200    -0.0067890
  C       -1.2603440     0.2437000    -0.0198130
  C       -2.5578740    -0.5297180     0.0165720
  H        1.2827490     1.2035910    -0.8153790
  H        1.3032950     1.1268910     0.9448060
  H        3.0193930    -0.7314540     0.8473820
  H        3.0002020    -0.6488010    -0.9221550
  H        3.5981220     0.7231720     0.0226780
  H       -2.8743340    -0.6368580     1.0585370
  H       -2.4550100    -1.5249000    -0.4208200
  H       -3.3176630     0.0418070    -0.5195010
units angstrom
no_reorient  #important for SAPT in psi4, default
symmetry c1  #important for SAPT in psi4, default
}

set PROPERTIES_ORIGIN ["COM"]
properties('MP2/aug-cc-pvtz', properties = ['dipole'])
--------------------------------------------------------------------------

    Molecular point group: c1
  Charge       = 0
  Multiplicity = 1
  Basis Set: AUG-CC-PVTZ
    Blend: AUG-CC-PVTZ
  Basis Set: (AUG-CC-PVTZ AUX)
    Blend: AUG-CC-PVTZ-JKFIT

    Orbital Energies [Eh]
    ---------------------

    Doubly Occupied:

       1A    -91.970827     2A    -20.553509     3A    -11.362829
       4A    -11.258922     5A    -11.244415     6A    -11.234629
       7A     -8.972307     8A     -6.653468     9A     -6.652214
      10A     -6.651633    11A     -1.389714    12A     -1.080275
      13A     -1.025246    14A     -0.949098    15A     -0.846693
      16A     -0.732853    17A     -0.652211    18A     -0.647626
      19A     -0.630049    20A     -0.608710    21A     -0.569739
      22A     -0.551779    23A     -0.535490    24A     -0.508822
      25A     -0.487397    26A     -0.468288    27A     -0.408721
      28A     -0.374267

  @DF-RHF Final Energy:  -628.61882842964076

   => Energetics <=

    Nuclear Repulsion Energy =            293.8954599695484262
    One-Electron Energy =               -1446.9851139820716526
    Two-Electron Energy =                 524.4708255828824122
    Total Energy =                       -628.6188284296407573
  Basis Set: (AUG-CC-PVTZ AUX)
    Blend: AUG-CC-PVTZ-RI
    Molecular point group: c1

    Geometry (in Angstrom), charge = 0, multiplicity = 1:

       Center              X                  Y                   Z               Mass
    ------------   -----------------  -----------------  -----------------  -----------------
         S            0.245998477532    -0.788154422826    -0.010684100977    31.972071174400
         O           -1.164562522468     1.452158577174    -0.016551100977    15.994914619570
         C            1.403819877532     0.611361077174     0.037249599023    12.000000000000
         C            2.892664477532    -0.085828422826    -0.004914100977    12.000000000000
         C           -1.215487522468     0.229591577174    -0.017938100977    12.000000000000
         C           -2.513017522468    -0.543826422826     0.018446899023    12.000000000000
         H            1.327605477532     1.189482577174    -0.813504100977     1.007825032230
         H            1.348151477532     1.112782577174     0.946680899023     1.007825032230
         H            3.064249477532    -0.745562422826     0.849256899023     1.007825032230
         H            3.045058477532    -0.662909422826    -0.920280100977     1.007825032230
         H            3.642978477532     0.709063577174     0.024552899023     1.007825032230
         H           -2.829477522468    -0.650966422826     1.060411899023     1.007825032230
         H           -2.410153522468    -1.539008422826    -0.418945100977     1.007825032230
         H           -3.272806522468     0.027698577174    -0.517626100977     1.007825032230

  Basis Set: AUG-CC-PVTZ
    Blend: AUG-CC-PVTZ
  Basis Set: (AUG-CC-PVTZ AUX)
    Blend: AUG-CC-PVTZ-JKFIT
	 Reference Energy          =    -628.6188284296407573 [Eh]
	 Singles Energy            =      -0.0000000000000000 [Eh]
	 Same-Spin Energy          =      -0.2907762354406671 [Eh]
	 Opposite-Spin Energy      =      -0.9542345494453675 [Eh]
	 Correlation Energy        =      -1.2450107848860346 [Eh]
	 Total Energy              =    -629.8638392145268199 [Eh]

	 ================> DF-SCS-MP2 Energies <==================
	-----------------------------------------------------------
	 SCS Same-Spin Scale       =       0.3333333333333333 [-]
	 SCS Opposite-Spin Scale   =       1.2000000000000000 [-]
	 SCS Same-Spin Energy      =      -0.0969254118135557 [Eh]
	 SCS Opposite-Spin Energy  =      -1.1450814593344409 [Eh]
	 SCS Correlation Energy    =      -1.2420068711479966 [Eh]
	 SCS Total Energy          =    -629.8608353007887217 [Eh]
	-----------------------------------------------------------

  Dipole Moment: [D]
     X:     0.4378      Y:    -1.2501      Z:     0.1012     Total:     1.3284

*** Psi4 exiting successfully. Buy a developer a beer!
