                               Psi4 1.3.2 release

  ==> Input File <==

--------------------------------------------------------------------------
#psi4
#
memory 32 gb

molecule  {
0 1
  S        0.1339245    -0.6905400    -0.1696590
  O       -1.2094190     1.4662670    -0.0184260
  C        1.4537980     0.5412620     0.0354980
  C        2.8478080    -0.0717200    -0.0067890
  C       -1.2603440     0.2437000    -0.0198130
  C       -2.5578740    -0.5297180     0.0165720
  H        1.2827490     1.2035910    -0.8153790
  H        1.3032950     1.1268910     0.9448060
  H        3.0193930    -0.7314540     0.8473820
  H        3.0002020    -0.6488010    -0.9221550
  H        3.5981220     0.7231720     0.0226780
  H       -2.8743340    -0.6368580     1.0585370
  H       -2.4550100    -1.5249000    -0.4208200
  H       -3.3176630     0.0418070    -0.5195010
units angstrom
no_reorient  #important for SAPT in psi4, default
symmetry c1  #important for SAPT in psi4, default
}

set PROPERTIES_ORIGIN ["COM"]
properties('MP2/aug-cc-pvtz', properties = ['dipole'])
--------------------------------------------------------------------------

    Molecular point group: c1
  Charge       = 0
  Multiplicity = 1
  Basis Set: AUG-CC-PVTZ
    Blend: AUG-CC-PVTZ
  Basis Set: (AUG-CC-PVTZ AUX)
    Blend: AUG-CC-PVTZ-JKFIT

    Orbital Energies [Eh]
    ---------------------

    Doubly Occupied:

       1A    -91.967230     2A    -20.542477     3A    -11.353723
       4A    -11.265405     5A    -11.243358     6A    -11.235120
       7A     -8.971433     8A     -6.652782     9A     -6.651492
      10A     -6.650858    11A     -1.385177    12A     -1.095963
      13A     -1.034806    14A     -0.967204    15A     -0.844672
      16A     -0.726553    17A     -0.656120    18A     -0.638797
      19A     -0.629574    20A     -0.608912    21A     -0.576890
      22A     -0.555434    23A     -0.529347    24A     -0.526604
      25A     -0.501227    26A     -0.458820    27A     -0.410185
      28A     -0.370312

  @DF-RHF Final Energy:  -628.62751476331562

   => Energetics <=

    Nuclear Repulsion Energy =            296.8396426253187883
    One-Electron Energy =               -1452.8333604539423050
    Two-Electron Energy =                 527.3662030653080137
    Total Energy =                       -628.6275147633156166
  Basis Set: (AUG-CC-PVTZ AUX)
    Blend: AUG-CC-PVTZ-RI
    Molecular point group: c1

    Geometry (in Angstrom), charge = 0, multiplicity = 1:

       Center              X                  Y                   Z               Mass
    ------------   -----------------  -----------------  -----------------  -----------------
         S            0.188500015477    -0.720599363693    -0.119515786432    31.972071174400
         O           -1.154843484523     1.436207636307     0.031717213568    15.994914619570
         C            1.508373515477     0.511202636307     0.085641213568    12.000000000000
         C            2.902383515477    -0.101779363693     0.043354213568    12.000000000000
         C           -1.205768484523     0.213640636307     0.030330213568    12.000000000000
         C           -2.503298484523    -0.559777363693     0.066715213568    12.000000000000
         H            1.337324515477     1.173531636307    -0.765235786432     1.007825032230
         H            1.357870515477     1.096831636307     0.994949213568     1.007825032230
         H            3.073968515477    -0.761513363693     0.897525213568     1.007825032230
         H            3.054777515477    -0.678860363693    -0.872011786432     1.007825032230
         H            3.652697515477     0.693112636307     0.072821213568     1.007825032230
         H           -2.819758484523    -0.666917363693     1.108680213568     1.007825032230
         H           -2.400434484523    -1.554959363693    -0.370676786432     1.007825032230
         H           -3.263087484523     0.011747636307    -0.469357786432     1.007825032230

  Basis Set: AUG-CC-PVTZ
    Blend: AUG-CC-PVTZ
  Basis Set: (AUG-CC-PVTZ AUX)
    Blend: AUG-CC-PVTZ-JKFIT
	 Reference Energy          =    -628.6275147633156166 [Eh]
	 Singles Energy            =      -0.0000000000000000 [Eh]
	 Same-Spin Energy          =      -0.2911974755490465 [Eh]
	 Opposite-Spin Energy      =      -0.9525893937900216 [Eh]
	 Correlation Energy        =      -1.2437868693390681 [Eh]
	 Total Energy              =    -629.8713016326546494 [Eh]

	 ================> DF-SCS-MP2 Energies <==================
	-----------------------------------------------------------
	 SCS Same-Spin Scale       =       0.3333333333333333 [-]
	 SCS Opposite-Spin Scale   =       1.2000000000000000 [-]
	 SCS Same-Spin Energy      =      -0.0970658251830155 [Eh]
	 SCS Opposite-Spin Energy  =      -1.1431072725480258 [Eh]
	 SCS Correlation Energy    =      -1.2401730977310412 [Eh]
	 SCS Total Energy          =    -629.8676878610466474 [Eh]
	-----------------------------------------------------------

  Dipole Moment: [D]
     X:     0.8805      Y:    -1.3972      Z:     0.1441     Total:     1.6578

*** Psi4 exiting successfully. Buy a developer a beer!
