                               Psi4 1.3.2 release

  ==> Input File <==

--------------------------------------------------------------------------
#psi4
#
memory 32 gb

molecule  {
0 1
  S        0.2357697    -0.7224203    -0.0123188
  O       -1.2094190     1.4662670    -0.0184260
  C        1.4537980     0.5412620     0.0354980
  C        2.8478080    -0.0717200    -0.0067890
  C       -1.2603440     0.2437000    -0.0198130
  C       -2.5578740    -0.5297180     0.0165720
  H        1.2827490     1.2035910    -0.8153790
  H        1.3032950     1.1268910     0.9448060
  H        3.0193930    -0.7314540     0.8473820
  H        3.0002020    -0.6488010    -0.9221550
  H        3.5981220     0.7231720     0.0226780
  H       -2.8743340    -0.6368580     1.0585370
  H       -2.4550100    -1.5249000    -0.4208200
  H       -3.3176630     0.0418070    -0.5195010
units angstrom
no_reorient  #important for SAPT in psi4, default
symmetry c1  #important for SAPT in psi4, default
}

set PROPERTIES_ORIGIN ["COM"]
properties('MP2/aug-cc-pvtz', properties = ['dipole'])
--------------------------------------------------------------------------

    Molecular point group: c1
  Charge       = 0
  Multiplicity = 1
  Basis Set: AUG-CC-PVTZ
    Blend: AUG-CC-PVTZ
  Basis Set: (AUG-CC-PVTZ AUX)
    Blend: AUG-CC-PVTZ-JKFIT

    Orbital Energies [Eh]
    ---------------------

    Doubly Occupied:

       1A    -91.965730     2A    -20.552958     3A    -11.364332
       4A    -11.257792     5A    -11.247303     6A    -11.232314
       7A     -8.968602     8A     -6.649831     9A     -6.648768
      10A     -6.648032    11A     -1.390011    12A     -1.096589
      13A     -1.030414    14A     -0.959892    15A     -0.836392
      16A     -0.732567    17A     -0.659278    18A     -0.639205
      19A     -0.630632    20A     -0.609535    21A     -0.578313
      22A     -0.554378    23A     -0.528367    24A     -0.521225
      25A     -0.502017    26A     -0.468738    27A     -0.407537
      28A     -0.366265

  @DF-RHF Final Energy:  -628.63110618482449

   => Energetics <=

    Nuclear Repulsion Energy =            295.5132624146464195
    One-Electron Energy =               -1450.1947043055283757
    Two-Electron Energy =                 526.0503357060575809
    Total Energy =                       -628.6311061848244890
  Basis Set: (AUG-CC-PVTZ AUX)
    Blend: AUG-CC-PVTZ-RI
    Molecular point group: c1

    Geometry (in Angstrom), charge = 0, multiplicity = 1:

       Center              X                  Y                   Z               Mass
    ------------   -----------------  -----------------  -----------------  -----------------
         S            0.259044485494    -0.742681689296    -0.010531946040    31.972071174400
         O           -1.186144214506     1.446005610704    -0.016639146040    15.994914619570
         C            1.477072785494     0.521000610704     0.037284853960    12.000000000000
         C            2.871082785494    -0.091981389296    -0.005002146040    12.000000000000
         C           -1.237069214506     0.223438610704    -0.018026146040    12.000000000000
         C           -2.534599214506    -0.549979389296     0.018358853960    12.000000000000
         H            1.306023785494     1.183329610704    -0.813592146040     1.007825032230
         H            1.326569785494     1.106629610704     0.946592853960     1.007825032230
         H            3.042667785494    -0.751715389296     0.849168853960     1.007825032230
         H            3.023476785494    -0.669062389296    -0.920368146040     1.007825032230
         H            3.621396785494     0.702910610704     0.024464853960     1.007825032230
         H           -2.851059214506    -0.657119389296     1.060323853960     1.007825032230
         H           -2.431735214506    -1.545161389296    -0.419033146040     1.007825032230
         H           -3.294388214506     0.021545610704    -0.517714146040     1.007825032230

  Basis Set: AUG-CC-PVTZ
    Blend: AUG-CC-PVTZ
  Basis Set: (AUG-CC-PVTZ AUX)
    Blend: AUG-CC-PVTZ-JKFIT
	 Reference Energy          =    -628.6311061848244890 [Eh]
	 Singles Energy            =      -0.0000000000000000 [Eh]
	 Same-Spin Energy          =      -0.2911768631184255 [Eh]
	 Opposite-Spin Energy      =      -0.9530937304779661 [Eh]
	 Correlation Energy        =      -1.2442705935963916 [Eh]
	 Total Energy              =    -629.8753767784209003 [Eh]

	 ================> DF-SCS-MP2 Energies <==================
	-----------------------------------------------------------
	 SCS Same-Spin Scale       =       0.3333333333333333 [-]
	 SCS Opposite-Spin Scale   =       1.2000000000000000 [-]
	 SCS Same-Spin Energy      =      -0.0970589543728085 [Eh]
	 SCS Opposite-Spin Energy  =      -1.1437124765735593 [Eh]
	 SCS Correlation Energy    =      -1.2407714309463678 [Eh]
	 SCS Total Energy          =    -629.8718776157708135 [Eh]
	-----------------------------------------------------------

  Dipole Moment: [D]
     X:     0.4861      Y:    -1.2203      Z:     0.1004     Total:     1.3174

*** Psi4 exiting successfully. Buy a developer a beer!
