                               Psi4 1.3.2 release

  ==> Input File <==

--------------------------------------------------------------------------
#psi4
#
memory 32 gb

molecule  {
0 1
  S        0.1559753    -0.7295931    -0.0100548
  O       -1.2094190     1.4662670    -0.0184260
  C        1.4537980     0.5412620     0.0354980
  C        2.8478080    -0.0717200    -0.0067890
  C       -1.2603440     0.2437000    -0.0198130
  C       -2.5578740    -0.5297180     0.0165720
  H        1.2827490     1.2035910    -0.8153790
  H        1.3032950     1.1268910     0.9448060
  H        3.0193930    -0.7314540     0.8473820
  H        3.0002020    -0.6488010    -0.9221550
  H        3.5981220     0.7231720     0.0226780
  H       -2.8743340    -0.6368580     1.0585370
  H       -2.4550100    -1.5249000    -0.4208200
  H       -3.3176630     0.0418070    -0.5195010
units angstrom
no_reorient  #important for SAPT in psi4, default
symmetry c1  #important for SAPT in psi4, default
}

set PROPERTIES_ORIGIN ["COM"]
properties('MP2/aug-cc-pvtz', properties = ['dipole'])
--------------------------------------------------------------------------

    Molecular point group: c1
  Charge       = 0
  Multiplicity = 1
  Basis Set: AUG-CC-PVTZ
    Blend: AUG-CC-PVTZ
  Basis Set: (AUG-CC-PVTZ AUX)
    Blend: AUG-CC-PVTZ-JKFIT

    Orbital Energies [Eh]
    ---------------------

    Doubly Occupied:

       1A    -91.968085     2A    -20.546664     3A    -11.357593
       4A    -11.264586     5A    -11.243832     6A    -11.233883
       7A     -8.971320     8A     -6.652597     9A     -6.651384
      10A     -6.650760    11A     -1.386520    12A     -1.092530
      13A     -1.033322    14A     -0.963908    15A     -0.841310
      16A     -0.728421    17A     -0.655633    18A     -0.638217
      19A     -0.629721    20A     -0.608661    21A     -0.576963
      22A     -0.555332    23A     -0.528552    24A     -0.523436
      25A     -0.501183    26A     -0.460690    27A     -0.410289
      28A     -0.371095

  @DF-RHF Final Energy:  -628.63190249423872

   => Energetics <=

    Nuclear Repulsion Energy =            295.7991503245635840
    One-Electron Energy =               -1450.7691302449734394
    Two-Electron Energy =                 526.3380774261712531
    Total Energy =                       -628.6319024942387159
  Basis Set: (AUG-CC-PVTZ AUX)
    Blend: AUG-CC-PVTZ-RI
    Molecular point group: c1

    Geometry (in Angstrom), charge = 0, multiplicity = 1:

       Center              X                  Y                   Z               Mass
    ------------   -----------------  -----------------  -----------------  -----------------
         S            0.203773803534    -0.747650027269    -0.008963755491    31.972071174400
         O           -1.161620496466     1.448210072731    -0.017334955491    15.994914619570
         C            1.501596503534     0.523205072731     0.036589044509    12.000000000000
         C            2.895606503534    -0.089776927269    -0.005697955491    12.000000000000
         C           -1.212545496466     0.225643072731    -0.018721955491    12.000000000000
         C           -2.510075496466    -0.547774927269     0.017663044509    12.000000000000
         H            1.330547503534     1.185534072731    -0.814287955491     1.007825032230
         H            1.351093503534     1.108834072731     0.945897044509     1.007825032230
         H            3.067191503534    -0.749510927269     0.848473044509     1.007825032230
         H            3.048000503534    -0.666857927269    -0.921063955491     1.007825032230
         H            3.645920503534     0.705115072731     0.023769044509     1.007825032230
         H           -2.826535496466    -0.654914927269     1.059628044509     1.007825032230
         H           -2.407211496466    -1.542956927269    -0.419728955491     1.007825032230
         H           -3.269864496466     0.023750072731    -0.518409955491     1.007825032230

  Basis Set: AUG-CC-PVTZ
    Blend: AUG-CC-PVTZ
  Basis Set: (AUG-CC-PVTZ AUX)
    Blend: AUG-CC-PVTZ-JKFIT
	 Reference Energy          =    -628.6319024942387159 [Eh]
	 Singles Energy            =      -0.0000000000000000 [Eh]
	 Same-Spin Energy          =      -0.2909926948476247 [Eh]
	 Opposite-Spin Energy      =      -0.9526952380659264 [Eh]
	 Correlation Energy        =      -1.2436879329135511 [Eh]
	 Total Energy              =    -629.8755904271522468 [Eh]

	 ================> DF-SCS-MP2 Energies <==================
	-----------------------------------------------------------
	 SCS Same-Spin Scale       =       0.3333333333333333 [-]
	 SCS Opposite-Spin Scale   =       1.2000000000000000 [-]
	 SCS Same-Spin Energy      =      -0.0969975649492082 [Eh]
	 SCS Opposite-Spin Energy  =      -1.1432342856791116 [Eh]
	 SCS Correlation Energy    =      -1.2402318506283199 [Eh]
	 SCS Total Energy          =    -629.8721343448670495 [Eh]
	-----------------------------------------------------------

  Dipole Moment: [D]
     X:     0.7624      Y:    -1.3409      Z:     0.0976     Total:     1.5456

*** Psi4 exiting successfully. Buy a developer a beer!
