                               Psi4 1.3.2 release

  ==> Input File <==

--------------------------------------------------------------------------
#psi4
#
memory 32 gb

molecule  {
0 1
  S        0.2011420    -0.7740460    -0.0125590
  O       -1.2094190     1.4662670    -0.0184260
  C        1.4537980     0.5412620     0.0354980
  C        2.8478080    -0.0717200    -0.0067890
  C       -1.3109445     0.3235956     0.0268693
  C       -2.5578740    -0.5297180     0.0165720
  H        1.2827490     1.2035910    -0.8153790
  H        1.3032950     1.1268910     0.9448060
  H        3.0193930    -0.7314540     0.8473820
  H        3.0002020    -0.6488010    -0.9221550
  H        3.5981220     0.7231720     0.0226780
  H       -2.8743340    -0.6368580     1.0585370
  H       -2.4550100    -1.5249000    -0.4208200
  H       -3.3176630     0.0418070    -0.5195010
units angstrom
no_reorient  #important for SAPT in psi4, default
symmetry c1  #important for SAPT in psi4, default
}

set PROPERTIES_ORIGIN ["COM"]
properties('MP2/aug-cc-pvtz', properties = ['dipole'])
--------------------------------------------------------------------------

    Molecular point group: c1
  Charge       = 0
  Multiplicity = 1
  Basis Set: AUG-CC-PVTZ
    Blend: AUG-CC-PVTZ
  Basis Set: (AUG-CC-PVTZ AUX)
    Blend: AUG-CC-PVTZ-JKFIT

    Orbital Energies [Eh]
    ---------------------

    Doubly Occupied:

       1A    -91.953577     2A    -20.570289     3A    -11.364954
       4A    -11.256474     5A    -11.248737     6A    -11.226279
       7A     -8.954761     8A     -6.635806     9A     -6.634809
      10A     -6.634107    11A     -1.453277    12A     -1.074881
      13A     -1.030580    14A     -0.944592    15A     -0.824972
      16A     -0.740390    17A     -0.665543    18A     -0.653798
      19A     -0.636384    20A     -0.618339    21A     -0.575898
      22A     -0.561449    23A     -0.542198    24A     -0.522159
      25A     -0.508500    26A     -0.454252    27A     -0.391626
      28A     -0.359113

  @DF-RHF Final Energy:  -628.62855550506345

   => Energetics <=

    Nuclear Repulsion Energy =            293.8122359678359885
    One-Electron Energy =               -1446.8060967357184836
    Two-Electron Energy =                 524.3653052628191062
    Total Energy =                       -628.6285555050634457
  Basis Set: (AUG-CC-PVTZ AUX)
    Blend: AUG-CC-PVTZ-RI
    Molecular point group: c1

    Geometry (in Angstrom), charge = 0, multiplicity = 1:

       Center              X                  Y                   Z               Mass
    ------------   -----------------  -----------------  -----------------  -----------------
         S            0.240895994478    -0.787657037400    -0.016083211185    31.972071174400
         O           -1.169665005522     1.452655962600    -0.021950211185    15.994914619570
         C            1.493551994478     0.527650962600     0.031973788815    12.000000000000
         C            2.887561994478    -0.085331037400    -0.010313211185    12.000000000000
         C           -1.271190505522     0.309984562600     0.023345088815    12.000000000000
         C           -2.518120005522    -0.543329037400     0.013047788815    12.000000000000
         H            1.322502994478     1.189979962600    -0.818903211185     1.007825032230
         H            1.343048994478     1.113279962600     0.941281788815     1.007825032230
         H            3.059146994478    -0.745065037400     0.843857788815     1.007825032230
         H            3.039955994478    -0.662412037400    -0.925679211185     1.007825032230
         H            3.637875994478     0.709560962600     0.019153788815     1.007825032230
         H           -2.834580005522    -0.650469037400     1.055012788815     1.007825032230
         H           -2.415256005522    -1.538511037400    -0.424344211185     1.007825032230
         H           -3.277909005522     0.028195962600    -0.523025211185     1.007825032230

  Basis Set: AUG-CC-PVTZ
    Blend: AUG-CC-PVTZ
  Basis Set: (AUG-CC-PVTZ AUX)
    Blend: AUG-CC-PVTZ-JKFIT
	 Reference Energy          =    -628.6285555050634457 [Eh]
	 Singles Energy            =      -0.0000000000000000 [Eh]
	 Same-Spin Energy          =      -0.2891637746195081 [Eh]
	 Opposite-Spin Energy      =      -0.9500707711074410 [Eh]
	 Correlation Energy        =      -1.2392345457269491 [Eh]
	 Total Energy              =    -629.8677900507904042 [Eh]

	 ================> DF-SCS-MP2 Energies <==================
	-----------------------------------------------------------
	 SCS Same-Spin Scale       =       0.3333333333333333 [-]
	 SCS Opposite-Spin Scale   =       1.2000000000000000 [-]
	 SCS Same-Spin Energy      =      -0.0963879248731694 [Eh]
	 SCS Opposite-Spin Energy  =      -1.1400849253289291 [Eh]
	 SCS Correlation Energy    =      -1.2364728502020985 [Eh]
	 SCS Total Energy          =    -629.8650283552655083 [Eh]
	-----------------------------------------------------------

  Dipole Moment: [D]
     X:    -0.2308      Y:    -0.6615      Z:     0.1182     Total:     0.7105

*** Psi4 exiting successfully. Buy a developer a beer!
