                               Psi4 1.4a3.dev225

  ==> Input File <==

--------------------------------------------------------------------------
#psi4
#
memory 32 gb

molecule  {
0 1
  S        0.2011420    -0.7740460    -0.0125590
  O       -1.2094190     1.4662670    -0.0184260
  C        1.4400098     0.5267842     0.0349690
  C        2.8478080    -0.0717200    -0.0067890
  C       -1.2603440     0.2437000    -0.0198130
  C       -2.5578740    -0.5297180     0.0165720
  H        1.2827490     1.2035910    -0.8153790
  H        1.3032950     1.1268910     0.9448060
  H        3.0193930    -0.7314540     0.8473820
  H        3.0002020    -0.6488010    -0.9221550
  H        3.5981220     0.7231720     0.0226780
  H       -2.8743340    -0.6368580     1.0585370
  H       -2.4550100    -1.5249000    -0.4208200
  H       -3.3176630     0.0418070    -0.5195010
units angstrom
no_reorient  #important for SAPT in psi4, default
symmetry c1  #important for SAPT in psi4, default
}

set PROPERTIES_ORIGIN ["COM"]
properties('MP2/aug-cc-pvtz', properties = ['dipole'])
--------------------------------------------------------------------------

    Molecular point group: c1
  Charge       = 0
  Multiplicity = 1
  Basis Set: AUG-CC-PVTZ
    Blend: AUG-CC-PVTZ
  Basis Set: (AUG-CC-PVTZ AUX)
    Blend: AUG-CC-PVTZ-JKFIT

    Orbital Energies [Eh]
    ---------------------

    Doubly Occupied:

       1A    -91.969606     2A    -20.554221     3A    -11.364752
       4A    -11.262447     5A    -11.245935     6A    -11.231703
       7A     -8.971558     8A     -6.652742     9A     -6.651622
      10A     -6.650962    11A     -1.390029    12A     -1.088558
      13A     -1.030492    14A     -0.958361    15A     -0.834354
      16A     -0.732666    17A     -0.656559    18A     -0.634392
      19A     -0.630603    20A     -0.608845    21A     -0.577474
      22A     -0.554054    23A     -0.526409    24A     -0.517438
      25A     -0.500643    26A     -0.466845    27A     -0.409629
      28A     -0.369835

  @DF-RHF Final Energy:  -628.63189736055176

   => Energetics <=

    Nuclear Repulsion Energy =            294.2936515923198044
    One-Electron Energy =               -1447.7656379280772398
    Two-Electron Energy =                 524.8400889752057310
    Total Energy =                       -628.6318973605517613
  Basis Set: (AUG-CC-PVTZ AUX)
    Blend: AUG-CC-PVTZ-RI
    Molecular point group: c1

    Geometry (in Angstrom), charge = 0, multiplicity = 1:

       Center              X                  Y                   Z               Mass
    ------------   -----------------  -----------------  -----------------  -----------------
         S            0.236649629412    -0.776770895842    -0.010637302752    31.972071174400
         O           -1.173911370588     1.463542104158    -0.016504302752    15.994914619570
         C            1.475517429412     0.524059304158     0.036890697248    12.000000000000
         C            2.883315629412    -0.074444895842    -0.004867302752    12.000000000000
         C           -1.224836370588     0.240975104158    -0.017891302752    12.000000000000
         C           -2.522366370588    -0.532442895842     0.018493697248    12.000000000000
         H            1.318256629412     1.200866104158    -0.813457302752     1.007825032230
         H            1.338802629412     1.124166104158     0.946727697248     1.007825032230
         H            3.054900629412    -0.734178895842     0.849303697248     1.007825032230
         H            3.035709629412    -0.651525895842    -0.920233302752     1.007825032230
         H            3.633629629412     0.720447104158     0.024599697248     1.007825032230
         H           -2.838826370588    -0.639582895842     1.060458697248     1.007825032230
         H           -2.419502370588    -1.527624895842    -0.418898302752     1.007825032230
         H           -3.282155370588     0.039082104158    -0.517579302752     1.007825032230

  Basis Set: AUG-CC-PVTZ
    Blend: AUG-CC-PVTZ
  Basis Set: (AUG-CC-PVTZ AUX)
    Blend: AUG-CC-PVTZ-JKFIT
	 Reference Energy          =    -628.6318973605517613 [Eh]
	 Singles Energy            =      -0.0000000000000000 [Eh]
	 Same-Spin Energy          =      -0.2909527521165803 [Eh]
	 Opposite-Spin Energy      =      -0.9535222538499613 [Eh]
	 Correlation Energy        =      -1.2444750059665415 [Eh]
	 Total Energy              =    -629.8763723665183534 [Eh]

	 ================> DF-SCS-MP2 Energies <==================
	-----------------------------------------------------------
	 SCS Same-Spin Scale       =       0.3333333333333333 [-]
	 SCS Opposite-Spin Scale   =       1.2000000000000000 [-]
	 SCS Same-Spin Energy      =      -0.0969842507055268 [Eh]
	 SCS Opposite-Spin Energy  =      -1.1442267046199535 [Eh]
	 SCS Correlation Energy    =      -1.2412109553254802 [Eh]
	 SCS Total Energy          =    -629.8731083158772890 [Eh]
	-----------------------------------------------------------

  Dipole Moment: [D]
     X:     0.4767      Y:    -1.2350      Z:     0.0993     Total:     1.3275

*** Psi4 exiting successfully. Buy a developer a beer!
