                               Psi4 1.3.2 release

  ==> Input File <==

--------------------------------------------------------------------------
#psi4
#
memory 32 gb

molecule  {
0 1
  S        0.2011420    -0.7740460    -0.0125590
  O       -1.2307542     1.4669685    -0.0177960
  C        1.4537980     0.5412620     0.0354980
  C        2.8478080    -0.0717200    -0.0067890
  C       -1.2603440     0.2437000    -0.0198130
  C       -2.5578740    -0.5297180     0.0165720
  H        1.2827490     1.2035910    -0.8153790
  H        1.3032950     1.1268910     0.9448060
  H        3.0193930    -0.7314540     0.8473820
  H        3.0002020    -0.6488010    -0.9221550
  H        3.5981220     0.7231720     0.0226780
  H       -2.8743340    -0.6368580     1.0585370
  H       -2.4550100    -1.5249000    -0.4208200
  H       -3.3176630     0.0418070    -0.5195010
units angstrom
no_reorient  #important for SAPT in psi4, default
symmetry c1  #important for SAPT in psi4, default
}

set PROPERTIES_ORIGIN ["COM"]
properties('MP2/aug-cc-pvtz', properties = ['dipole'])
--------------------------------------------------------------------------

    Molecular point group: c1
  Charge       = 0
  Multiplicity = 1
  Basis Set: AUG-CC-PVTZ
    Blend: AUG-CC-PVTZ
  Basis Set: (AUG-CC-PVTZ AUX)
    Blend: AUG-CC-PVTZ-JKFIT

    Orbital Energies [Eh]
    ---------------------

    Doubly Occupied:

       1A    -91.970020     2A    -20.553587     3A    -11.364086
       4A    -11.263592     5A    -11.244467     6A    -11.232116
       7A     -8.971692     8A     -6.652855     9A     -6.651716
      10A     -6.651086    11A     -1.389350    12A     -1.087586
      13A     -1.030090    14A     -0.958150    15A     -0.835954
      16A     -0.732304    17A     -0.655151    18A     -0.636690
      19A     -0.629472    20A     -0.608584    21A     -0.577206
      22A     -0.554750    23A     -0.526617    24A     -0.520452
      25A     -0.501736    26A     -0.462772    27A     -0.409546
      28A     -0.370779

  @DF-RHF Final Energy:  -628.63244933198484

   => Energetics <=

    Nuclear Repulsion Energy =            293.8209226478844016
    One-Electron Energy =               -1446.8219309900771350
    Two-Electron Energy =                 524.3685590102079459
    Total Energy =                       -628.6324493319848443
  Basis Set: (AUG-CC-PVTZ AUX)
    Blend: AUG-CC-PVTZ-RI
    Molecular point group: c1

    Geometry (in Angstrom), charge = 0, multiplicity = 1:

       Center              X                  Y                   Z               Mass
    ------------   -----------------  -----------------  -----------------  -----------------
         S            0.238339497738    -0.778548794223    -0.010795188569    31.972071174400
         O           -1.193556702262     1.462465705777    -0.016032188569    15.994914619570
         C            1.490995497738     0.536759205777     0.037261811431    12.000000000000
         C            2.885005497738    -0.076222794223    -0.005025188569    12.000000000000
         C           -1.223146502262     0.239197205777    -0.018049188569    12.000000000000
         C           -2.520676502262    -0.534220794223     0.018335811431    12.000000000000
         H            1.319946497738     1.199088205777    -0.813615188569     1.007825032230
         H            1.340492497738     1.122388205777     0.946569811431     1.007825032230
         H            3.056590497738    -0.735956794223     0.849145811431     1.007825032230
         H            3.037399497738    -0.653303794223    -0.920391188569     1.007825032230
         H            3.635319497738     0.718669205777     0.024441811431     1.007825032230
         H           -2.837136502262    -0.641360794223     1.060300811431     1.007825032230
         H           -2.417812502262    -1.529402794223    -0.419056188569     1.007825032230
         H           -3.280465502262     0.037304205777    -0.517737188569     1.007825032230

  Basis Set: AUG-CC-PVTZ
    Blend: AUG-CC-PVTZ
  Basis Set: (AUG-CC-PVTZ AUX)
    Blend: AUG-CC-PVTZ-JKFIT
	 Reference Energy          =    -628.6324493319848443 [Eh]
	 Singles Energy            =      -0.0000000000000000 [Eh]
	 Same-Spin Energy          =      -0.2907857664204567 [Eh]
	 Opposite-Spin Energy      =      -0.9533822606642260 [Eh]
	 Correlation Energy        =      -1.2441680270846827 [Eh]
	 Total Energy              =    -629.8766173590695416 [Eh]

	 ================> DF-SCS-MP2 Energies <==================
	-----------------------------------------------------------
	 SCS Same-Spin Scale       =       0.3333333333333333 [-]
	 SCS Opposite-Spin Scale   =       1.2000000000000000 [-]
	 SCS Same-Spin Energy      =      -0.0969285888068189 [Eh]
	 SCS Opposite-Spin Energy  =      -1.1440587127970712 [Eh]
	 SCS Correlation Energy    =      -1.2409873016038901 [Eh]
	 SCS Total Energy          =    -629.8734366335887671 [Eh]
	-----------------------------------------------------------

  Dipole Moment: [D]
     X:     0.5788      Y:    -1.2300      Z:     0.0992     Total:     1.3630

*** Psi4 exiting successfully. Buy a developer a beer!
