                               Psi4 1.4a3.dev225

  ==> Input File <==

--------------------------------------------------------------------------
#psi4
#
memory 32 gb

molecule  {
0 1
  S        0.2011420    -0.7740460    -0.0125590
  O       -1.2094190     1.4662670    -0.0184260
  C        1.4675862     0.5557398     0.0360270
  C        2.8478080    -0.0717200    -0.0067890
  C       -1.2603440     0.2437000    -0.0198130
  C       -2.5578740    -0.5297180     0.0165720
  H        1.2827490     1.2035910    -0.8153790
  H        1.3032950     1.1268910     0.9448060
  H        3.0193930    -0.7314540     0.8473820
  H        3.0002020    -0.6488010    -0.9221550
  H        3.5981220     0.7231720     0.0226780
  H       -2.8743340    -0.6368580     1.0585370
  H       -2.4550100    -1.5249000    -0.4208200
  H       -3.3176630     0.0418070    -0.5195010
units angstrom
no_reorient  #important for SAPT in psi4, default
symmetry c1  #important for SAPT in psi4, default
}

set PROPERTIES_ORIGIN ["COM"]
properties('MP2/aug-cc-pvtz', properties = ['dipole'])
--------------------------------------------------------------------------

    Molecular point group: c1
  Charge       = 0
  Multiplicity = 1
  Basis Set: AUG-CC-PVTZ
    Blend: AUG-CC-PVTZ
  Basis Set: (AUG-CC-PVTZ AUX)
    Blend: AUG-CC-PVTZ-JKFIT

    Orbital Energies [Eh]
    ---------------------

    Doubly Occupied:

       1A    -91.968223     2A    -20.553241     3A    -11.364070
       4A    -11.263569     5A    -11.245210     6A    -11.231632
       7A     -8.969746     8A     -6.650884     9A     -6.649756
      10A     -6.649147    11A     -1.389189    12A     -1.085449
      13A     -1.030997    14A     -0.957275    15A     -0.836846
      16A     -0.731693    17A     -0.653714    18A     -0.638327
      19A     -0.629789    20A     -0.608995    21A     -0.577139
      22A     -0.556207    23A     -0.527192    24A     -0.522297
      25A     -0.502627    26A     -0.457629    27A     -0.408670
      28A     -0.370071

  @DF-RHF Final Energy:  -628.63249455686571

   => Energetics <=

    Nuclear Repulsion Energy =            293.6969785300422586
    One-Electron Energy =               -1446.5997768854472270
    Two-Electron Energy =                 524.2703037985392029
    Total Energy =                       -628.6324945568657085
  Basis Set: (AUG-CC-PVTZ AUX)
    Blend: AUG-CC-PVTZ-RI
    Molecular point group: c1

    Geometry (in Angstrom), charge = 0, multiplicity = 1:

       Center              X                  Y                   Z               Mass
    ------------   -----------------  -----------------  -----------------  -----------------
         S            0.233468642036    -0.780110976421    -0.010759344956    31.972071174400
         O           -1.177092357964     1.460202023579    -0.016626344956    15.994914619570
         C            1.499912842036     0.549674823579     0.037826655044    12.000000000000
         C            2.880134642036    -0.077784976421    -0.004989344956    12.000000000000
         C           -1.228017357964     0.237635023579    -0.018013344956    12.000000000000
         C           -2.525547357964    -0.535782976421     0.018371655044    12.000000000000
         H            1.315075642036     1.197526023579    -0.813579344956     1.007825032230
         H            1.335621642036     1.120826023579     0.946605655044     1.007825032230
         H            3.051719642036    -0.737518976421     0.849181655044     1.007825032230
         H            3.032528642036    -0.654865976421    -0.920355344956     1.007825032230
         H            3.630448642036     0.717107023579     0.024477655044     1.007825032230
         H           -2.842007357964    -0.642922976421     1.060336655044     1.007825032230
         H           -2.422683357964    -1.530964976421    -0.419020344956     1.007825032230
         H           -3.285336357964     0.035742023579    -0.517701344956     1.007825032230

  Basis Set: AUG-CC-PVTZ
    Blend: AUG-CC-PVTZ
  Basis Set: (AUG-CC-PVTZ AUX)
    Blend: AUG-CC-PVTZ-JKFIT
	 Reference Energy          =    -628.6324945568657085 [Eh]
	 Singles Energy            =      -0.0000000000000000 [Eh]
	 Same-Spin Energy          =      -0.2907275822685013 [Eh]
	 Opposite-Spin Energy      =      -0.9532923390341892 [Eh]
	 Correlation Energy        =      -1.2440199213026906 [Eh]
	 Total Energy              =    -629.8765144781683603 [Eh]

	 ================> DF-SCS-MP2 Energies <==================
	-----------------------------------------------------------
	 SCS Same-Spin Scale       =       0.3333333333333333 [-]
	 SCS Opposite-Spin Scale   =       1.2000000000000000 [-]
	 SCS Same-Spin Energy      =      -0.0969091940895004 [Eh]
	 SCS Opposite-Spin Energy  =      -1.1439508068410269 [Eh]
	 SCS Correlation Energy    =      -1.2408600009305273 [Eh]
	 SCS Total Energy          =    -629.8733545577962332 [Eh]
	-----------------------------------------------------------

  Dipole Moment: [D]
     X:     0.5444      Y:    -1.2075      Z:     0.1010     Total:     1.3284

*** Psi4 exiting successfully. Buy a developer a beer!
