                               Psi4 1.3.2 release

  ==> Input File <==

--------------------------------------------------------------------------
#psi4
#
memory 32 gb

molecule  {
0 1
  S        0.1266036    -0.8734669    -0.0090645
  O       -1.2094190     1.4662670    -0.0184260
  C        1.4537980     0.5412620     0.0354980
  C        2.8478080    -0.0717200    -0.0067890
  C       -1.2603440     0.2437000    -0.0198130
  C       -2.5578740    -0.5297180     0.0165720
  H        1.2827490     1.2035910    -0.8153790
  H        1.3032950     1.1268910     0.9448060
  H        3.0193930    -0.7314540     0.8473820
  H        3.0002020    -0.6488010    -0.9221550
  H        3.5981220     0.7231720     0.0226780
  H       -2.8743340    -0.6368580     1.0585370
  H       -2.4550100    -1.5249000    -0.4208200
  H       -3.3176630     0.0418070    -0.5195010
units angstrom
no_reorient  #important for SAPT in psi4, default
symmetry c1  #important for SAPT in psi4, default
}

set PROPERTIES_ORIGIN ["COM"]
properties('MP2/aug-cc-pvtz', properties = ['dipole'])
--------------------------------------------------------------------------

    Molecular point group: c1
  Charge       = 0
  Multiplicity = 1
  Basis Set: AUG-CC-PVTZ
    Blend: AUG-CC-PVTZ
  Basis Set: (AUG-CC-PVTZ AUX)
    Blend: AUG-CC-PVTZ-JKFIT

    Orbital Energies [Eh]
    ---------------------

    Doubly Occupied:

       1A    -91.973312     2A    -20.554797     3A    -11.364217
       4A    -11.273770     5A    -11.241832     6A    -11.231488
       7A     -8.973416     8A     -6.654467     9A     -6.653193
      10A     -6.652697    11A     -1.388690    12A     -1.073126
      13A     -1.031372    14A     -0.953078    15A     -0.835304
      16A     -0.731070    17A     -0.647336    18A     -0.632797
      19A     -0.628865    20A     -0.607847    21A     -0.575989
      22A     -0.556550    23A     -0.524536    24A     -0.520254
      25A     -0.501630    26A     -0.446608    27A     -0.409598
      28A     -0.375125

  @DF-RHF Final Energy:  -628.62445429269508

   => Energetics <=

    Nuclear Repulsion Energy =            291.2156193783876574
    One-Electron Energy =               -1441.6542238539734626
    Two-Electron Energy =                 521.8141501828907849
    Total Energy =                       -628.6244542926950771
  Basis Set: (AUG-CC-PVTZ AUX)
    Blend: AUG-CC-PVTZ-RI
    Molecular point group: c1

    Geometry (in Angstrom), charge = 0, multiplicity = 1:

       Center              X                  Y                   Z               Mass
    ------------   -----------------  -----------------  -----------------  -----------------
         S            0.183429094014    -0.847306181613    -0.008277810659    31.972071174400
         O           -1.152593505986     1.492427718387    -0.017639310659    15.994914619570
         C            1.510623494014     0.567422718387     0.036284689341    12.000000000000
         C            2.904633494014    -0.045559281613    -0.006002310659    12.000000000000
         C           -1.203518505986     0.269860718387    -0.019026310659    12.000000000000
         C           -2.501048505986    -0.503557281613     0.017358689341    12.000000000000
         H            1.339574494014     1.229751718387    -0.814592310659     1.007825032230
         H            1.360120494014     1.153051718387     0.945592689341     1.007825032230
         H            3.076218494014    -0.705293281613     0.848168689341     1.007825032230
         H            3.057027494014    -0.622640281613    -0.921368310659     1.007825032230
         H            3.654947494014     0.749332718387     0.023464689341     1.007825032230
         H           -2.817508505986    -0.610697281613     1.059323689341     1.007825032230
         H           -2.398184505986    -1.498739281613    -0.420033310659     1.007825032230
         H           -3.260837505986     0.067967718387    -0.518714310659     1.007825032230

  Basis Set: AUG-CC-PVTZ
    Blend: AUG-CC-PVTZ
  Basis Set: (AUG-CC-PVTZ AUX)
    Blend: AUG-CC-PVTZ-JKFIT
	 Reference Energy          =    -628.6244542926950771 [Eh]
	 Singles Energy            =      -0.0000000000000000 [Eh]
	 Same-Spin Energy          =      -0.2905340078015530 [Eh]
	 Opposite-Spin Energy      =      -0.9546236981054822 [Eh]
	 Correlation Energy        =      -1.2451577059070353 [Eh]
	 Total Energy              =    -629.8696119986020676 [Eh]

	 ================> DF-SCS-MP2 Energies <==================
	-----------------------------------------------------------
	 SCS Same-Spin Scale       =       0.3333333333333333 [-]
	 SCS Opposite-Spin Scale   =       1.2000000000000000 [-]
	 SCS Same-Spin Energy      =      -0.0968446692671843 [Eh]
	 SCS Opposite-Spin Energy  =      -1.1455484377265786 [Eh]
	 SCS Correlation Energy    =      -1.2423931069937628 [Eh]
	 SCS Total Energy          =    -629.8668473996888224 [Eh]
	-----------------------------------------------------------

  Dipole Moment: [D]
     X:     0.6029      Y:    -1.2050      Z:     0.0991     Total:     1.3510

*** Psi4 exiting successfully. Buy a developer a beer!
