                               Psi4 1.3.2 release

  ==> Input File <==

--------------------------------------------------------------------------
#psi4
#
memory 32 gb

molecule  {
0 1
  S        0.2011420    -0.7740460    -0.0125590
  O       -1.2094190     1.4662670    -0.0184260
  C        1.4537980     0.5412620     0.0354980
  C        2.8478080    -0.0717200    -0.0067890
  C       -1.2848688     0.2841436     0.0035202
  C       -2.5578740    -0.5297180     0.0165720
  H        1.2827490     1.2035910    -0.8153790
  H        1.3032950     1.1268910     0.9448060
  H        3.0193930    -0.7314540     0.8473820
  H        3.0002020    -0.6488010    -0.9221550
  H        3.5981220     0.7231720     0.0226780
  H       -2.8743340    -0.6368580     1.0585370
  H       -2.4550100    -1.5249000    -0.4208200
  H       -3.3176630     0.0418070    -0.5195010
units angstrom
no_reorient  #important for SAPT in psi4, default
symmetry c1  #important for SAPT in psi4, default
}

set PROPERTIES_ORIGIN ["COM"]
properties('MP2/aug-cc-pvtz', properties = ['dipole'])
--------------------------------------------------------------------------

    Molecular point group: c1
  Charge       = 0
  Multiplicity = 1
  Basis Set: AUG-CC-PVTZ
    Blend: AUG-CC-PVTZ
  Basis Set: (AUG-CC-PVTZ AUX)
    Blend: AUG-CC-PVTZ-JKFIT

    Orbital Energies [Eh]
    ---------------------

    Doubly Occupied:

       1A    -91.961740     2A    -20.561731     3A    -11.364371
       4A    -11.259809     5A    -11.246699     6A    -11.229066
       7A     -8.963115     8A     -6.644211     9A     -6.643161
      10A     -6.642488    11A     -1.421038    12A     -1.080781
      13A     -1.030175    14A     -0.951424    15A     -0.830314
      16A     -0.735506    17A     -0.659538    18A     -0.642316
      19A     -0.634968    20A     -0.613866    21A     -0.576331
      22A     -0.558156    23A     -0.532091    24A     -0.521188
      25A     -0.507715    26A     -0.458675    27A     -0.401559
      28A     -0.365094

  @DF-RHF Final Energy:  -628.63368611857754

   => Energetics <=

    Nuclear Repulsion Energy =            293.8978604726614208
    One-Electron Energy =               -1446.9888459183421219
    Two-Electron Energy =                 524.4572993271031009
    Total Energy =                       -628.6336861185775433
  Basis Set: (AUG-CC-PVTZ AUX)
    Blend: AUG-CC-PVTZ-RI
    Molecular point group: c1

    Geometry (in Angstrom), charge = 0, multiplicity = 1:

       Center              X                  Y                   Z               Mass
    ------------   -----------------  -----------------  -----------------  -----------------
         S            0.237888115548    -0.783106178188    -0.013389850473    31.972071174400
         O           -1.172672884452     1.457206821812    -0.019256850473    15.994914619570
         C            1.490544115548     0.532201821812     0.034667149527    12.000000000000
         C            2.884554115548    -0.080780178188    -0.007619850473    12.000000000000
         C           -1.248122684452     0.275083421812     0.002689349527    12.000000000000
         C           -2.521127884452    -0.538778178188     0.015741149527    12.000000000000
         H            1.319495115548     1.194530821812    -0.816209850473     1.007825032230
         H            1.340041115548     1.117830821812     0.943975149527     1.007825032230
         H            3.056139115548    -0.740514178188     0.846551149527     1.007825032230
         H            3.036948115548    -0.657861178188    -0.922985850473     1.007825032230
         H            3.634868115548     0.714111821812     0.021847149527     1.007825032230
         H           -2.837587884452    -0.645918178188     1.057706149527     1.007825032230
         H           -2.418263884452    -1.533960178188    -0.421650850473     1.007825032230
         H           -3.280916884452     0.032746821812    -0.520331850473     1.007825032230

  Basis Set: AUG-CC-PVTZ
    Blend: AUG-CC-PVTZ
  Basis Set: (AUG-CC-PVTZ AUX)
    Blend: AUG-CC-PVTZ-JKFIT
	 Reference Energy          =    -628.6336861185775433 [Eh]
	 Singles Energy            =      -0.0000000000000000 [Eh]
	 Same-Spin Energy          =      -0.2898804058465703 [Eh]
	 Opposite-Spin Energy      =      -0.9515382239563843 [Eh]
	 Correlation Energy        =      -1.2414186298029546 [Eh]
	 Total Energy              =    -629.8751047483805223 [Eh]

	 ================> DF-SCS-MP2 Energies <==================
	-----------------------------------------------------------
	 SCS Same-Spin Scale       =       0.3333333333333333 [-]
	 SCS Opposite-Spin Scale   =       1.2000000000000000 [-]
	 SCS Same-Spin Energy      =      -0.0966268019488568 [Eh]
	 SCS Opposite-Spin Energy  =      -1.1418458687476611 [Eh]
	 SCS Correlation Energy    =      -1.2384726706965179 [Eh]
	 SCS Total Energy          =    -629.8721587892740672 [Eh]
	-----------------------------------------------------------

  Dipole Moment: [D]
     X:     0.1561      Y:    -0.9524      Z:     0.1063     Total:     0.9709

*** Psi4 exiting successfully. Buy a developer a beer!
