                               Psi4 1.3.2 release

  ==> Input File <==

--------------------------------------------------------------------------
#psi4
#
memory 32 gb

molecule  {
0 1
  S        0.0867548    -0.9212394    -0.0133313
  O       -1.2094190     1.4662670    -0.0184260
  C        1.4537980     0.5412620     0.0354980
  C        2.8478080    -0.0717200    -0.0067890
  C       -1.2603440     0.2437000    -0.0198130
  C       -2.5578740    -0.5297180     0.0165720
  H        1.2827490     1.2035910    -0.8153790
  H        1.3032950     1.1268910     0.9448060
  H        3.0193930    -0.7314540     0.8473820
  H        3.0002020    -0.6488010    -0.9221550
  H        3.5981220     0.7231720     0.0226780
  H       -2.8743340    -0.6368580     1.0585370
  H       -2.4550100    -1.5249000    -0.4208200
  H       -3.3176630     0.0418070    -0.5195010
units angstrom
no_reorient  #important for SAPT in psi4, default
symmetry c1  #important for SAPT in psi4, default
}

set PROPERTIES_ORIGIN ["COM"]
properties('MP2/aug-cc-pvtz', properties = ['dipole'])
--------------------------------------------------------------------------

    Molecular point group: c1
  Charge       = 0
  Multiplicity = 1
  Basis Set: AUG-CC-PVTZ
    Blend: AUG-CC-PVTZ
  Basis Set: (AUG-CC-PVTZ AUX)
    Blend: AUG-CC-PVTZ-JKFIT

    Orbital Energies [Eh]
    ---------------------

    Doubly Occupied:

       1A    -91.974514     2A    -20.555103     3A    -11.363923
       4A    -11.279389     5A    -11.239831     6A    -11.231988
       7A     -8.974073     8A     -6.655071     9A     -6.653733
      10A     -6.653272    11A     -1.388161    12A     -1.068645
      13A     -1.031817    14A     -0.950220    15A     -0.835862
      16A     -0.730366    17A     -0.643726    18A     -0.632077
      19A     -0.627969    20A     -0.607301    21A     -0.575837
      22A     -0.557274    23A     -0.524269    24A     -0.520949
      25A     -0.501894    26A     -0.438262    27A     -0.408269
      28A     -0.376630

  @DF-RHF Final Energy:  -628.61644983341614

   => Energetics <=

    Nuclear Repulsion Energy =            289.9494837396678690
    One-Electron Energy =               -1439.1310195882113021
    Two-Electron Energy =                 520.5650860151273491
    Total Energy =                       -628.6164498334161408
  Basis Set: (AUG-CC-PVTZ AUX)
    Blend: AUG-CC-PVTZ-RI
    Molecular point group: c1

    Geometry (in Angstrom), charge = 0, multiplicity = 1:

       Center              X                  Y                   Z               Mass
    ------------   -----------------  -----------------  -----------------  -----------------
         S            0.155827277955    -0.880396456795    -0.011233268006    31.972071174400
         O           -1.140346522045     1.507109943205    -0.016327968006    15.994914619570
         C            1.522870477955     0.582104943205     0.037596031994    12.000000000000
         C            2.916880477955    -0.030877056795    -0.004690968006    12.000000000000
         C           -1.191271522045     0.284542943205    -0.017714968006    12.000000000000
         C           -2.488801522045    -0.488875056795     0.018670031994    12.000000000000
         H            1.351821477955     1.244433943205    -0.813280968006     1.007825032230
         H            1.372367477955     1.167733943205     0.946904031994     1.007825032230
         H            3.088465477955    -0.690611056795     0.849480031994     1.007825032230
         H            3.069274477955    -0.607958056795    -0.920056968006     1.007825032230
         H            3.667194477955     0.764014943205     0.024776031994     1.007825032230
         H           -2.805261522045    -0.596015056795     1.060635031994     1.007825032230
         H           -2.385937522045    -1.484057056795    -0.418721968006     1.007825032230
         H           -3.248590522045     0.082649943205    -0.517402968006     1.007825032230

  Basis Set: AUG-CC-PVTZ
    Blend: AUG-CC-PVTZ
  Basis Set: (AUG-CC-PVTZ AUX)
    Blend: AUG-CC-PVTZ-JKFIT
	 Reference Energy          =    -628.6164498334161408 [Eh]
	 Singles Energy            =      -0.0000000000000000 [Eh]
	 Same-Spin Energy          =      -0.2905642249942405 [Eh]
	 Opposite-Spin Energy      =      -0.9555204297382451 [Eh]
	 Correlation Energy        =      -1.2460846547324858 [Eh]
	 Total Energy              =    -629.8625344881486399 [Eh]

	 ================> DF-SCS-MP2 Energies <==================
	-----------------------------------------------------------
	 SCS Same-Spin Scale       =       0.3333333333333333 [-]
	 SCS Opposite-Spin Scale   =       1.2000000000000000 [-]
	 SCS Same-Spin Energy      =      -0.0968547416647468 [Eh]
	 SCS Opposite-Spin Energy  =      -1.1466245156858941 [Eh]
	 SCS Correlation Energy    =      -1.2434792573506410 [Eh]
	 SCS Total Energy          =    -629.8599290907667410 [Eh]
	-----------------------------------------------------------

  Dipole Moment: [D]
     X:     0.6668      Y:    -1.1891      Z:     0.1010     Total:     1.3670

*** Psi4 exiting successfully. Buy a developer a beer!
