                               Psi4 1.3.2 release

  ==> Input File <==

--------------------------------------------------------------------------
#psi4
#
memory 32 gb

molecule  {
0 1
  S        0.2011420    -0.7740460    -0.0125590
  O       -1.2094190     1.4662670    -0.0184260
  C        1.4537980     0.5412620     0.0354980
  C        2.8478080    -0.0717200    -0.0067890
  C       -1.2561822     0.3436133    -0.0196996
  C       -2.5578740    -0.5297180     0.0165720
  H        1.2827490     1.2035910    -0.8153790
  H        1.3032950     1.1268910     0.9448060
  H        3.0193930    -0.7314540     0.8473820
  H        3.0002020    -0.6488010    -0.9221550
  H        3.5981220     0.7231720     0.0226780
  H       -2.8743340    -0.6368580     1.0585370
  H       -2.4550100    -1.5249000    -0.4208200
  H       -3.3176630     0.0418070    -0.5195010
units angstrom
no_reorient  #important for SAPT in psi4, default
symmetry c1  #important for SAPT in psi4, default
}

set PROPERTIES_ORIGIN ["COM"]
properties('MP2/aug-cc-pvtz', properties = ['dipole'])
--------------------------------------------------------------------------

    Molecular point group: c1
  Charge       = 0
  Multiplicity = 1
  Basis Set: AUG-CC-PVTZ
    Blend: AUG-CC-PVTZ
  Basis Set: (AUG-CC-PVTZ AUX)
    Blend: AUG-CC-PVTZ-JKFIT

    Orbital Energies [Eh]
    ---------------------

    Doubly Occupied:

       1A    -91.956688     2A    -20.569851     3A    -11.359594
       4A    -11.258376     5A    -11.244121     6A    -11.227580
       7A     -8.958295     8A     -6.639370     9A     -6.638273
      10A     -6.637575    11A     -1.470684    12A     -1.078206
      13A     -1.015079    14A     -0.947504    15A     -0.827617
      16A     -0.739869    17A     -0.668738    18A     -0.652387
      19A     -0.637948    20A     -0.616708    21A     -0.572406
      22A     -0.561969    23A     -0.546872    24A     -0.524340
      25A     -0.510891    26A     -0.455415    27A     -0.390357
      28A     -0.363412

  @DF-RHF Final Energy:  -628.62484120304885

   => Energetics <=

    Nuclear Repulsion Energy =            294.4734907828101882
    One-Electron Energy =               -1448.0564123581480089
    Two-Electron Energy =                 524.9580803722890323
    Total Energy =                       -628.6248412030488453
  Basis Set: (AUG-CC-PVTZ AUX)
    Blend: AUG-CC-PVTZ-RI
    Molecular point group: c1

    Geometry (in Angstrom), charge = 0, multiplicity = 1:

       Center              X                  Y                   Z               Mass
    ------------   -----------------  -----------------  -----------------  -----------------
         S            0.234579064603    -0.789966115126    -0.010711404748    31.972071174400
         O           -1.175981935397     1.450346884874    -0.016578404748    15.994914619570
         C            1.487235064603     0.525341884874     0.037345595252    12.000000000000
         C            2.881245064603    -0.087640115126    -0.004941404748    12.000000000000
         C           -1.222745135397     0.327693184874    -0.017852004748    12.000000000000
         C           -2.524436935397    -0.545638115126     0.018419595252    12.000000000000
         H            1.316186064603     1.187670884874    -0.813531404748     1.007825032230
         H            1.336732064603     1.110970884874     0.946653595252     1.007825032230
         H            3.052830064603    -0.747374115126     0.849229595252     1.007825032230
         H            3.033639064603    -0.664721115126    -0.920307404748     1.007825032230
         H            3.631559064603     0.707251884874     0.024525595252     1.007825032230
         H           -2.840896935397    -0.652778115126     1.060384595252     1.007825032230
         H           -2.421572935397    -1.540820115126    -0.418972404748     1.007825032230
         H           -3.284225935397     0.025886884874    -0.517653404748     1.007825032230

  Basis Set: AUG-CC-PVTZ
    Blend: AUG-CC-PVTZ
  Basis Set: (AUG-CC-PVTZ AUX)
    Blend: AUG-CC-PVTZ-JKFIT
	 Reference Energy          =    -628.6248412030488453 [Eh]
	 Singles Energy            =      -0.0000000000000000 [Eh]
	 Same-Spin Energy          =      -0.2884020516758018 [Eh]
	 Opposite-Spin Energy      =      -0.9487537237789113 [Eh]
	 Correlation Energy        =      -1.2371557754547131 [Eh]
	 Total Energy              =    -629.8619969785036119 [Eh]

	 ================> DF-SCS-MP2 Energies <==================
	-----------------------------------------------------------
	 SCS Same-Spin Scale       =       0.3333333333333333 [-]
	 SCS Opposite-Spin Scale   =       1.2000000000000000 [-]
	 SCS Same-Spin Energy      =      -0.0961340172252673 [Eh]
	 SCS Opposite-Spin Energy  =      -1.1385044685346934 [Eh]
	 SCS Correlation Energy    =      -1.2346384857599606 [Eh]
	 SCS Total Energy          =    -629.8594796888088467 [Eh]
	-----------------------------------------------------------

  Dipole Moment: [D]
     X:     0.1342      Y:    -0.6033      Z:     0.0878     Total:     0.6243

*** Psi4 exiting successfully. Buy a developer a beer!
