                               Psi4 1.3.2 release

  ==> Input File <==

--------------------------------------------------------------------------
#psi4
#
memory 32 gb

molecule  {
0 1
  S        0.2011420    -0.7740460    -0.0125590
  O       -1.2094190     1.4662670    -0.0184260
  C        1.4537980     0.5412620     0.0354980
  C        2.8478080    -0.0717200    -0.0067890
  C       -1.2603440     0.2437000    -0.0198130
  C       -2.5578740    -0.5297180     0.0165720
  H        1.2827490     1.2035910    -0.8153790
  H        1.3032950     1.1268910     0.9448060
  H        3.0193930    -0.7314540     0.8473820
  H        3.0002020    -0.6488010    -0.9221550
  H        3.5981220     0.7231720     0.0226780
  H       -2.8743340    -0.6368580     1.0585370
  H       -2.4550100    -1.5249000    -0.4208200
  H       -3.3176630     0.0418070    -0.5195010
units angstrom
no_reorient  #important for SAPT in psi4, default
symmetry c1  #important for SAPT in psi4, default
}

set PROPERTIES_ORIGIN ["COM"]
properties('MP2/aug-cc-pvtz', properties = ['dipole'])
--------------------------------------------------------------------------

    Molecular point group: c1
  Charge       = 0
  Multiplicity = 1
  Basis Set: AUG-CC-PVTZ
    Blend: AUG-CC-PVTZ
  Basis Set: (AUG-CC-PVTZ AUX)
    Blend: AUG-CC-PVTZ-JKFIT

    Orbital Energies [Eh]
    ---------------------

    Doubly Occupied:

       1A    -91.968968     2A    -20.553742     3A    -11.364430
       4A    -11.262936     5A    -11.245588     6A    -11.231620
       7A     -8.970692     8A     -6.651851     9A     -6.650729
      10A     -6.650095    11A     -1.389621    12A     -1.086888
      13A     -1.030749    14A     -0.957849    15A     -0.835578
      16A     -0.732200    17A     -0.655133    18A     -0.636283
      19A     -0.630210    20A     -0.608968    21A     -0.577308
      22A     -0.554998    23A     -0.526710    24A     -0.519962
      25A     -0.501671    26A     -0.462349    27A     -0.409174
      28A     -0.370020

  @DF-RHF Final Energy:  -628.63249065645482

   => Energetics <=

    Nuclear Repulsion Energy =            293.9932835095451651
    One-Electron Energy =               -1447.1789067674633316
    Two-Electron Energy =                 524.5531326014634033
    Total Energy =                       -628.6324906564548201
  Basis Set: (AUG-CC-PVTZ AUX)
    Blend: AUG-CC-PVTZ-RI
    Molecular point group: c1

    Geometry (in Angstrom), charge = 0, multiplicity = 1:

       Center              X                  Y                   Z               Mass
    ------------   -----------------  -----------------  -----------------  -----------------
         S            0.235059135724    -0.778440936131    -0.010698323854    31.972071174400
         O           -1.175501864276     1.461872063869    -0.016565323854    15.994914619570
         C            1.487715135724     0.536867063869     0.037358676146    12.000000000000
         C            2.881725135724    -0.076114936131    -0.004928323854    12.000000000000
         C           -1.226426864276     0.239305063869    -0.017952323854    12.000000000000
         C           -2.523956864276    -0.534112936131     0.018432676146    12.000000000000
         H            1.316666135724     1.199196063869    -0.813518323854     1.007825032230
         H            1.337212135724     1.122496063869     0.946666676146     1.007825032230
         H            3.053310135724    -0.735848936131     0.849242676146     1.007825032230
         H            3.034119135724    -0.653195936131    -0.920294323854     1.007825032230
         H            3.632039135724     0.718777063869     0.024538676146     1.007825032230
         H           -2.840416864276    -0.641252936131     1.060397676146     1.007825032230
         H           -2.421092864276    -1.529294936131    -0.418959323854     1.007825032230
         H           -3.283745864276     0.037412063869    -0.517640323854     1.007825032230

  Basis Set: AUG-CC-PVTZ
    Blend: AUG-CC-PVTZ
  Basis Set: (AUG-CC-PVTZ AUX)
    Blend: AUG-CC-PVTZ-JKFIT
	 Reference Energy          =    -628.6324906564548201 [Eh]
	 Singles Energy            =      -0.0000000000000000 [Eh]
	 Same-Spin Energy          =      -0.2908265446760111 [Eh]
	 Opposite-Spin Energy      =      -0.9533875781874841 [Eh]
	 Correlation Energy        =      -1.2442141228634953 [Eh]
	 Total Energy              =    -629.8767047793182883 [Eh]

	 ================> DF-SCS-MP2 Energies <==================
	-----------------------------------------------------------
	 SCS Same-Spin Scale       =       0.3333333333333333 [-]
	 SCS Opposite-Spin Scale   =       1.2000000000000000 [-]
	 SCS Same-Spin Energy      =      -0.0969421815586704 [Eh]
	 SCS Opposite-Spin Energy  =      -1.1440650938249808 [Eh]
	 SCS Correlation Energy    =      -1.2410072753836512 [Eh]
	 SCS Total Energy          =    -629.8734979318384148 [Eh]
	-----------------------------------------------------------

  Dipole Moment: [D]
     X:     0.5093      Y:    -1.2216      Z:     0.1001     Total:     1.3273

*** Psi4 exiting successfully. Buy a developer a beer!
