                               Psi4 1.3.2 release

  ==> Input File <==

--------------------------------------------------------------------------
#psi4
#
memory 32 gb

molecule  {
0 1
  S        0.2011420    -0.7740460    -0.0125590
  O       -1.2094190     1.4662670    -0.0184260
  C        1.3094008     0.6650408     0.0352255
  C        2.8478080    -0.0717200    -0.0067890
  C       -1.2603440     0.2437000    -0.0198130
  C       -2.5578740    -0.5297180     0.0165720
  H        1.2827490     1.2035910    -0.8153790
  H        1.3032950     1.1268910     0.9448060
  H        3.0193930    -0.7314540     0.8473820
  H        3.0002020    -0.6488010    -0.9221550
  H        3.5981220     0.7231720     0.0226780
  H       -2.8743340    -0.6368580     1.0585370
  H       -2.4550100    -1.5249000    -0.4208200
  H       -3.3176630     0.0418070    -0.5195010
units angstrom
no_reorient  #important for SAPT in psi4, default
symmetry c1  #important for SAPT in psi4, default
}

set PROPERTIES_ORIGIN ["COM"]
properties('MP2/aug-cc-pvtz', properties = ['dipole'])
--------------------------------------------------------------------------

    Molecular point group: c1
  Charge       = 0
  Multiplicity = 1
  Basis Set: AUG-CC-PVTZ
    Blend: AUG-CC-PVTZ
  Basis Set: (AUG-CC-PVTZ AUX)
    Blend: AUG-CC-PVTZ-JKFIT

    Orbital Energies [Eh]
    ---------------------

    Doubly Occupied:

       1A    -91.972292     2A    -20.553687     3A    -11.362307
       4A    -11.258471     5A    -11.244008     6A    -11.235352
       7A     -8.973588     8A     -6.654744     9A     -6.653437
      10A     -6.652875    11A     -1.390132    12A     -1.078646
      13A     -1.023330    14A     -0.945056    15A     -0.851453
      16A     -0.733105    17A     -0.656866    18A     -0.649831
      19A     -0.630402    20A     -0.608832    21A     -0.567003
      22A     -0.550733    23A     -0.538873    24A     -0.510268
      25A     -0.481663    26A     -0.458748    27A     -0.408225
      28A     -0.376125

  @DF-RHF Final Energy:  -628.60321335585343

   => Energetics <=

    Nuclear Repulsion Energy =            293.8976652424513532
    One-Electron Energy =               -1446.9616578422510429
    Two-Electron Energy =                 524.4607792439463765
    Total Energy =                       -628.6032133558534269
  Basis Set: (AUG-CC-PVTZ AUX)
    Blend: AUG-CC-PVTZ-RI
    Molecular point group: c1

    Geometry (in Angstrom), charge = 0, multiplicity = 1:

       Center              X                  Y                   Z               Mass
    ------------   -----------------  -----------------  -----------------  -----------------
         S            0.251715612653    -0.792719043508    -0.010666890488    31.972071174400
         O           -1.158845387347     1.447593956492    -0.016533890488    15.994914619570
         C            1.359974412653     0.646367756492     0.037117609512    12.000000000000
         C            2.898381612653    -0.090393043508    -0.004896890488    12.000000000000
         C           -1.209770387347     0.225026956492    -0.017920890488    12.000000000000
         C           -2.507300387347    -0.548391043508     0.018464109512    12.000000000000
         H            1.333322612653     1.184917956492    -0.813486890488     1.007825032230
         H            1.353868612653     1.108217956492     0.946698109512     1.007825032230
         H            3.069966612653    -0.750127043508     0.849274109512     1.007825032230
         H            3.050775612653    -0.667474043508    -0.920262890488     1.007825032230
         H            3.648695612653     0.704498956492     0.024570109512     1.007825032230
         H           -2.823760387347    -0.655531043508     1.060429109512     1.007825032230
         H           -2.404436387347    -1.543573043508    -0.418927890488     1.007825032230
         H           -3.267089387347     0.023133956492    -0.517608890488     1.007825032230

  Basis Set: AUG-CC-PVTZ
    Blend: AUG-CC-PVTZ
  Basis Set: (AUG-CC-PVTZ AUX)
    Blend: AUG-CC-PVTZ-JKFIT
	 Reference Energy          =    -628.6032133558534269 [Eh]
	 Singles Energy            =      -0.0000000000000000 [Eh]
	 Same-Spin Energy          =      -0.2911735963771993 [Eh]
	 Opposite-Spin Energy      =      -0.9554458674129395 [Eh]
	 Correlation Energy        =      -1.2466194637901387 [Eh]
	 Total Energy              =    -629.8498328196435523 [Eh]

	 ================> DF-SCS-MP2 Energies <==================
	-----------------------------------------------------------
	 SCS Same-Spin Scale       =       0.3333333333333333 [-]
	 SCS Opposite-Spin Scale   =       1.2000000000000000 [-]
	 SCS Same-Spin Energy      =      -0.0970578654590664 [Eh]
	 SCS Opposite-Spin Energy  =      -1.1465350408955273 [Eh]
	 SCS Correlation Energy    =      -1.2435929063545936 [Eh]
	 SCS Total Energy          =    -629.8468062622080197 [Eh]
	-----------------------------------------------------------

  Dipole Moment: [D]
     X:     0.3937      Y:    -1.2656      Z:     0.1019     Total:     1.3293

*** Psi4 exiting successfully. Buy a developer a beer!
