                               Psi4 1.3.2 release

  ==> Input File <==

--------------------------------------------------------------------------
#psi4
#
memory 32 gb

molecule  {
0 1
  S        0.2011420    -0.7740460    -0.0125590
  O       -1.2094190     1.4662670    -0.0184260
  C        1.4537980     0.5412620     0.0354980
  C        2.8478080    -0.0717200    -0.0067890
  C       -1.4244679     0.3579922    -0.0206276
  C       -2.5578740    -0.5297180     0.0165720
  H        1.2827490     1.2035910    -0.8153790
  H        1.3032950     1.1268910     0.9448060
  H        3.0193930    -0.7314540     0.8473820
  H        3.0002020    -0.6488010    -0.9221550
  H        3.5981220     0.7231720     0.0226780
  H       -2.8743340    -0.6368580     1.0585370
  H       -2.4550100    -1.5249000    -0.4208200
  H       -3.3176630     0.0418070    -0.5195010
units angstrom
no_reorient  #important for SAPT in psi4, default
symmetry c1  #important for SAPT in psi4, default
}

set PROPERTIES_ORIGIN ["COM"]
properties('MP2/aug-cc-pvtz', properties = ['dipole'])
--------------------------------------------------------------------------

    Molecular point group: c1
  Charge       = 0
  Multiplicity = 1
  Basis Set: AUG-CC-PVTZ
    Blend: AUG-CC-PVTZ
  Basis Set: (AUG-CC-PVTZ AUX)
    Blend: AUG-CC-PVTZ-JKFIT

    Orbital Energies [Eh]
    ---------------------

    Doubly Occupied:

       1A    -91.934085     2A    -20.587382     3A    -11.376954
       4A    -11.259728     5A    -11.248156     6A    -11.219481
       7A     -8.934966     8A     -6.615944     9A     -6.615081
      10A     -6.614364    11A     -1.480751    12A     -1.071189
      13A     -1.051103    14A     -0.927705    15A     -0.813687
      16A     -0.752007    17A     -0.682248    18A     -0.668327
      19A     -0.651599    20A     -0.617095    21A     -0.582737
      22A     -0.562869    23A     -0.555458    24A     -0.519009
      25A     -0.502552    26A     -0.444620    27A     -0.369139
      28A     -0.342939

  @DF-RHF Final Energy:  -628.60909629751575

   => Energetics <=

    Nuclear Repulsion Energy =            292.9039874539914763
    One-Electron Energy =               -1445.0238263403061865
    Two-Electron Energy =                 523.5107425887989621
    Total Energy =                       -628.6090962975157481
  Basis Set: (AUG-CC-PVTZ AUX)
    Blend: AUG-CC-PVTZ-RI
    Molecular point group: c1

    Geometry (in Angstrom), charge = 0, multiplicity = 1:

       Center              X                  Y                   Z               Mass
    ------------   -----------------  -----------------  -----------------  -----------------
         S            0.253991123005    -0.791624747122    -0.010604358278    31.972071174400
         O           -1.156569876995     1.448688252878    -0.016471358278    15.994914619570
         C            1.506647123005     0.523683252878     0.037452641722    12.000000000000
         C            2.900657123005    -0.089298747122    -0.004834358278    12.000000000000
         C           -1.371618776995     0.340413452878    -0.018672958278    12.000000000000
         C           -2.505024876995    -0.547296747122     0.018526641722    12.000000000000
         H            1.335598123005     1.186012252878    -0.813424358278     1.007825032230
         H            1.356144123005     1.109312252878     0.946760641722     1.007825032230
         H            3.072242123005    -0.749032747122     0.849336641722     1.007825032230
         H            3.053051123005    -0.666379747122    -0.920200358278     1.007825032230
         H            3.650971123005     0.705593252878     0.024632641722     1.007825032230
         H           -2.821484876995    -0.654436747122     1.060491641722     1.007825032230
         H           -2.402160876995    -1.542478747122    -0.418865358278     1.007825032230
         H           -3.264813876995     0.024228252878    -0.517546358278     1.007825032230

  Basis Set: AUG-CC-PVTZ
    Blend: AUG-CC-PVTZ
  Basis Set: (AUG-CC-PVTZ AUX)
    Blend: AUG-CC-PVTZ-JKFIT
	 Reference Energy          =    -628.6090962975157481 [Eh]
	 Singles Energy            =      -0.0000000000000000 [Eh]
	 Same-Spin Energy          =      -0.2898960912814706 [Eh]
	 Opposite-Spin Energy      =      -0.9508906965291730 [Eh]
	 Correlation Energy        =      -1.2407867878106436 [Eh]
	 Total Energy              =    -629.8498830853263826 [Eh]

	 ================> DF-SCS-MP2 Energies <==================
	-----------------------------------------------------------
	 SCS Same-Spin Scale       =       0.3333333333333333 [-]
	 SCS Opposite-Spin Scale   =       1.2000000000000000 [-]
	 SCS Same-Spin Energy      =      -0.0966320304271569 [Eh]
	 SCS Opposite-Spin Energy  =      -1.1410688358350076 [Eh]
	 SCS Correlation Energy    =      -1.2377008662621645 [Eh]
	 SCS Total Energy          =    -629.8467971637778646 [Eh]
	-----------------------------------------------------------

  Dipole Moment: [D]
     X:    -1.3670      Y:    -0.2387      Z:     0.1127     Total:     1.3922

*** Psi4 exiting successfully. Buy a developer a beer!
