                               Psi4 1.4a3.dev225

  ==> Input File <==

--------------------------------------------------------------------------
#psi4
#
memory 32 gb

molecule  {
0 1
  S        0.2011420    -0.7740460    -0.0125590
  O       -1.2094190     1.4662670    -0.0184260
  C        1.4537980     0.5412620     0.0354980
  C        2.8478080    -0.0717200    -0.0067890
  C       -1.2603440     0.2437000    -0.0198130
  C       -2.5406994    -0.5194807     0.0160904
  H        1.2827490     1.2035910    -0.8153790
  H        1.3032950     1.1268910     0.9448060
  H        3.0193930    -0.7314540     0.8473820
  H        3.0002020    -0.6488010    -0.9221550
  H        3.5981220     0.7231720     0.0226780
  H       -2.8743340    -0.6368580     1.0585370
  H       -2.4550100    -1.5249000    -0.4208200
  H       -3.3176630     0.0418070    -0.5195010
units angstrom
no_reorient  #important for SAPT in psi4, default
symmetry c1  #important for SAPT in psi4, default
}

set PROPERTIES_ORIGIN ["COM"]
properties('MP2/aug-cc-pvtz', properties = ['dipole'])
--------------------------------------------------------------------------

    Molecular point group: c1
  Charge       = 0
  Multiplicity = 1
  Basis Set: AUG-CC-PVTZ
    Blend: AUG-CC-PVTZ
  Basis Set: (AUG-CC-PVTZ AUX)
    Blend: AUG-CC-PVTZ-JKFIT

    Orbital Energies [Eh]
    ---------------------

    Doubly Occupied:

       1A    -91.968826     2A    -20.553343     3A    -11.363626
       4A    -11.262825     5A    -11.246208     6A    -11.231548
       7A     -8.970565     8A     -6.651727     9A     -6.650601
      10A     -6.649968    11A     -1.389838    12A     -1.087231
      13A     -1.033255    14A     -0.957699    15A     -0.835343
      16A     -0.733460    17A     -0.655596    18A     -0.636269
      19A     -0.632965    20A     -0.608185    21A     -0.575482
      22A     -0.554064    23A     -0.525543    24A     -0.518914
      25A     -0.500474    26A     -0.462688    27A     -0.410483
      28A     -0.369943

  @DF-RHF Final Energy:  -628.63193844658167

   => Energetics <=

    Nuclear Repulsion Energy =            294.3395738694071611
    One-Electron Energy =               -1447.8696809133239185
    Two-Electron Energy =                 524.8981685973351432
    Total Energy =                       -628.6319384465816711
  Basis Set: (AUG-CC-PVTZ AUX)
    Blend: AUG-CC-PVTZ-RI
    Molecular point group: c1

    Geometry (in Angstrom), charge = 0, multiplicity = 1:

       Center              X                  Y                   Z               Mass
    ------------   -----------------  -----------------  -----------------  -----------------
         S            0.233078014701    -0.779621827113    -0.010642770427    31.972071174400
         O           -1.177482985299     1.460691172887    -0.016509770427    15.994914619570
         C            1.485734014701     0.535686172887     0.037414229573    12.000000000000
         C            2.879744014701    -0.077295827113    -0.004872770427    12.000000000000
         C           -1.228407985299     0.238124172887    -0.017896770427    12.000000000000
         C           -2.508763385299    -0.525056527113     0.018006629573    12.000000000000
         H            1.314685014701     1.198015172887    -0.813462770427     1.007825032230
         H            1.335231014701     1.121315172887     0.946722229573     1.007825032230
         H            3.051329014701    -0.737029827113     0.849298229573     1.007825032230
         H            3.032138014701    -0.654376827113    -0.920238770427     1.007825032230
         H            3.630058014701     0.717596172887     0.024594229573     1.007825032230
         H           -2.842397985299    -0.642433827113     1.060453229573     1.007825032230
         H           -2.423073985299    -1.530475827113    -0.418903770427     1.007825032230
         H           -3.285726985299     0.036231172887    -0.517584770427     1.007825032230

  Basis Set: AUG-CC-PVTZ
    Blend: AUG-CC-PVTZ
  Basis Set: (AUG-CC-PVTZ AUX)
    Blend: AUG-CC-PVTZ-JKFIT
	 Reference Energy          =    -628.6319384465816711 [Eh]
	 Singles Energy            =      -0.0000000000000000 [Eh]
	 Same-Spin Energy          =      -0.2909804154065784 [Eh]
	 Opposite-Spin Energy      =      -0.9535373826662596 [Eh]
	 Correlation Energy        =      -1.2445177980728381 [Eh]
	 Total Energy              =    -629.8764562446544915 [Eh]

	 ================> DF-SCS-MP2 Energies <==================
	-----------------------------------------------------------
	 SCS Same-Spin Scale       =       0.3333333333333333 [-]
	 SCS Opposite-Spin Scale   =       1.2000000000000000 [-]
	 SCS Same-Spin Energy      =      -0.0969934718021928 [Eh]
	 SCS Opposite-Spin Energy  =      -1.1442448591995116 [Eh]
	 SCS Correlation Energy    =      -1.2412383310017043 [Eh]
	 SCS Total Energy          =    -629.8731767775833532 [Eh]
	-----------------------------------------------------------

  Dipole Moment: [D]
     X:     0.4780      Y:    -1.2373      Z:     0.1034     Total:     1.3304

*** Psi4 exiting successfully. Buy a developer a beer!
