                               Psi4 1.3.2 release

  ==> Input File <==

--------------------------------------------------------------------------
#psi4
#
memory 32 gb

molecule  {
0 1
  S        0.2011420    -0.7740460    -0.0125590
  O       -1.2947880     1.4668368    -0.0159106
  C        1.4537980     0.5412620     0.0354980
  C        2.8478080    -0.0717200    -0.0067890
  C       -1.2603440     0.2437000    -0.0198130
  C       -2.5578740    -0.5297180     0.0165720
  H        1.2827490     1.2035910    -0.8153790
  H        1.3032950     1.1268910     0.9448060
  H        3.0193930    -0.7314540     0.8473820
  H        3.0002020    -0.6488010    -0.9221550
  H        3.5981220     0.7231720     0.0226780
  H       -2.8743340    -0.6368580     1.0585370
  H       -2.4550100    -1.5249000    -0.4208200
  H       -3.3176630     0.0418070    -0.5195010
units angstrom
no_reorient  #important for SAPT in psi4, default
symmetry c1  #important for SAPT in psi4, default
}

set PROPERTIES_ORIGIN ["COM"]
properties('MP2/aug-cc-pvtz', properties = ['dipole'])
--------------------------------------------------------------------------

    Molecular point group: c1
  Charge       = 0
  Multiplicity = 1
  Basis Set: AUG-CC-PVTZ
    Blend: AUG-CC-PVTZ
  Basis Set: (AUG-CC-PVTZ AUX)
    Blend: AUG-CC-PVTZ-JKFIT

    Orbital Energies [Eh]
    ---------------------

    Doubly Occupied:

       1A    -91.973147     2A    -20.553045     3A    -11.363089
       4A    -11.265516     5A    -11.241098     6A    -11.233556
       7A     -8.974665     8A     -6.655837     9A     -6.654650
      10A     -6.654030    11A     -1.388702    12A     -1.089632
      13A     -1.028116    14A     -0.958918    15A     -0.837125
      16A     -0.732597    17A     -0.655256    18A     -0.637968
      19A     -0.627242    20A     -0.607422    21A     -0.577022
      22A     -0.554111    23A     -0.526538    24A     -0.521641
      25A     -0.501640    26A     -0.464100    27A     -0.410114
      28A     -0.373015

  @DF-RHF Final Energy:  -628.63135407235336

   => Energetics <=

    Nuclear Repulsion Energy =            293.3440804733413074
    One-Electron Energy =               -1445.8312823145240600
    Two-Electron Energy =                 523.8558477688293351
    Total Energy =                       -628.6313540723533606
  Basis Set: (AUG-CC-PVTZ AUX)
    Blend: AUG-CC-PVTZ-RI
    Molecular point group: c1

    Geometry (in Angstrom), charge = 0, multiplicity = 1:

       Center              X                  Y                   Z               Mass
    ------------   -----------------  -----------------  -----------------  -----------------
         S            0.248184919628    -0.778528544884    -0.011085075448    31.972071174400
         O           -1.247745080372     1.462354255116    -0.014436675448    15.994914619570
         C            1.500840919628     0.536779455116     0.036971924552    12.000000000000
         C            2.894850919628    -0.076202544884    -0.005315075448    12.000000000000
         C           -1.213301080372     0.239217455116    -0.018339075448    12.000000000000
         C           -2.510831080372    -0.534200544884     0.018045924552    12.000000000000
         H            1.329791919628     1.199108455116    -0.813905075448     1.007825032230
         H            1.350337919628     1.122408455116     0.946279924552     1.007825032230
         H            3.066435919628    -0.735936544884     0.848855924552     1.007825032230
         H            3.047244919628    -0.653283544884    -0.920681075448     1.007825032230
         H            3.645164919628     0.718689455116     0.024151924552     1.007825032230
         H           -2.827291080372    -0.641340544884     1.060010924552     1.007825032230
         H           -2.407967080372    -1.529382544884    -0.419346075448     1.007825032230
         H           -3.270620080372     0.037324455116    -0.518027075448     1.007825032230

  Basis Set: AUG-CC-PVTZ
    Blend: AUG-CC-PVTZ
  Basis Set: (AUG-CC-PVTZ AUX)
    Blend: AUG-CC-PVTZ-JKFIT
	 Reference Energy          =    -628.6313540723533606 [Eh]
	 Singles Energy            =      -0.0000000000000000 [Eh]
	 Same-Spin Energy          =      -0.2907008243281272 [Eh]
	 Opposite-Spin Energy      =      -0.9534468930213931 [Eh]
	 Correlation Energy        =      -1.2441477173495203 [Eh]
	 Total Energy              =    -629.8755017897028665 [Eh]

	 ================> DF-SCS-MP2 Energies <==================
	-----------------------------------------------------------
	 SCS Same-Spin Scale       =       0.3333333333333333 [-]
	 SCS Opposite-Spin Scale   =       1.2000000000000000 [-]
	 SCS Same-Spin Energy      =      -0.0969002747760424 [Eh]
	 SCS Opposite-Spin Energy  =      -1.1441362716256716 [Eh]
	 SCS Correlation Energy    =      -1.2410365464017139 [Eh]
	 SCS Total Energy          =    -629.8723906187550483 [Eh]
	-----------------------------------------------------------

  Dipole Moment: [D]
     X:     0.7860      Y:    -1.2485      Z:     0.0965     Total:     1.4785

*** Psi4 exiting successfully. Buy a developer a beer!
