                               Psi4 1.4a3.dev225

  ==> Input File <==

--------------------------------------------------------------------------
#psi4
#
memory 32 gb

molecule  {
0 1
  S        0.2011420    -0.7740460    -0.0125590
  O       -1.2094190     1.4662670    -0.0184260
  C        1.4537980     0.5412620     0.0354980
  C        2.8478080    -0.0717200    -0.0067890
  C       -1.2624249     0.1937434    -0.0198697
  C       -2.5578740    -0.5297180     0.0165720
  H        1.2827490     1.2035910    -0.8153790
  H        1.3032950     1.1268910     0.9448060
  H        3.0193930    -0.7314540     0.8473820
  H        3.0002020    -0.6488010    -0.9221550
  H        3.5981220     0.7231720     0.0226780
  H       -2.8743340    -0.6368580     1.0585370
  H       -2.4550100    -1.5249000    -0.4208200
  H       -3.3176630     0.0418070    -0.5195010
units angstrom
no_reorient  #important for SAPT in psi4, default
symmetry c1  #important for SAPT in psi4, default
}

set PROPERTIES_ORIGIN ["COM"]
properties('MP2/aug-cc-pvtz', properties = ['dipole'])
--------------------------------------------------------------------------

    Molecular point group: c1
  Charge       = 0
  Multiplicity = 1
  Basis Set: AUG-CC-PVTZ
    Blend: AUG-CC-PVTZ
  Basis Set: (AUG-CC-PVTZ AUX)
    Blend: AUG-CC-PVTZ-JKFIT

    Orbital Energies [Eh]
    ---------------------

    Doubly Occupied:

       1A    -91.974422     2A    -20.545983     3A    -11.366518
       4A    -11.265179     5A    -11.246148     6A    -11.233502
       7A     -8.976294     8A     -6.657500     9A     -6.656350
      10A     -6.655759    11A     -1.354434    12A     -1.091250
      13A     -1.038186    14A     -0.963308    15A     -0.839457
      16A     -0.731477    17A     -0.651550    18A     -0.637470
      19A     -0.620538    20A     -0.608685    21A     -0.578825
      22A     -0.550957    23A     -0.524511    24A     -0.517998
      25A     -0.488479    26A     -0.465172    27A     -0.413903
      28A     -0.371928

  @DF-RHF Final Energy:  -628.62381337961949

   => Energetics <=

    Nuclear Repulsion Energy =            293.8508834510252541
    One-Electron Energy =               -1446.8978254126604952
    Two-Electron Energy =                 524.4231285820156927
    Total Energy =                       -628.6238133796194916
  Basis Set: (AUG-CC-PVTZ AUX)
    Blend: AUG-CC-PVTZ-RI
    Molecular point group: c1

    Geometry (in Angstrom), charge = 0, multiplicity = 1:

       Center              X                  Y                   Z               Mass
    ------------   -----------------  -----------------  -----------------  -----------------
         S            0.235299171285    -0.772678352401    -0.010691783407    31.972071174400
         O           -1.175261828715     1.467634647599    -0.016558783407    15.994914619570
         C            1.487955171285     0.542629647599     0.037365216593    12.000000000000
         C            2.881965171285    -0.070352352401    -0.004921783407    12.000000000000
         C           -1.228267728715     0.195111047599    -0.018002483407    12.000000000000
         C           -2.523716828715    -0.528350352401     0.018439216593    12.000000000000
         H            1.316906171285     1.204958647599    -0.813511783407     1.007825032230
         H            1.337452171285     1.128258647599     0.946673216593     1.007825032230
         H            3.053550171285    -0.730086352401     0.849249216593     1.007825032230
         H            3.034359171285    -0.647433352401    -0.920287783407     1.007825032230
         H            3.632279171285     0.724539647599     0.024545216593     1.007825032230
         H           -2.840176828715    -0.635490352401     1.060404216593     1.007825032230
         H           -2.420852828715    -1.523532352401    -0.418952783407     1.007825032230
         H           -3.283505828715     0.043174647599    -0.517633783407     1.007825032230

  Basis Set: AUG-CC-PVTZ
    Blend: AUG-CC-PVTZ
  Basis Set: (AUG-CC-PVTZ AUX)
    Blend: AUG-CC-PVTZ-JKFIT
	 Reference Energy          =    -628.6238133796194916 [Eh]
	 Singles Energy            =      -0.0000000000000000 [Eh]
	 Same-Spin Energy          =      -0.2922842037367964 [Eh]
	 Opposite-Spin Energy      =      -0.9560760568923800 [Eh]
	 Correlation Energy        =      -1.2483602606291764 [Eh]
	 Total Energy              =    -629.8721736402486613 [Eh]

	 ================> DF-SCS-MP2 Energies <==================
	-----------------------------------------------------------
	 SCS Same-Spin Scale       =       0.3333333333333333 [-]
	 SCS Opposite-Spin Scale   =       1.2000000000000000 [-]
	 SCS Same-Spin Energy      =      -0.0974280679122655 [Eh]
	 SCS Opposite-Spin Energy  =      -1.1472912682708558 [Eh]
	 SCS Correlation Energy    =      -1.2447193361831212 [Eh]
	 SCS Total Energy          =    -629.8685327158026439 [Eh]
	-----------------------------------------------------------

  Dipole Moment: [D]
     X:     0.6818      Y:    -1.4751      Z:     0.1064     Total:     1.6285

*** Psi4 exiting successfully. Buy a developer a beer!
