                               Psi4 1.3.2 release

  ==> Input File <==

--------------------------------------------------------------------------
#psi4
#
memory 32 gb

molecule  {
0 1
  S        0.2011420    -0.7740460    -0.0125590
  O       -1.2094190     1.4662670    -0.0184260
  C        1.4537980     0.5412620     0.0354980
  C        2.8478080    -0.0717200    -0.0067890
  C       -1.2686676     0.0438734    -0.0200397
  C       -2.5578740    -0.5297180     0.0165720
  H        1.2827490     1.2035910    -0.8153790
  H        1.3032950     1.1268910     0.9448060
  H        3.0193930    -0.7314540     0.8473820
  H        3.0002020    -0.6488010    -0.9221550
  H        3.5981220     0.7231720     0.0226780
  H       -2.8743340    -0.6368580     1.0585370
  H       -2.4550100    -1.5249000    -0.4208200
  H       -3.3176630     0.0418070    -0.5195010
units angstrom
no_reorient  #important for SAPT in psi4, default
symmetry c1  #important for SAPT in psi4, default
}

set PROPERTIES_ORIGIN ["COM"]
properties('MP2/aug-cc-pvtz', properties = ['dipole'])
--------------------------------------------------------------------------

    Molecular point group: c1
  Charge       = 0
  Multiplicity = 1
  Basis Set: AUG-CC-PVTZ
    Blend: AUG-CC-PVTZ
  Basis Set: (AUG-CC-PVTZ AUX)
    Blend: AUG-CC-PVTZ-JKFIT

    Orbital Energies [Eh]
    ---------------------

    Doubly Occupied:

       1A    -91.989547     2A    -20.521468     3A    -11.369966
       4A    -11.271778     5A    -11.247338     6A    -11.238806
       7A     -8.992030     8A     -6.673391     9A     -6.672086
      10A     -6.671695    11A     -1.270413    12A     -1.102838
      13A     -1.057808    14A     -0.980581    15A     -0.850565
      16A     -0.734170    17A     -0.648024    18A     -0.642173
      19A     -0.616308    20A     -0.611243    21A     -0.574144
      22A     -0.539310    23A     -0.526510    24A     -0.514499
      25A     -0.460367    26A     -0.454813    27A     -0.409473
      28A     -0.370350

  @DF-RHF Final Energy:  -628.56790523520112

   => Energetics <=

    Nuclear Repulsion Energy =            293.6882161982974253
    One-Electron Energy =               -1446.4888569660706708
    Two-Electron Energy =                 524.2327355325721783
    Total Energy =                       -628.5679052352011240
  Basis Set: (AUG-CC-PVTZ AUX)
    Blend: AUG-CC-PVTZ-RI
    Molecular point group: c1

    Geometry (in Angstrom), charge = 0, multiplicity = 1:

       Center              X                  Y                   Z               Mass
    ------------   -----------------  -----------------  -----------------  -----------------
         S            0.236019277966    -0.755390578142    -0.010672173601    31.972071174400
         O           -1.174541722034     1.484922421858    -0.016539173601    15.994914619570
         C            1.488675277966     0.559917421858     0.037384826399    12.000000000000
         C            2.882685277966    -0.053064578142    -0.004902173601    12.000000000000
         C           -1.233790322034     0.062528821858    -0.018152873601    12.000000000000
         C           -2.522996722034    -0.511062578142     0.018458826399    12.000000000000
         H            1.317626277966     1.222246421858    -0.813492173601     1.007825032230
         H            1.338172277966     1.145546421858     0.946692826399     1.007825032230
         H            3.054270277966    -0.712798578142     0.849268826399     1.007825032230
         H            3.035079277966    -0.630145578142    -0.920268173601     1.007825032230
         H            3.632999277966     0.741827421858     0.024564826399     1.007825032230
         H           -2.839456722034    -0.618202578142     1.060423826399     1.007825032230
         H           -2.420132722034    -1.506244578142    -0.418933173601     1.007825032230
         H           -3.282785722034     0.060462421858    -0.517614173601     1.007825032230

  Basis Set: AUG-CC-PVTZ
    Blend: AUG-CC-PVTZ
  Basis Set: (AUG-CC-PVTZ AUX)
    Blend: AUG-CC-PVTZ-JKFIT
	 Reference Energy          =    -628.5679052352011240 [Eh]
	 Singles Energy            =      -0.0000000000000000 [Eh]
	 Same-Spin Energy          =      -0.2971580622758096 [Eh]
	 Opposite-Spin Energy      =      -0.9646992422343142 [Eh]
	 Correlation Energy        =      -1.2618573045101238 [Eh]
	 Total Energy              =    -629.8297625397112824 [Eh]

	 ================> DF-SCS-MP2 Energies <==================
	-----------------------------------------------------------
	 SCS Same-Spin Scale       =       0.3333333333333333 [-]
	 SCS Opposite-Spin Scale   =       1.2000000000000000 [-]
	 SCS Same-Spin Energy      =      -0.0990526874252699 [Eh]
	 SCS Opposite-Spin Energy  =      -1.1576390906811771 [Eh]
	 SCS Correlation Energy    =      -1.2566917781064471 [Eh]
	 SCS Total Energy          =    -629.8245970133075389 [Eh]
	-----------------------------------------------------------

  Dipole Moment: [D]
     X:     1.1344      Y:    -2.0549      Z:     0.1255     Total:     2.3506

*** Psi4 exiting successfully. Buy a developer a beer!
