                               Psi4 1.3.2 release

  ==> Input File <==

--------------------------------------------------------------------------
#psi4
#
memory 32 gb

molecule  {
0 1
  S        0.1647337    -0.8244317    -0.0128080
  O       -1.2094190     1.4662670    -0.0184260
  C        1.4537980     0.5412620     0.0354980
  C        2.8478080    -0.0717200    -0.0067890
  C       -1.2603440     0.2437000    -0.0198130
  C       -2.5578740    -0.5297180     0.0165720
  H        1.2827490     1.2035910    -0.8153790
  H        1.3032950     1.1268910     0.9448060
  H        3.0193930    -0.7314540     0.8473820
  H        3.0002020    -0.6488010    -0.9221550
  H        3.5981220     0.7231720     0.0226780
  H       -2.8743340    -0.6368580     1.0585370
  H       -2.4550100    -1.5249000    -0.4208200
  H       -3.3176630     0.0418070    -0.5195010
units angstrom
no_reorient  #important for SAPT in psi4, default
symmetry c1  #important for SAPT in psi4, default
}

set PROPERTIES_ORIGIN ["COM"]
properties('MP2/aug-cc-pvtz', properties = ['dipole'])
--------------------------------------------------------------------------

    Molecular point group: c1
  Charge       = 0
  Multiplicity = 1
  Basis Set: AUG-CC-PVTZ
    Blend: AUG-CC-PVTZ
  Basis Set: (AUG-CC-PVTZ AUX)
    Blend: AUG-CC-PVTZ-JKFIT

    Orbital Energies [Eh]
    ---------------------

    Doubly Occupied:

       1A    -91.971490     2A    -20.554344     3A    -11.364388
       4A    -11.268283     5A    -11.243758     6A    -11.231354
       7A     -8.972302     8A     -6.653406     9A     -6.652206
      10A     -6.651653    11A     -1.389175    12A     -1.079121
      13A     -1.031045    14A     -0.955603    15A     -0.835208
      16A     -0.731693    17A     -0.651133    18A     -0.634181
      19A     -0.629612    20A     -0.608404    21A     -0.576502
      22A     -0.555769    23A     -0.525417    24A     -0.519771
      25A     -0.501542    26A     -0.454796    27A     -0.409856
      28A     -0.372957

  @DF-RHF Final Energy:  -628.63000570174063

   => Energetics <=

    Nuclear Repulsion Energy =            292.5601056250274610
    One-Electron Energy =               -1444.3302868720561492
    Two-Electron Energy =                 523.1401755452880025
    Total Energy =                       -628.6300057017406289
  Basis Set: (AUG-CC-PVTZ AUX)
    Blend: AUG-CC-PVTZ-RI
    Molecular point group: c1

    Geometry (in Angstrom), charge = 0, multiplicity = 1:

       Center              X                  Y                   Z               Mass
    ------------   -----------------  -----------------  -----------------  -----------------
         S            0.209840429023    -0.813341280015    -0.010870797108    31.972071174400
         O           -1.164312270977     1.477357419985    -0.016488797108    15.994914619570
         C            1.498904729023     0.552352419985     0.037435202892    12.000000000000
         C            2.892914729023    -0.060629580015    -0.004851797108    12.000000000000
         C           -1.215237270977     0.254790419985    -0.017875797108    12.000000000000
         C           -2.512767270977    -0.518627580015     0.018509202892    12.000000000000
         H            1.327855729023     1.214681419985    -0.813441797108     1.007825032230
         H            1.348401729023     1.137981419985     0.946743202892     1.007825032230
         H            3.064499729023    -0.720363580015     0.849319202892     1.007825032230
         H            3.045308729023    -0.637710580015    -0.920217797108     1.007825032230
         H            3.643228729023     0.734262419985     0.024615202892     1.007825032230
         H           -2.829227270977    -0.625767580015     1.060474202892     1.007825032230
         H           -2.409903270977    -1.513809580015    -0.418882797108     1.007825032230
         H           -3.272556270977     0.052897419985    -0.517563797108     1.007825032230

  Basis Set: AUG-CC-PVTZ
    Blend: AUG-CC-PVTZ
  Basis Set: (AUG-CC-PVTZ AUX)
    Blend: AUG-CC-PVTZ-JKFIT
	 Reference Energy          =    -628.6300057017406289 [Eh]
	 Singles Energy            =      -0.0000000000000000 [Eh]
	 Same-Spin Energy          =      -0.2906170573558951 [Eh]
	 Opposite-Spin Energy      =      -0.9539067152410725 [Eh]
	 Correlation Energy        =      -1.2445237725969676 [Eh]
	 Total Energy              =    -629.8745294743375780 [Eh]

	 ================> DF-SCS-MP2 Energies <==================
	-----------------------------------------------------------
	 SCS Same-Spin Scale       =       0.3333333333333333 [-]
	 SCS Opposite-Spin Scale   =       1.2000000000000000 [-]
	 SCS Same-Spin Energy      =      -0.0968723524519650 [Eh]
	 SCS Opposite-Spin Energy  =      -1.1446880582892869 [Eh]
	 SCS Correlation Energy    =      -1.2415604107412519 [Eh]
	 SCS Total Energy          =    -629.8715661124819007 [Eh]
	-----------------------------------------------------------

  Dipole Moment: [D]
     X:     0.5492      Y:    -1.2163      Z:     0.1002     Total:     1.3383

*** Psi4 exiting successfully. Buy a developer a beer!
