                               Psi4 1.3.2 release

  ==> Input File <==

--------------------------------------------------------------------------
#psi4
#
memory 32 gb

molecule  {
0 1
  S        0.2011420    -0.7740460    -0.0125590
  O       -1.2094190     1.4662670    -0.0184260
  C        1.4537980     0.5412620     0.0354980
  C        2.8478080    -0.0717200    -0.0067890
  C       -1.2603440     0.2437000    -0.0198130
  C       -2.7296200    -0.6320905     0.0213881
  H        1.2827490     1.2035910    -0.8153790
  H        1.3032950     1.1268910     0.9448060
  H        3.0193930    -0.7314540     0.8473820
  H        3.0002020    -0.6488010    -0.9221550
  H        3.5981220     0.7231720     0.0226780
  H       -2.8743340    -0.6368580     1.0585370
  H       -2.4550100    -1.5249000    -0.4208200
  H       -3.3176630     0.0418070    -0.5195010
units angstrom
no_reorient  #important for SAPT in psi4, default
symmetry c1  #important for SAPT in psi4, default
}

set PROPERTIES_ORIGIN ["COM"]
properties('MP2/aug-cc-pvtz', properties = ['dipole'])
--------------------------------------------------------------------------

    Molecular point group: c1
  Charge       = 0
  Multiplicity = 1
  Basis Set: AUG-CC-PVTZ
    Blend: AUG-CC-PVTZ
  Basis Set: (AUG-CC-PVTZ AUX)
    Blend: AUG-CC-PVTZ-JKFIT

    Orbital Energies [Eh]
    ---------------------

    Doubly Occupied:

       1A    -91.969763     2A    -20.556968     3A    -11.368554
       4A    -11.263428     5A    -11.245863     6A    -11.231952
       7A     -8.971357     8A     -6.652498     9A     -6.651374
      10A     -6.650739    11A     -1.388072    12A     -1.084975
      13A     -1.012948    14A     -0.959744    15A     -0.836869
      16A     -0.723737    17A     -0.653563    18A     -0.636720
      19A     -0.620791    20A     -0.605114    21A     -0.599129
      22A     -0.555294    23A     -0.536286    24A     -0.524527
      25A     -0.507168    26A     -0.458267    27A     -0.388219
      28A     -0.370286

  @DF-RHF Final Energy:  -628.60566483506148

   => Energetics <=

    Nuclear Repulsion Energy =            290.7453531705862702
    One-Electron Energy =               -1440.6536249792345643
    Two-Electron Energy =                 521.3026069735868759
    Total Energy =                       -628.6056648350614751
  Basis Set: (AUG-CC-PVTZ AUX)
    Blend: AUG-CC-PVTZ-RI
    Molecular point group: c1

    Geometry (in Angstrom), charge = 0, multiplicity = 1:

       Center              X                  Y                   Z               Mass
    ------------   -----------------  -----------------  -----------------  -----------------
         S            0.254870345960    -0.766632083990    -0.011253869658    31.972071174400
         O           -1.155690654040     1.473680916010    -0.017120869658    15.994914619570
         C            1.507526345960     0.548675916010     0.036803130342    12.000000000000
         C            2.901536345960    -0.064306083990    -0.005483869658    12.000000000000
         C           -1.206615654040     0.251113916010    -0.018507869658    12.000000000000
         C           -2.675891654040    -0.624676583990     0.022693230342    12.000000000000
         H            1.336477345960     1.211004916010    -0.814073869658     1.007825032230
         H            1.357023345960     1.134304916010     0.946111130342     1.007825032230
         H            3.073121345960    -0.724040083990     0.848687130342     1.007825032230
         H            3.053930345960    -0.641387083990    -0.920849869658     1.007825032230
         H            3.651850345960     0.730585916010     0.023983130342     1.007825032230
         H           -2.820605654040    -0.629444083990     1.059842130342     1.007825032230
         H           -2.401281654040    -1.517486083990    -0.419514869658     1.007825032230
         H           -3.263934654040     0.049220916010    -0.518195869658     1.007825032230

  Basis Set: AUG-CC-PVTZ
    Blend: AUG-CC-PVTZ
  Basis Set: (AUG-CC-PVTZ AUX)
    Blend: AUG-CC-PVTZ-JKFIT
	 Reference Energy          =    -628.6056648350614751 [Eh]
	 Singles Energy            =      -0.0000000000000000 [Eh]
	 Same-Spin Energy          =      -0.2909812943030728 [Eh]
	 Opposite-Spin Energy      =      -0.9548551744499005 [Eh]
	 Correlation Energy        =      -1.2458364687529735 [Eh]
	 Total Energy              =    -629.8515013038144161 [Eh]

	 ================> DF-SCS-MP2 Energies <==================
	-----------------------------------------------------------
	 SCS Same-Spin Scale       =       0.3333333333333333 [-]
	 SCS Opposite-Spin Scale   =       1.2000000000000000 [-]
	 SCS Same-Spin Energy      =      -0.0969937647676909 [Eh]
	 SCS Opposite-Spin Energy  =      -1.1458262093398806 [Eh]
	 SCS Correlation Energy    =      -1.2428199741075714 [Eh]
	 SCS Total Energy          =    -629.8484848091690083 [Eh]
	-----------------------------------------------------------

  Dipole Moment: [D]
     X:     0.8198      Y:    -1.0566      Z:     0.0774     Total:     1.3396

*** Psi4 exiting successfully. Buy a developer a beer!
