                               Psi4 1.3.2 release

  ==> Input File <==

--------------------------------------------------------------------------
#psi4
#
memory 32 gb

molecule  {
0 1
  S        0.2011420    -0.7740460    -0.0125590
  O       -1.2094190     1.4662670    -0.0184260
  C        1.5844709     0.4030724     0.0352440
  C        2.8478080    -0.0717200    -0.0067890
  C       -1.2603440     0.2437000    -0.0198130
  C       -2.5578740    -0.5297180     0.0165720
  H        1.2827490     1.2035910    -0.8153790
  H        1.3032950     1.1268910     0.9448060
  H        3.0193930    -0.7314540     0.8473820
  H        3.0002020    -0.6488010    -0.9221550
  H        3.5981220     0.7231720     0.0226780
  H       -2.8743340    -0.6368580     1.0585370
  H       -2.4550100    -1.5249000    -0.4208200
  H       -3.3176630     0.0418070    -0.5195010
units angstrom
no_reorient  #important for SAPT in psi4, default
symmetry c1  #important for SAPT in psi4, default
}

set PROPERTIES_ORIGIN ["COM"]
properties('MP2/aug-cc-pvtz', properties = ['dipole'])
--------------------------------------------------------------------------

    Molecular point group: c1
  Charge       = 0
  Multiplicity = 1
  Basis Set: AUG-CC-PVTZ
    Blend: AUG-CC-PVTZ
  Basis Set: (AUG-CC-PVTZ AUX)
    Blend: AUG-CC-PVTZ-JKFIT

    Orbital Energies [Eh]
    ---------------------

    Doubly Occupied:

       1A    -91.968993     2A    -20.555012     3A    -11.367814
       4A    -11.274503     5A    -11.248048     6A    -11.224602
       7A     -8.970729     8A     -6.651858     9A     -6.650979
      10A     -6.650235    11A     -1.390645    12A     -1.111515
      13A     -1.041313    14A     -0.970337    15A     -0.817484
      16A     -0.730476    17A     -0.662338    18A     -0.635207
      19A     -0.632685    20A     -0.611672    21A     -0.600838
      22A     -0.566988    23A     -0.548587    24A     -0.519951
      25A     -0.470734    26A     -0.445770    27A     -0.408557
      28A     -0.360375

  @DF-RHF Final Energy:  -628.59037394813822

   => Energetics <=

    Nuclear Repulsion Energy =            294.4553566450720155
    One-Electron Energy =               -1447.9149709493490263
    Two-Electron Energy =                 524.8692403561387891
    Total Energy =                       -628.5903739481382217
  Basis Set: (AUG-CC-PVTZ AUX)
    Blend: AUG-CC-PVTZ-RI
    Molecular point group: c1

    Geometry (in Angstrom), charge = 0, multiplicity = 1:

       Center              X                  Y                   Z               Mass
    ------------   -----------------  -----------------  -----------------  -----------------
         S            0.219985781503    -0.762500517036    -0.010669024497    31.972071174400
         O           -1.190575218497     1.477812482964    -0.016536024497    15.994914619570
         C            1.603314681503     0.414617882964     0.037133975503    12.000000000000
         C            2.866651781503    -0.060174517036    -0.004899024497    12.000000000000
         C           -1.241500218497     0.255245482964    -0.017923024497    12.000000000000
         C           -2.539030218497    -0.518172517036     0.018461975503    12.000000000000
         H            1.301592781503     1.215136482964    -0.813489024497     1.007825032230
         H            1.322138781503     1.138436482964     0.946695975503     1.007825032230
         H            3.038236781503    -0.719908517036     0.849271975503     1.007825032230
         H            3.019045781503    -0.637255517036    -0.920265024497     1.007825032230
         H            3.616965781503     0.734717482964     0.024567975503     1.007825032230
         H           -2.855490218497    -0.625312517036     1.060426975503     1.007825032230
         H           -2.436166218497    -1.513354517036    -0.418930024497     1.007825032230
         H           -3.298819218497     0.053352482964    -0.517611024497     1.007825032230

  Basis Set: AUG-CC-PVTZ
    Blend: AUG-CC-PVTZ
  Basis Set: (AUG-CC-PVTZ AUX)
    Blend: AUG-CC-PVTZ-JKFIT
	 Reference Energy          =    -628.5903739481382217 [Eh]
	 Singles Energy            =      -0.0000000000000000 [Eh]
	 Same-Spin Energy          =      -0.2930888616623061 [Eh]
	 Opposite-Spin Energy      =      -0.9562915438985677 [Eh]
	 Correlation Energy        =      -1.2493804055608737 [Eh]
	 Total Energy              =    -629.8397543536990497 [Eh]

	 ================> DF-SCS-MP2 Energies <==================
	-----------------------------------------------------------
	 SCS Same-Spin Scale       =       0.3333333333333333 [-]
	 SCS Opposite-Spin Scale   =       1.2000000000000000 [-]
	 SCS Same-Spin Energy      =      -0.0976962872207687 [Eh]
	 SCS Opposite-Spin Energy  =      -1.1475498526782812 [Eh]
	 SCS Correlation Energy    =      -1.2452461398990500 [Eh]
	 SCS Total Energy          =    -629.8356200880372171 [Eh]
	-----------------------------------------------------------

  Dipole Moment: [D]
     X:     0.6027      Y:    -1.2138      Z:     0.0986     Total:     1.3588

*** Psi4 exiting successfully. Buy a developer a beer!
