                               Psi4 1.3.2 release

  ==> Input File <==

--------------------------------------------------------------------------
#psi4
#
memory 32 gb

molecule  {
0 1
  S        0.2137014    -0.7865851     0.0137222
  O       -1.2094190     1.4662670    -0.0184260
  C        1.4537980     0.5412620     0.0354980
  C        2.8478080    -0.0717200    -0.0067890
  C       -1.2603440     0.2437000    -0.0198130
  C       -2.5578740    -0.5297180     0.0165720
  H        1.2827490     1.2035910    -0.8153790
  H        1.3032950     1.1268910     0.9448060
  H        3.0193930    -0.7314540     0.8473820
  H        3.0002020    -0.6488010    -0.9221550
  H        3.5981220     0.7231720     0.0226780
  H       -2.8743340    -0.6368580     1.0585370
  H       -2.4550100    -1.5249000    -0.4208200
  H       -3.3176630     0.0418070    -0.5195010
units angstrom
no_reorient  #important for SAPT in psi4, default
symmetry c1  #important for SAPT in psi4, default
}

set PROPERTIES_ORIGIN ["COM"]
properties('MP2/aug-cc-pvtz', properties = ['dipole'])
--------------------------------------------------------------------------

    Molecular point group: c1
  Charge       = 0
  Multiplicity = 1
  Basis Set: AUG-CC-PVTZ
    Blend: AUG-CC-PVTZ
  Basis Set: (AUG-CC-PVTZ AUX)
    Blend: AUG-CC-PVTZ-JKFIT

    Orbital Energies [Eh]
    ---------------------

    Doubly Occupied:

       1A    -91.969097     2A    -20.555729     3A    -11.366272
       4A    -11.262471     5A    -11.246084     6A    -11.230996
       7A     -8.970455     8A     -6.651587     9A     -6.650477
      10A     -6.649841    11A     -1.390570    12A     -1.085503
      13A     -1.030170    14A     -0.956013    15A     -0.834019
      16A     -0.733248    17A     -0.654994    18A     -0.635698
      19A     -0.630449    20A     -0.609091    21A     -0.577422
      22A     -0.554856    23A     -0.526320    24A     -0.519043
      25A     -0.501871    26A     -0.462636    27A     -0.408631
      28A     -0.369602

  @DF-RHF Final Energy:  -628.63185189675551

   => Energetics <=

    Nuclear Repulsion Energy =            293.5010133853344314
    One-Electron Energy =               -1446.1994388316225013
    Two-Electron Energy =                 524.0665735495326771
    Total Energy =                       -628.6318518967555065
  Basis Set: (AUG-CC-PVTZ AUX)
    Blend: AUG-CC-PVTZ-RI
    Molecular point group: c1

    Geometry (in Angstrom), charge = 0, multiplicity = 1:

       Center              X                  Y                   Z               Mass
    ------------   -----------------  -----------------  -----------------  -----------------
         S            0.243758575823    -0.787126315157     0.007505708594    31.972071174400
         O           -1.179361824177     1.465725784843    -0.024642491406    15.994914619570
         C            1.483855175823     0.540720784843     0.029281508594    12.000000000000
         C            2.877865175823    -0.072261215157    -0.013005491406    12.000000000000
         C           -1.230286824177     0.243158784843    -0.026029491406    12.000000000000
         C           -2.527816824177    -0.530259215157     0.010355508594    12.000000000000
         H            1.312806175823     1.203049784843    -0.821595491406     1.007825032230
         H            1.333352175823     1.126349784843     0.938589508594     1.007825032230
         H            3.049450175823    -0.731995215157     0.841165508594     1.007825032230
         H            3.030259175823    -0.649342215157    -0.928371491406     1.007825032230
         H            3.628179175823     0.722630784843     0.016461508594     1.007825032230
         H           -2.844276824177    -0.637399215157     1.052320508594     1.007825032230
         H           -2.424952824177    -1.525441215157    -0.427036491406     1.007825032230
         H           -3.287605824177     0.041265784843    -0.525717491406     1.007825032230

  Basis Set: AUG-CC-PVTZ
    Blend: AUG-CC-PVTZ
  Basis Set: (AUG-CC-PVTZ AUX)
    Blend: AUG-CC-PVTZ-JKFIT
	 Reference Energy          =    -628.6318518967555065 [Eh]
	 Singles Energy            =      -0.0000000000000000 [Eh]
	 Same-Spin Energy          =      -0.2908151908118094 [Eh]
	 Opposite-Spin Energy      =      -0.9536454772548317 [Eh]
	 Correlation Energy        =      -1.2444606680666412 [Eh]
	 Total Energy              =    -629.8763125648221148 [Eh]

	 ================> DF-SCS-MP2 Energies <==================
	-----------------------------------------------------------
	 SCS Same-Spin Scale       =       0.3333333333333333 [-]
	 SCS Opposite-Spin Scale   =       1.2000000000000000 [-]
	 SCS Same-Spin Energy      =      -0.0969383969372698 [Eh]
	 SCS Opposite-Spin Energy  =      -1.1443745727057981 [Eh]
	 SCS Correlation Energy    =      -1.2413129696430678 [Eh]
	 SCS Total Energy          =    -629.8731648663986107 [Eh]
	-----------------------------------------------------------

  Dipole Moment: [D]
     X:     0.4352      Y:    -1.1860      Z:     0.0895     Total:     1.2665

*** Psi4 exiting successfully. Buy a developer a beer!
