                               Psi4 1.3.2 release

  ==> Input File <==

--------------------------------------------------------------------------
#psi4
#
memory 32 gb

molecule  {
0 1
  S        0.2011420    -0.7740460    -0.0125590
  O       -1.2094190     1.4662670    -0.0184260
  C        1.4537980     0.5412620     0.0354980
  C        2.8478080    -0.0717200    -0.0067890
  C       -1.0962201     0.1294078    -0.0189984
  C       -2.5578740    -0.5297180     0.0165720
  H        1.2827490     1.2035910    -0.8153790
  H        1.3032950     1.1268910     0.9448060
  H        3.0193930    -0.7314540     0.8473820
  H        3.0002020    -0.6488010    -0.9221550
  H        3.5981220     0.7231720     0.0226780
  H       -2.8743340    -0.6368580     1.0585370
  H       -2.4550100    -1.5249000    -0.4208200
  H       -3.3176630     0.0418070    -0.5195010
units angstrom
no_reorient  #important for SAPT in psi4, default
symmetry c1  #important for SAPT in psi4, default
}

set PROPERTIES_ORIGIN ["COM"]
properties('MP2/aug-cc-pvtz', properties = ['dipole'])
--------------------------------------------------------------------------

    Molecular point group: c1
  Charge       = 0
  Multiplicity = 1
  Basis Set: AUG-CC-PVTZ
    Blend: AUG-CC-PVTZ
  Basis Set: (AUG-CC-PVTZ AUX)
    Blend: AUG-CC-PVTZ-JKFIT

    Orbital Energies [Eh]
    ---------------------

    Doubly Occupied:

       1A    -91.991321     2A    -20.524610     3A    -11.358046
       4A    -11.274736     5A    -11.244051     6A    -11.240899
       7A     -8.997593     8A     -6.679283     9A     -6.677195
      10A     -6.676852    11A     -1.304402    12A     -1.123212
      13A     -1.034258    14A     -0.965186    15A     -0.856270
      16A     -0.726539    17A     -0.647299    18A     -0.636408
      19A     -0.603920    20A     -0.589376    21A     -0.575595
      22A     -0.541515    23A     -0.533157    24A     -0.528623
      25A     -0.480625    26A     -0.466525    27A     -0.404442
      28A     -0.381097

  @DF-RHF Final Energy:  -628.57954175574594

   => Energetics <=

    Nuclear Repulsion Energy =            295.6490023001063605
    One-Electron Energy =               -1450.3310155056408348
    Two-Electron Energy =                 526.1024714497885952
    Total Energy =                       -628.5795417557459359
  Basis Set: (AUG-CC-PVTZ AUX)
    Blend: AUG-CC-PVTZ-RI
    Molecular point group: c1

    Geometry (in Angstrom), charge = 0, multiplicity = 1:

       Center              X                  Y                   Z               Mass
    ------------   -----------------  -----------------  -----------------  -----------------
         S            0.216127148443    -0.765257125140    -0.010792289430    31.972071174400
         O           -1.194433851557     1.475055874860    -0.016659289430    15.994914619570
         C            1.468783148443     0.550050874860     0.037264710570    12.000000000000
         C            2.862793148443    -0.062931125140    -0.005022289430    12.000000000000
         C           -1.081234951557     0.138196674860    -0.017231689430    12.000000000000
         C           -2.542888851557    -0.520929125140     0.018338710570    12.000000000000
         H            1.297734148443     1.212379874860    -0.813612289430     1.007825032230
         H            1.318280148443     1.135679874860     0.946572710570     1.007825032230
         H            3.034378148443    -0.722665125140     0.849148710570     1.007825032230
         H            3.015187148443    -0.640012125140    -0.920388289430     1.007825032230
         H            3.613107148443     0.731960874860     0.024444710570     1.007825032230
         H           -2.859348851557    -0.628069125140     1.060303710570     1.007825032230
         H           -2.440024851557    -1.516111125140    -0.419053289430     1.007825032230
         H           -3.302677851557     0.050595874860    -0.517734289430     1.007825032230

  Basis Set: AUG-CC-PVTZ
    Blend: AUG-CC-PVTZ
  Basis Set: (AUG-CC-PVTZ AUX)
    Blend: AUG-CC-PVTZ-JKFIT
	 Reference Energy          =    -628.5795417557459359 [Eh]
	 Singles Energy            =      -0.0000000000000000 [Eh]
	 Same-Spin Energy          =      -0.2952214393849328 [Eh]
	 Opposite-Spin Energy      =      -0.9613121840947783 [Eh]
	 Correlation Energy        =      -1.2565336234797111 [Eh]
	 Total Energy              =    -629.8360753792256901 [Eh]

	 ================> DF-SCS-MP2 Energies <==================
	-----------------------------------------------------------
	 SCS Same-Spin Scale       =       0.3333333333333333 [-]
	 SCS Opposite-Spin Scale   =       1.2000000000000000 [-]
	 SCS Same-Spin Energy      =      -0.0984071464616443 [Eh]
	 SCS Opposite-Spin Energy  =      -1.1535746209137339 [Eh]
	 SCS Correlation Energy    =      -1.2519817673753781 [Eh]
	 SCS Total Energy          =    -629.8315235231212910 [Eh]
	-----------------------------------------------------------

  Dipole Moment: [D]
     X:     1.9301      Y:    -2.0105      Z:     0.0935     Total:     2.7886

*** Psi4 exiting successfully. Buy a developer a beer!
