                               Psi4 1.4a3.dev225

  ==> Input File <==

--------------------------------------------------------------------------
#psi4
#
memory 32 gb

molecule  {
0 1
  S        0.2011420    -0.7740460    -0.0125590
  O       -1.2094190     1.4662670    -0.0184260
  C        1.4537980     0.5412620     0.0354980
  C        2.8478080    -0.0717200    -0.0067890
  C       -1.2439316     0.2322708    -0.0197315
  C       -2.5578740    -0.5297180     0.0165720
  H        1.2827490     1.2035910    -0.8153790
  H        1.3032950     1.1268910     0.9448060
  H        3.0193930    -0.7314540     0.8473820
  H        3.0002020    -0.6488010    -0.9221550
  H        3.5981220     0.7231720     0.0226780
  H       -2.8743340    -0.6368580     1.0585370
  H       -2.4550100    -1.5249000    -0.4208200
  H       -3.3176630     0.0418070    -0.5195010
units angstrom
no_reorient  #important for SAPT in psi4, default
symmetry c1  #important for SAPT in psi4, default
}

set PROPERTIES_ORIGIN ["COM"]
properties('MP2/aug-cc-pvtz', properties = ['dipole'])
--------------------------------------------------------------------------

    Molecular point group: c1
  Charge       = 0
  Multiplicity = 1
  Basis Set: AUG-CC-PVTZ
    Blend: AUG-CC-PVTZ
  Basis Set: (AUG-CC-PVTZ AUX)
    Blend: AUG-CC-PVTZ-JKFIT

    Orbital Energies [Eh]
    ---------------------

    Doubly Occupied:

       1A    -91.971645     2A    -20.550938     3A    -11.363916
       4A    -11.264220     5A    -11.244975     6A    -11.232632
       7A     -8.973633     8A     -6.654827     9A     -6.653651
      10A     -6.653036    11A     -1.380764    12A     -1.089730
      13A     -1.029324    14A     -0.960174    15A     -0.837776
      16A     -0.731017    17A     -0.653662    18A     -0.637195
      19A     -0.626077    20A     -0.606573    21A     -0.577271
      22A     -0.554178    23A     -0.526580    24A     -0.520171
      25A     -0.499177    26A     -0.463402    27A     -0.411039
      28A     -0.372066

  @DF-RHF Final Energy:  -628.63099650347988

   => Energetics <=

    Nuclear Repulsion Energy =            294.1242661483523761
    One-Electron Energy =               -1447.4312188589321977
    Two-Electron Energy =                 524.6759562071000573
    Total Energy =                       -628.6309965034798779
  Basis Set: (AUG-CC-PVTZ AUX)
    Blend: AUG-CC-PVTZ-RI
    Molecular point group: c1

    Geometry (in Angstrom), charge = 0, multiplicity = 1:

       Center              X                  Y                   Z               Mass
    ------------   -----------------  -----------------  -----------------  -----------------
         S            0.233165935842    -0.777122557339    -0.010707725026    31.972071174400
         O           -1.177395064158     1.463190442661    -0.016574725026    15.994914619570
         C            1.485821935842     0.538185442661     0.037349274974    12.000000000000
         C            2.879831935842    -0.074796557339    -0.004937725026    12.000000000000
         C           -1.211907664158     0.229194242661    -0.017880225026    12.000000000000
         C           -2.525850064158    -0.532794557339     0.018423274974    12.000000000000
         H            1.314772935842     1.200514442661    -0.813527725026     1.007825032230
         H            1.335318935842     1.123814442661     0.946657274974     1.007825032230
         H            3.051416935842    -0.734530557339     0.849233274974     1.007825032230
         H            3.032225935842    -0.651877557339    -0.920303725026     1.007825032230
         H            3.630145935842     0.720095442661     0.024529274974     1.007825032230
         H           -2.842310064158    -0.639934557339     1.060388274974     1.007825032230
         H           -2.422986064158    -1.527976557339    -0.418968725026     1.007825032230
         H           -3.285639064158     0.038730442661    -0.517649725026     1.007825032230

  Basis Set: AUG-CC-PVTZ
    Blend: AUG-CC-PVTZ
  Basis Set: (AUG-CC-PVTZ AUX)
    Blend: AUG-CC-PVTZ-JKFIT
	 Reference Energy          =    -628.6309965034798779 [Eh]
	 Singles Energy            =      -0.0000000000000000 [Eh]
	 Same-Spin Energy          =      -0.2911157108103689 [Eh]
	 Opposite-Spin Energy      =      -0.9539404917340022 [Eh]
	 Correlation Energy        =      -1.2450562025443710 [Eh]
	 Total Energy              =    -629.8760527060242111 [Eh]

	 ================> DF-SCS-MP2 Energies <==================
	-----------------------------------------------------------
	 SCS Same-Spin Scale       =       0.3333333333333333 [-]
	 SCS Opposite-Spin Scale   =       1.2000000000000000 [-]
	 SCS Same-Spin Energy      =      -0.0970385702701230 [Eh]
	 SCS Opposite-Spin Energy  =      -1.1447285900808026 [Eh]
	 SCS Correlation Energy    =      -1.2417671603509255 [Eh]
	 SCS Total Energy          =    -629.8727636638308240 [Eh]
	-----------------------------------------------------------

  Dipole Moment: [D]
     X:     0.6721      Y:    -1.3076      Z:     0.0992     Total:     1.4736

*** Psi4 exiting successfully. Buy a developer a beer!
