                               Psi4 1.3.2 release

  ==> Input File <==

--------------------------------------------------------------------------
#psi4
#
memory 32 gb

molecule  {
0 1
  S        0.2820838    -0.8431412     0.1450675
  O       -1.2094190     1.4662670    -0.0184260
  C        1.4537980     0.5412620     0.0354980
  C        2.8478080    -0.0717200    -0.0067890
  C       -1.2603440     0.2437000    -0.0198130
  C       -2.5578740    -0.5297180     0.0165720
  H        1.2827490     1.2035910    -0.8153790
  H        1.3032950     1.1268910     0.9448060
  H        3.0193930    -0.7314540     0.8473820
  H        3.0002020    -0.6488010    -0.9221550
  H        3.5981220     0.7231720     0.0226780
  H       -2.8743340    -0.6368580     1.0585370
  H       -2.4550100    -1.5249000    -0.4208200
  H       -3.3176630     0.0418070    -0.5195010
units angstrom
no_reorient  #important for SAPT in psi4, default
symmetry c1  #important for SAPT in psi4, default
}

set PROPERTIES_ORIGIN ["COM"]
properties('MP2/aug-cc-pvtz', properties = ['dipole'])
--------------------------------------------------------------------------

    Molecular point group: c1
  Charge       = 0
  Multiplicity = 1
  Basis Set: AUG-CC-PVTZ
    Blend: AUG-CC-PVTZ
  Basis Set: (AUG-CC-PVTZ AUX)
    Blend: AUG-CC-PVTZ-JKFIT

    Orbital Energies [Eh]
    ---------------------

    Doubly Occupied:

       1A    -91.969096     2A    -20.565829     3A    -11.375428
       4A    -11.259986     5A    -11.249115     6A    -11.227805
       7A     -8.968873     8A     -6.649880     9A     -6.648790
      10A     -6.648125    11A     -1.395905    12A     -1.079477
      13A     -1.028096    14A     -0.945900    15A     -0.826341
      16A     -0.738807    17A     -0.654237    18A     -0.632738
      19A     -0.631888    20A     -0.610173    21A     -0.578187
      22A     -0.553978    23A     -0.524900    24A     -0.515743
      25A     -0.503132    26A     -0.462366    27A     -0.403855
      28A     -0.366376

  @DF-RHF Final Energy:  -628.62293099914302

   => Energetics <=

    Nuclear Repulsion Energy =            291.0190531463596244
    One-Electron Energy =               -1441.2539137397291142
    Two-Electron Energy =                 521.6119295942263534
    Total Energy =                       -628.6229309991430227
  Basis Set: (AUG-CC-PVTZ AUX)
    Blend: AUG-CC-PVTZ-RI
    Molecular point group: c1

    Geometry (in Angstrom), charge = 0, multiplicity = 1:

       Center              X                  Y                   Z               Mass
    ------------   -----------------  -----------------  -----------------  -----------------
         S            0.291124579980    -0.826300670952     0.098483826147    31.972071174400
         O           -1.200378220020     1.483107529048    -0.065009673853    15.994914619570
         C            1.462838779980     0.558102529048    -0.011085673853    12.000000000000
         C            2.856848779980    -0.054879470952    -0.053372673853    12.000000000000
         C           -1.251303220020     0.260540529048    -0.066396673853    12.000000000000
         C           -2.548833220020    -0.512877470952    -0.030011673853    12.000000000000
         H            1.291789779980     1.220431529048    -0.861962673853     1.007825032230
         H            1.312335779980     1.143731529048     0.898222326147     1.007825032230
         H            3.028433779980    -0.714613470952     0.800798326147     1.007825032230
         H            3.009242779980    -0.631960470952    -0.968738673853     1.007825032230
         H            3.607162779980     0.740012529048    -0.023905673853     1.007825032230
         H           -2.865293220020    -0.620017470952     1.011953326147     1.007825032230
         H           -2.445969220020    -1.508059470952    -0.467403673853     1.007825032230
         H           -3.308622220020     0.058647529048    -0.566084673853     1.007825032230

  Basis Set: AUG-CC-PVTZ
    Blend: AUG-CC-PVTZ
  Basis Set: (AUG-CC-PVTZ AUX)
    Blend: AUG-CC-PVTZ-JKFIT
	 Reference Energy          =    -628.6229309991430227 [Eh]
	 Singles Energy            =      -0.0000000000000000 [Eh]
	 Same-Spin Energy          =      -0.2910180768409895 [Eh]
	 Opposite-Spin Energy      =      -0.9555084594381968 [Eh]
	 Correlation Energy        =      -1.2465265362791862 [Eh]
	 Total Energy              =    -629.8694575354221570 [Eh]

	 ================> DF-SCS-MP2 Energies <==================
	-----------------------------------------------------------
	 SCS Same-Spin Scale       =       0.3333333333333333 [-]
	 SCS Opposite-Spin Scale   =       1.2000000000000000 [-]
	 SCS Same-Spin Energy      =      -0.0970060256136631 [Eh]
	 SCS Opposite-Spin Energy  =      -1.1466101513258362 [Eh]
	 SCS Correlation Energy    =      -1.2436161769394993 [Eh]
	 SCS Total Energy          =    -629.8665471760825767 [Eh]
	-----------------------------------------------------------

  Dipole Moment: [D]
     X:     0.0211      Y:    -0.9878      Z:     0.0176     Total:     0.9881

*** Psi4 exiting successfully. Buy a developer a beer!
