                               Psi4 1.3.2 release

  ==> Input File <==

--------------------------------------------------------------------------
#psi4
#
memory 32 gb

molecule  {
0 1
  S        0.2011420    -0.7740460    -0.0125590
  O       -1.2094190     1.4662670    -0.0184260
  C        1.4537980     0.5412620     0.0354980
  C        2.8478080    -0.0717200    -0.0067890
  C       -1.2374001     0.2023141    -0.0431019
  C       -2.5578740    -0.5297180     0.0165720
  H        1.2827490     1.2035910    -0.8153790
  H        1.3032950     1.1268910     0.9448060
  H        3.0193930    -0.7314540     0.8473820
  H        3.0002020    -0.6488010    -0.9221550
  H        3.5981220     0.7231720     0.0226780
  H       -2.8743340    -0.6368580     1.0585370
  H       -2.4550100    -1.5249000    -0.4208200
  H       -3.3176630     0.0418070    -0.5195010
units angstrom
no_reorient  #important for SAPT in psi4, default
symmetry c1  #important for SAPT in psi4, default
}

set PROPERTIES_ORIGIN ["COM"]
properties('MP2/aug-cc-pvtz', properties = ['dipole'])
--------------------------------------------------------------------------

    Molecular point group: c1
  Charge       = 0
  Multiplicity = 1
  Basis Set: AUG-CC-PVTZ
    Blend: AUG-CC-PVTZ
  Basis Set: (AUG-CC-PVTZ AUX)
    Blend: AUG-CC-PVTZ-JKFIT

    Orbital Energies [Eh]
    ---------------------

    Doubly Occupied:

       1A    -91.975435     2A    -20.546023     3A    -11.364805
       4A    -11.265912     5A    -11.245209     6A    -11.234000
       7A     -8.977658     8A     -6.658894     9A     -6.657674
      10A     -6.657093    11A     -1.359415    12A     -1.093234
      13A     -1.032202    14A     -0.963775    15A     -0.840712
      16A     -0.730238    17A     -0.651061    18A     -0.638236
      19A     -0.619835    20A     -0.604787    21A     -0.578027
      22A     -0.551715    23A     -0.525978    24A     -0.519448
      25A     -0.491515    26A     -0.465013    27A     -0.413922
      28A     -0.373687

  @DF-RHF Final Energy:  -628.62528506747185

   => Energetics <=

    Nuclear Repulsion Energy =            294.1024583238447576
    One-Electron Energy =               -1447.3844791356002588
    Two-Electron Energy =                 524.6567357442836510
    Total Energy =                       -628.6252850674718502
  Basis Set: (AUG-CC-PVTZ AUX)
    Blend: AUG-CC-PVTZ-RI
    Molecular point group: c1

    Geometry (in Angstrom), charge = 0, multiplicity = 1:

       Center              X                  Y                   Z               Mass
    ------------   -----------------  -----------------  -----------------  -----------------
         S            0.232412515561    -0.773666998073    -0.008011907320    31.972071174400
         O           -1.178148484439     1.466646001927    -0.013878907320    15.994914619570
         C            1.485068515561     0.541641001927     0.040045092680    12.000000000000
         C            2.879078515561    -0.071340998073    -0.002241907320    12.000000000000
         C           -1.206129584439     0.202693101927    -0.038554807320    12.000000000000
         C           -2.526603484439    -0.529338998073     0.021119092680    12.000000000000
         H            1.314019515561     1.203970001927    -0.810831907320     1.007825032230
         H            1.334565515561     1.127270001927     0.949353092680     1.007825032230
         H            3.050663515561    -0.731074998073     0.851929092680     1.007825032230
         H            3.031472515561    -0.648421998073    -0.917607907320     1.007825032230
         H            3.629392515561     0.723551001927     0.027225092680     1.007825032230
         H           -2.843063484439    -0.636478998073     1.063084092680     1.007825032230
         H           -2.423739484439    -1.524520998073    -0.416272907320     1.007825032230
         H           -3.286392484439     0.042186001927    -0.514953907320     1.007825032230

  Basis Set: AUG-CC-PVTZ
    Blend: AUG-CC-PVTZ
  Basis Set: (AUG-CC-PVTZ AUX)
    Blend: AUG-CC-PVTZ-JKFIT
	 Reference Energy          =    -628.6252850674718502 [Eh]
	 Singles Energy            =      -0.0000000000000000 [Eh]
	 Same-Spin Energy          =      -0.2920059894740651 [Eh]
	 Opposite-Spin Energy      =      -0.9556194510289254 [Eh]
	 Correlation Energy        =      -1.2476254405029905 [Eh]
	 Total Energy              =    -629.8729105079748933 [Eh]

	 ================> DF-SCS-MP2 Energies <==================
	-----------------------------------------------------------
	 SCS Same-Spin Scale       =       0.3333333333333333 [-]
	 SCS Opposite-Spin Scale   =       1.2000000000000000 [-]
	 SCS Same-Spin Energy      =      -0.0973353298246884 [Eh]
	 SCS Opposite-Spin Energy  =      -1.1467433412347106 [Eh]
	 SCS Correlation Energy    =      -1.2440786710593990 [Eh]
	 SCS Total Energy          =    -629.8693637385312059 [Eh]
	-----------------------------------------------------------

  Dipole Moment: [D]
     X:     0.8299      Y:    -1.4659      Z:     0.1001     Total:     1.6875

*** Psi4 exiting successfully. Buy a developer a beer!
