                               Psi4 1.4a3.dev225

  ==> Input File <==

--------------------------------------------------------------------------
#psi4
#
memory 32 gb

molecule  {
0 1
  S        0.2011420    -0.7740460    -0.0125590
  O       -1.2094190     1.4662670    -0.0184260
  C        1.4537980     0.5412620     0.0354980
  C        2.8478080    -0.0717200    -0.0067890
  C       -1.2193130     0.2151270    -0.0196093
  C       -2.5578740    -0.5297180     0.0165720
  H        1.2827490     1.2035910    -0.8153790
  H        1.3032950     1.1268910     0.9448060
  H        3.0193930    -0.7314540     0.8473820
  H        3.0002020    -0.6488010    -0.9221550
  H        3.5981220     0.7231720     0.0226780
  H       -2.8743340    -0.6368580     1.0585370
  H       -2.4550100    -1.5249000    -0.4208200
  H       -3.3176630     0.0418070    -0.5195010
units angstrom
no_reorient  #important for SAPT in psi4, default
symmetry c1  #important for SAPT in psi4, default
}

set PROPERTIES_ORIGIN ["COM"]
properties('MP2/aug-cc-pvtz', properties = ['dipole'])
--------------------------------------------------------------------------

    Molecular point group: c1
  Charge       = 0
  Multiplicity = 1
  Basis Set: AUG-CC-PVTZ
    Blend: AUG-CC-PVTZ
  Basis Set: (AUG-CC-PVTZ AUX)
    Blend: AUG-CC-PVTZ-JKFIT

    Orbital Energies [Eh]
    ---------------------

    Doubly Occupied:

       1A    -91.975445     2A    -20.546766     3A    -11.363219
       4A    -11.266099     5A    -11.244276     6A    -11.234106
       7A     -8.977900     8A     -6.659153     9A     -6.657884
      10A     -6.657300    11A     -1.367576    12A     -1.094292
      13A     -1.027884    14A     -0.963118    15A     -0.841036
      16A     -0.729514    17A     -0.651377    18A     -0.638698
      19A     -0.620324    20A     -0.603111    21A     -0.577147
      22A     -0.552879    23A     -0.526982    24A     -0.520803
      25A     -0.495141    26A     -0.464755    27A     -0.412846
      28A     -0.374837

  @DF-RHF Final Energy:  -628.62726647099862

   => Energetics <=

    Nuclear Repulsion Energy =            294.3325960039219353
    One-Electron Energy =               -1447.8307859365083914
    Two-Electron Energy =                 524.8709234615878358
    Total Energy =                       -628.6272664709986202
  Basis Set: (AUG-CC-PVTZ AUX)
    Blend: AUG-CC-PVTZ-RI
    Molecular point group: c1

    Geometry (in Angstrom), charge = 0, multiplicity = 1:

       Center              X                  Y                   Z               Mass
    ------------   -----------------  -----------------  -----------------  -----------------
         S            0.230326136020    -0.775144989151    -0.010721821016    31.972071174400
         O           -1.180234863980     1.465168010849    -0.016588821016    15.994914619570
         C            1.482982136020     0.540163010849     0.037335178984    12.000000000000
         C            2.876992136020    -0.072818989151    -0.004951821016    12.000000000000
         C           -1.190128863980     0.214028010849    -0.017772121016    12.000000000000
         C           -2.528689863980    -0.530816989151     0.018409178984    12.000000000000
         H            1.311933136020     1.202492010849    -0.813541821016     1.007825032230
         H            1.332479136020     1.125792010849     0.946643178984     1.007825032230
         H            3.048577136020    -0.732552989151     0.849219178984     1.007825032230
         H            3.029386136020    -0.649899989151    -0.920317821016     1.007825032230
         H            3.627306136020     0.722073010849     0.024515178984     1.007825032230
         H           -2.845149863980    -0.637956989151     1.060374178984     1.007825032230
         H           -2.425825863980    -1.525998989151    -0.418982821016     1.007825032230
         H           -3.288478863980     0.040708010849    -0.517663821016     1.007825032230

  Basis Set: AUG-CC-PVTZ
    Blend: AUG-CC-PVTZ
  Basis Set: (AUG-CC-PVTZ AUX)
    Blend: AUG-CC-PVTZ-JKFIT
	 Reference Energy          =    -628.6272664709986202 [Eh]
	 Singles Energy            =      -0.0000000000000000 [Eh]
	 Same-Spin Energy          =      -0.2916221473412259 [Eh]
	 Opposite-Spin Energy      =      -0.9548852574402680 [Eh]
	 Correlation Energy        =      -1.2465074047814939 [Eh]
	 Total Energy              =    -629.8737738757801026 [Eh]

	 ================> DF-SCS-MP2 Energies <==================
	-----------------------------------------------------------
	 SCS Same-Spin Scale       =       0.3333333333333333 [-]
	 SCS Opposite-Spin Scale   =       1.2000000000000000 [-]
	 SCS Same-Spin Energy      =      -0.0972073824470753 [Eh]
	 SCS Opposite-Spin Energy  =      -1.1458623089283215 [Eh]
	 SCS Correlation Energy    =      -1.2430696913753969 [Eh]
	 SCS Total Energy          =    -629.8703361623739738 [Eh]
	-----------------------------------------------------------

  Dipole Moment: [D]
     X:     0.9080      Y:    -1.4330      Z:     0.0979     Total:     1.6993

*** Psi4 exiting successfully. Buy a developer a beer!
