                               Psi4 1.3.2 release

  ==> Input File <==

--------------------------------------------------------------------------
#psi4
#
memory 32 gb

molecule  {
0 1
  S        0.2266385    -0.7987196     0.0400100
  O       -1.2094190     1.4662670    -0.0184260
  C        1.4537980     0.5412620     0.0354980
  C        2.8478080    -0.0717200    -0.0067890
  C       -1.2603440     0.2437000    -0.0198130
  C       -2.5578740    -0.5297180     0.0165720
  H        1.2827490     1.2035910    -0.8153790
  H        1.3032950     1.1268910     0.9448060
  H        3.0193930    -0.7314540     0.8473820
  H        3.0002020    -0.6488010    -0.9221550
  H        3.5981220     0.7231720     0.0226780
  H       -2.8743340    -0.6368580     1.0585370
  H       -2.4550100    -1.5249000    -0.4208200
  H       -3.3176630     0.0418070    -0.5195010
units angstrom
no_reorient  #important for SAPT in psi4, default
symmetry c1  #important for SAPT in psi4, default
}

set PROPERTIES_ORIGIN ["COM"]
properties('MP2/aug-cc-pvtz', properties = ['dipole'])
--------------------------------------------------------------------------

    Molecular point group: c1
  Charge       = 0
  Multiplicity = 1
  Basis Set: AUG-CC-PVTZ
    Blend: AUG-CC-PVTZ
  Basis Set: (AUG-CC-PVTZ AUX)
    Blend: AUG-CC-PVTZ-JKFIT

    Orbital Energies [Eh]
    ---------------------

    Doubly Occupied:

       1A    -91.969182     2A    -20.557733     3A    -11.368116
       4A    -11.261994     5A    -11.246618     6A    -11.230365
       7A     -8.970189     8A     -6.651296     9A     -6.650195
      10A     -6.649555    11A     -1.391564    12A     -1.084174
      13A     -1.029639    14A     -0.954107    15A     -0.832462
      16A     -0.734320    17A     -0.654853    18A     -0.635083
      19A     -0.630724    20A     -0.609246    21A     -0.577551
      22A     -0.554700    23A     -0.525957    24A     -0.518204
      25A     -0.502095    26A     -0.462814    27A     -0.407959
      28A     -0.369098

  @DF-RHF Final Energy:  -628.63081440002338

   => Energetics <=

    Nuclear Repulsion Energy =            293.0062265669267845
    One-Electron Energy =               -1445.2144995408580144
    Two-Electron Energy =                 523.5774585739079612
    Total Energy =                       -628.6308144000233824
  Basis Set: (AUG-CC-PVTZ AUX)
    Blend: AUG-CC-PVTZ-RI
    Molecular point group: c1

    Geometry (in Angstrom), charge = 0, multiplicity = 1:

       Center              X                  Y                   Z               Mass
    ------------   -----------------  -----------------  -----------------  -----------------
         S            0.252719634990    -0.795531442463     0.025714312622    31.972071174400
         O           -1.183337865010     1.469455157537    -0.032721687378    15.994914619570
         C            1.479879134990     0.544450157537     0.021202312622    12.000000000000
         C            2.873889134990    -0.068531842463    -0.021084687378    12.000000000000
         C           -1.234262865010     0.246888157537    -0.034108687378    12.000000000000
         C           -2.531792865010    -0.526529842463     0.002276312622    12.000000000000
         H            1.308830134990     1.206779157537    -0.829674687378     1.007825032230
         H            1.329376134990     1.130079157537     0.930510312622     1.007825032230
         H            3.045474134990    -0.728265842463     0.833086312622     1.007825032230
         H            3.026283134990    -0.645612842463    -0.936450687378     1.007825032230
         H            3.624203134990     0.726360157537     0.008382312622     1.007825032230
         H           -2.848252865010    -0.633669842463     1.044241312622     1.007825032230
         H           -2.428928865010    -1.521711842463    -0.435115687378     1.007825032230
         H           -3.291581865010     0.044995157537    -0.533796687378     1.007825032230

  Basis Set: AUG-CC-PVTZ
    Blend: AUG-CC-PVTZ
  Basis Set: (AUG-CC-PVTZ AUX)
    Blend: AUG-CC-PVTZ-JKFIT
	 Reference Energy          =    -628.6308144000233824 [Eh]
	 Singles Energy            =      -0.0000000000000000 [Eh]
	 Same-Spin Energy          =      -0.2908203435142304 [Eh]
	 Opposite-Spin Energy      =      -0.9539409237093527 [Eh]
	 Correlation Energy        =      -1.2447612672235830 [Eh]
	 Total Energy              =    -629.8755756672469488 [Eh]

	 ================> DF-SCS-MP2 Energies <==================
	-----------------------------------------------------------
	 SCS Same-Spin Scale       =       0.3333333333333333 [-]
	 SCS Opposite-Spin Scale   =       1.2000000000000000 [-]
	 SCS Same-Spin Energy      =      -0.0969401145047435 [Eh]
	 SCS Opposite-Spin Energy  =      -1.1447291084512232 [Eh]
	 SCS Correlation Energy    =      -1.2416692229559667 [Eh]
	 SCS Total Energy          =    -629.8724836229793027 [Eh]
	-----------------------------------------------------------

  Dipole Moment: [D]
     X:     0.3580      Y:    -1.1490      Z:     0.0777     Total:     1.2060

*** Psi4 exiting successfully. Buy a developer a beer!
