                               Psi4 1.3.2 release

  ==> Input File <==

--------------------------------------------------------------------------
#psi4
#
memory 32 gb

molecule  {
0 1
  S        0.2011420    -0.7740460    -0.0125590
  O       -1.2094190     1.4662670    -0.0184260
  C        1.4306439     0.5629312     0.0354891
  C        2.8478080    -0.0717200    -0.0067890
  C       -1.2603440     0.2437000    -0.0198130
  C       -2.5578740    -0.5297180     0.0165720
  H        1.2827490     1.2035910    -0.8153790
  H        1.3032950     1.1268910     0.9448060
  H        3.0193930    -0.7314540     0.8473820
  H        3.0002020    -0.6488010    -0.9221550
  H        3.5981220     0.7231720     0.0226780
  H       -2.8743340    -0.6368580     1.0585370
  H       -2.4550100    -1.5249000    -0.4208200
  H       -3.3176630     0.0418070    -0.5195010
units angstrom
no_reorient  #important for SAPT in psi4, default
symmetry c1  #important for SAPT in psi4, default
}

set PROPERTIES_ORIGIN ["COM"]
properties('MP2/aug-cc-pvtz', properties = ['dipole'])
--------------------------------------------------------------------------

    Molecular point group: c1
  Charge       = 0
  Multiplicity = 1
  Basis Set: AUG-CC-PVTZ
    Blend: AUG-CC-PVTZ
  Basis Set: (AUG-CC-PVTZ AUX)
    Blend: AUG-CC-PVTZ-JKFIT

    Orbital Energies [Eh]
    ---------------------

    Doubly Occupied:

       1A    -91.969294     2A    -20.553622     3A    -11.363968
       4A    -11.261585     5A    -11.245253     6A    -11.232550
       7A     -8.970973     8A     -6.652135     9A     -6.650977
      10A     -6.650358    11A     -1.389565    12A     -1.084702
      13A     -1.029174    14A     -0.955617    15A     -0.838516
      16A     -0.732393    17A     -0.654208    18A     -0.638437
      19A     -0.630069    20A     -0.608811    21A     -0.575056
      22A     -0.553974    23A     -0.528661    24A     -0.512175
      25A     -0.504227    26A     -0.464627    27A     -0.409104
      28A     -0.371175

  @DF-RHF Final Energy:  -628.63169763769656

   => Energetics <=

    Nuclear Repulsion Energy =            293.9545965389517050
    One-Electron Energy =               -1447.1101767235841180
    Two-Electron Energy =                 524.5238825469359654
    Total Energy =                       -628.6316976376965613
  Basis Set: (AUG-CC-PVTZ AUX)
    Blend: AUG-CC-PVTZ-RI
    Molecular point group: c1

    Geometry (in Angstrom), charge = 0, multiplicity = 1:

       Center              X                  Y                   Z               Mass
    ------------   -----------------  -----------------  -----------------  -----------------
         S            0.237730002836    -0.780940517355    -0.010697297223    31.972071174400
         O           -1.172830997164     1.459372482645    -0.016564297223    15.994914619570
         C            1.467231902836     0.556036682645     0.037350802777    12.000000000000
         C            2.884396002836    -0.078614517355    -0.004927297223    12.000000000000
         C           -1.223755997164     0.236805482645    -0.017951297223    12.000000000000
         C           -2.521285997164    -0.536612517355     0.018433702777    12.000000000000
         H            1.319337002836     1.196696482645    -0.813517297223     1.007825032230
         H            1.339883002836     1.119996482645     0.946667702777     1.007825032230
         H            3.055981002836    -0.738348517355     0.849243702777     1.007825032230
         H            3.036790002836    -0.655695517355    -0.920293297223     1.007825032230
         H            3.634710002836     0.716277482645     0.024539702777     1.007825032230
         H           -2.837745997164    -0.643752517355     1.060398702777     1.007825032230
         H           -2.418421997164    -1.531794517355    -0.418958297223     1.007825032230
         H           -3.281074997164     0.034912482645    -0.517639297223     1.007825032230

  Basis Set: AUG-CC-PVTZ
    Blend: AUG-CC-PVTZ
  Basis Set: (AUG-CC-PVTZ AUX)
    Blend: AUG-CC-PVTZ-JKFIT
	 Reference Energy          =    -628.6316976376965613 [Eh]
	 Singles Energy            =      -0.0000000000000000 [Eh]
	 Same-Spin Energy          =      -0.2907065443437889 [Eh]
	 Opposite-Spin Energy      =      -0.9533977897588635 [Eh]
	 Correlation Energy        =      -1.2441043341026523 [Eh]
	 Total Energy              =    -629.8758019717992056 [Eh]

	 ================> DF-SCS-MP2 Energies <==================
	-----------------------------------------------------------
	 SCS Same-Spin Scale       =       0.3333333333333333 [-]
	 SCS Opposite-Spin Scale   =       1.2000000000000000 [-]
	 SCS Same-Spin Energy      =      -0.0969021814479296 [Eh]
	 SCS Opposite-Spin Energy  =      -1.1440773477106361 [Eh]
	 SCS Correlation Energy    =      -1.2409795291585657 [Eh]
	 SCS Total Energy          =    -629.8726771668551692 [Eh]
	-----------------------------------------------------------

  Dipole Moment: [D]
     X:     0.4932      Y:    -1.2279      Z:     0.1004     Total:     1.3270

*** Psi4 exiting successfully. Buy a developer a beer!
