                               Psi4 1.3.2 release

  ==> Input File <==

--------------------------------------------------------------------------
#psi4
#
memory 32 gb

molecule  {
0 1
  S        0.2011420    -0.7740460    -0.0125590
  O       -1.2094190     1.4662670    -0.0184260
  C        1.4989545     0.4967283     0.0354718
  C        2.8478080    -0.0717200    -0.0067890
  C       -1.2603440     0.2437000    -0.0198130
  C       -2.5578740    -0.5297180     0.0165720
  H        1.2827490     1.2035910    -0.8153790
  H        1.3032950     1.1268910     0.9448060
  H        3.0193930    -0.7314540     0.8473820
  H        3.0002020    -0.6488010    -0.9221550
  H        3.5981220     0.7231720     0.0226780
  H       -2.8743340    -0.6368580     1.0585370
  H       -2.4550100    -1.5249000    -0.4208200
  H       -3.3176630     0.0418070    -0.5195010
units angstrom
no_reorient  #important for SAPT in psi4, default
symmetry c1  #important for SAPT in psi4, default
}

set PROPERTIES_ORIGIN ["COM"]
properties('MP2/aug-cc-pvtz', properties = ['dipole'])
--------------------------------------------------------------------------

    Molecular point group: c1
  Charge       = 0
  Multiplicity = 1
  Basis Set: AUG-CC-PVTZ
    Blend: AUG-CC-PVTZ
  Basis Set: (AUG-CC-PVTZ AUX)
    Blend: AUG-CC-PVTZ-JKFIT

    Orbital Energies [Eh]
    ---------------------

    Doubly Occupied:

       1A    -91.968598     2A    -20.554078     3A    -11.365457
       4A    -11.266212     5A    -11.246329     6A    -11.229479
       7A     -8.970375     8A     -6.651528     9A     -6.650481
      10A     -6.649815    11A     -1.389853    12A     -1.092672
      13A     -1.034193    14A     -0.962271    15A     -0.829517
      16A     -0.731732    17A     -0.657206    18A     -0.633693
      19A     -0.630690    20A     -0.609545    21A     -0.582989
      22A     -0.557869    23A     -0.534696    24A     -0.522494
      25A     -0.493875    26A     -0.457278    27A     -0.409211
      28A     -0.367424

  @DF-RHF Final Energy:  -628.62791248263034

   => Energetics <=

    Nuclear Repulsion Energy =            294.1021463788623009
    One-Electron Energy =               -1447.3610036137495172
    Two-Electron Energy =                 524.6309447522569371
    Total Energy =                       -628.6279124826303359
  Basis Set: (AUG-CC-PVTZ AUX)
    Blend: AUG-CC-PVTZ-RI
    Molecular point group: c1

    Geometry (in Angstrom), charge = 0, multiplicity = 1:

       Center              X                  Y                   Z               Mass
    ------------   -----------------  -----------------  -----------------  -----------------
         S            0.229850252169    -0.773303893677    -0.010695301637    31.972071174400
         O           -1.180710747831     1.467009106323    -0.016562301637    15.994914619570
         C            1.527662752169     0.497470406323     0.037335498363    12.000000000000
         C            2.876516252169    -0.070977893677    -0.004925301637    12.000000000000
         C           -1.231635747831     0.244442106323    -0.017949301637    12.000000000000
         C           -2.529165747831    -0.528975893677     0.018435698363    12.000000000000
         H            1.311457252169     1.204333106323    -0.813515301637     1.007825032230
         H            1.332003252169     1.127633106323     0.946669698363     1.007825032230
         H            3.048101252169    -0.730711893677     0.849245698363     1.007825032230
         H            3.028910252169    -0.648058893677    -0.920291301637     1.007825032230
         H            3.626830252169     0.723914106323     0.024541698363     1.007825032230
         H           -2.845625747831    -0.636115893677     1.060400698363     1.007825032230
         H           -2.426301747831    -1.524157893677    -0.418956301637     1.007825032230
         H           -3.288954747831     0.042549106323    -0.517637301637     1.007825032230

  Basis Set: AUG-CC-PVTZ
    Blend: AUG-CC-PVTZ
  Basis Set: (AUG-CC-PVTZ AUX)
    Blend: AUG-CC-PVTZ-JKFIT
	 Reference Energy          =    -628.6279124826303359 [Eh]
	 Singles Energy            =      -0.0000000000000000 [Eh]
	 Same-Spin Energy          =      -0.2912850258737579 [Eh]
	 Opposite-Spin Energy      =      -0.9537838055878344 [Eh]
	 Correlation Energy        =      -1.2450688314615923 [Eh]
	 Total Energy              =    -629.8729813140919305 [Eh]

	 ================> DF-SCS-MP2 Energies <==================
	-----------------------------------------------------------
	 SCS Same-Spin Scale       =       0.3333333333333333 [-]
	 SCS Opposite-Spin Scale   =       1.2000000000000000 [-]
	 SCS Same-Spin Energy      =      -0.0970950086245860 [Eh]
	 SCS Opposite-Spin Energy  =      -1.1445405667054012 [Eh]
	 SCS Correlation Energy    =      -1.2416355753299873 [Eh]
	 SCS Total Energy          =    -629.8695480579602872 [Eh]
	-----------------------------------------------------------

  Dipole Moment: [D]
     X:     0.5394      Y:    -1.2119      Z:     0.0997     Total:     1.3303

*** Psi4 exiting successfully. Buy a developer a beer!
