                               Psi4 1.3.2 release

  ==> Input File <==

--------------------------------------------------------------------------
#psi4
#
memory 32 gb

molecule  {
0 1
  S        0.0867764    -0.9211655    -0.0073359
  O       -1.2094190     1.4662670    -0.0184260
  C        1.4537980     0.5412620     0.0354980
  C        2.8478080    -0.0717200    -0.0067890
  C       -1.2603440     0.2437000    -0.0198130
  C       -2.5578740    -0.5297180     0.0165720
  H        1.2827490     1.2035910    -0.8153790
  H        1.3032950     1.1268910     0.9448060
  H        3.0193930    -0.7314540     0.8473820
  H        3.0002020    -0.6488010    -0.9221550
  H        3.5981220     0.7231720     0.0226780
  H       -2.8743340    -0.6368580     1.0585370
  H       -2.4550100    -1.5249000    -0.4208200
  H       -3.3176630     0.0418070    -0.5195010
units angstrom
no_reorient  #important for SAPT in psi4, default
symmetry c1  #important for SAPT in psi4, default
}

set PROPERTIES_ORIGIN ["COM"]
properties('MP2/aug-cc-pvtz', properties = ['dipole'])
--------------------------------------------------------------------------

    Molecular point group: c1
  Charge       = 0
  Multiplicity = 1
  Basis Set: AUG-CC-PVTZ
    Blend: AUG-CC-PVTZ
  Basis Set: (AUG-CC-PVTZ AUX)
    Blend: AUG-CC-PVTZ-JKFIT

    Orbital Energies [Eh]
    ---------------------

    Doubly Occupied:

       1A    -91.974498     2A    -20.555117     3A    -11.363925
       4A    -11.279371     5A    -11.239828     6A    -11.231988
       7A     -8.974060     8A     -6.655059     9A     -6.653721
      10A     -6.653260    11A     -1.388170    12A     -1.068657
      13A     -1.031816    14A     -0.950223    15A     -0.835858
      16A     -0.730367    17A     -0.643752    18A     -0.632061
      19A     -0.627980    20A     -0.607299    21A     -0.575841
      22A     -0.557260    23A     -0.524258    24A     -0.520954
      25A     -0.501896    26A     -0.438294    27A     -0.408277
      28A     -0.376615

  @DF-RHF Final Energy:  -628.61646626301660

   => Energetics <=

    Nuclear Repulsion Energy =            289.9537055119941442
    One-Electron Energy =               -1439.1395390113445956
    Two-Electron Energy =                 520.5693672363337328
    Total Energy =                       -628.6164662630166049
  Basis Set: (AUG-CC-PVTZ AUX)
    Blend: AUG-CC-PVTZ-RI
    Molecular point group: c1

    Geometry (in Angstrom), charge = 0, multiplicity = 1:

       Center              X                  Y                   Z               Mass
    ------------   -----------------  -----------------  -----------------  -----------------
         S            0.155842239491    -0.880345268950    -0.007080472238    31.972071174400
         O           -1.140353160509     1.507087231050    -0.018170572238    15.994914619570
         C            1.522863839491     0.582082231050     0.035753427762    12.000000000000
         C            2.916873839491    -0.030899768950    -0.006533572238    12.000000000000
         C           -1.191278160509     0.284520231050    -0.019557572238    12.000000000000
         C           -2.488808160509    -0.488897768950     0.016827427762    12.000000000000
         H            1.351814839491     1.244411231050    -0.815123572238     1.007825032230
         H            1.372360839491     1.167711231050     0.945061427762     1.007825032230
         H            3.088458839491    -0.690633768950     0.847637427762     1.007825032230
         H            3.069267839491    -0.607980768950    -0.921899572238     1.007825032230
         H            3.667187839491     0.763992231050     0.022933427762     1.007825032230
         H           -2.805268160509    -0.596037768950     1.058792427762     1.007825032230
         H           -2.385944160509    -1.484079768950    -0.420564572238     1.007825032230
         H           -3.248597160509     0.082627231050    -0.519245572238     1.007825032230

  Basis Set: AUG-CC-PVTZ
    Blend: AUG-CC-PVTZ
  Basis Set: (AUG-CC-PVTZ AUX)
    Blend: AUG-CC-PVTZ-JKFIT
	 Reference Energy          =    -628.6164662630166049 [Eh]
	 Singles Energy            =      -0.0000000000000000 [Eh]
	 Same-Spin Energy          =      -0.2905640944686242 [Eh]
	 Opposite-Spin Energy      =      -0.9555176516472854 [Eh]
	 Correlation Energy        =      -1.2460817461159097 [Eh]
	 Total Energy              =    -629.8625480091325244 [Eh]

	 ================> DF-SCS-MP2 Energies <==================
	-----------------------------------------------------------
	 SCS Same-Spin Scale       =       0.3333333333333333 [-]
	 SCS Opposite-Spin Scale   =       1.2000000000000000 [-]
	 SCS Same-Spin Energy      =      -0.0968546981562081 [Eh]
	 SCS Opposite-Spin Energy  =      -1.1466211819767425 [Eh]
	 SCS Correlation Energy    =      -1.2434758801329506 [Eh]
	 SCS Total Energy          =    -629.8599421431495102 [Eh]
	-----------------------------------------------------------

  Dipole Moment: [D]
     X:     0.6666      Y:    -1.1889      Z:     0.0989     Total:     1.3666

*** Psi4 exiting successfully. Buy a developer a beer!
