                               Psi4 1.3.2 release

  ==> Input File <==

--------------------------------------------------------------------------
#psi4
#
memory 32 gb

molecule  {
0 1
  S        0.2011420    -0.7740460    -0.0125590
  O       -1.2094190     1.4662670    -0.0184260
  C        1.4537980     0.5412620     0.0354980
  C        2.8478080    -0.0717200    -0.0067890
  C       -1.2724106     0.2640427    -0.0081502
  C       -2.5578740    -0.5297180     0.0165720
  H        1.2827490     1.2035910    -0.8153790
  H        1.3032950     1.1268910     0.9448060
  H        3.0193930    -0.7314540     0.8473820
  H        3.0002020    -0.6488010    -0.9221550
  H        3.5981220     0.7231720     0.0226780
  H       -2.8743340    -0.6368580     1.0585370
  H       -2.4550100    -1.5249000    -0.4208200
  H       -3.3176630     0.0418070    -0.5195010
units angstrom
no_reorient  #important for SAPT in psi4, default
symmetry c1  #important for SAPT in psi4, default
}

set PROPERTIES_ORIGIN ["COM"]
properties('MP2/aug-cc-pvtz', properties = ['dipole'])
--------------------------------------------------------------------------

    Molecular point group: c1
  Charge       = 0
  Multiplicity = 1
  Basis Set: AUG-CC-PVTZ
    Blend: AUG-CC-PVTZ
  Basis Set: (AUG-CC-PVTZ AUX)
    Blend: AUG-CC-PVTZ-JKFIT

    Orbital Energies [Eh]
    ---------------------

    Doubly Occupied:

       1A    -91.965461     2A    -20.557684     3A    -11.364340
       4A    -11.261395     5A    -11.246040     6A    -11.230369
       7A     -8.966991     8A     -6.648117     9A     -6.647033
      10A     -6.646378    11A     -1.405201    12A     -1.083806
      13A     -1.030345    14A     -0.954693    15A     -0.832960
      16A     -0.733668    17A     -0.657258    18A     -0.636406
      19A     -0.635229    20A     -0.611343    21A     -0.576812
      22A     -0.556556    23A     -0.528645    24A     -0.520541
      25A     -0.505451    26A     -0.460619    27A     -0.405694
      28A     -0.367700

  @DF-RHF Final Energy:  -628.63386451661734

   => Energetics <=

    Nuclear Repulsion Energy =            293.9440421973720277
    One-Electron Energy =               -1447.0823445929186164
    Two-Electron Energy =                 524.5044378789292523
    Total Energy =                       -628.6338645166173364
  Basis Set: (AUG-CC-PVTZ AUX)
    Blend: AUG-CC-PVTZ-RI
    Molecular point group: c1

    Geometry (in Angstrom), charge = 0, multiplicity = 1:

       Center              X                  Y                   Z               Mass
    ------------   -----------------  -----------------  -----------------  -----------------
         S            0.236451039753    -0.780787503192    -0.012043648826    31.972071174400
         O           -1.174109960247     1.459525496808    -0.017910648826    15.994914619570
         C            1.489107039753     0.534520496808     0.036013351174    12.000000000000
         C            2.883117039753    -0.078461503192    -0.006273648826    12.000000000000
         C           -1.237101560247     0.257301196808    -0.007634848826    12.000000000000
         C           -2.522564960247    -0.536459503192     0.017087351174    12.000000000000
         H            1.318058039753     1.196849496808    -0.814863648826     1.007825032230
         H            1.338604039753     1.120149496808     0.945321351174     1.007825032230
         H            3.054702039753    -0.738195503192     0.847897351174     1.007825032230
         H            3.035511039753    -0.655542503192    -0.921639648826     1.007825032230
         H            3.633431039753     0.716430496808     0.023193351174     1.007825032230
         H           -2.839024960247    -0.643599503192     1.059052351174     1.007825032230
         H           -2.419700960247    -1.531641503192    -0.420304648826     1.007825032230
         H           -3.282353960247     0.035065496808    -0.518985648826     1.007825032230

  Basis Set: AUG-CC-PVTZ
    Blend: AUG-CC-PVTZ
  Basis Set: (AUG-CC-PVTZ AUX)
    Blend: AUG-CC-PVTZ-JKFIT
	 Reference Energy          =    -628.6338645166173364 [Eh]
	 Singles Energy            =      -0.0000000000000000 [Eh]
	 Same-Spin Energy          =      -0.2903238440214532 [Eh]
	 Opposite-Spin Energy      =      -0.9524139887428844 [Eh]
	 Correlation Energy        =      -1.2427378327643375 [Eh]
	 Total Energy              =    -629.8766023493816419 [Eh]

	 ================> DF-SCS-MP2 Energies <==================
	-----------------------------------------------------------
	 SCS Same-Spin Scale       =       0.3333333333333333 [-]
	 SCS Opposite-Spin Scale   =       1.2000000000000000 [-]
	 SCS Same-Spin Energy      =      -0.0967746146738177 [Eh]
	 SCS Opposite-Spin Energy  =      -1.1428967864914612 [Eh]
	 SCS Correlation Energy    =      -1.2396714011652790 [Eh]
	 SCS Total Energy          =    -629.8735359177826467 [Eh]
	-----------------------------------------------------------

  Dipole Moment: [D]
     X:     0.3369      Y:    -1.0899      Z:     0.1025     Total:     1.1454

*** Psi4 exiting successfully. Buy a developer a beer!
