                               Psi4 1.3.2 release

  ==> Input File <==

--------------------------------------------------------------------------
#psi4
#
memory 32 gb

molecule  {
0 1
  S        0.1123898    -0.6835920    -0.0074952
  O       -1.2094190     1.4662670    -0.0184260
  C        1.4537980     0.5412620     0.0354980
  C        2.8478080    -0.0717200    -0.0067890
  C       -1.2603440     0.2437000    -0.0198130
  C       -2.5578740    -0.5297180     0.0165720
  H        1.2827490     1.2035910    -0.8153790
  H        1.3032950     1.1268910     0.9448060
  H        3.0193930    -0.7314540     0.8473820
  H        3.0002020    -0.6488010    -0.9221550
  H        3.5981220     0.7231720     0.0226780
  H       -2.8743340    -0.6368580     1.0585370
  H       -2.4550100    -1.5249000    -0.4208200
  H       -3.3176630     0.0418070    -0.5195010
units angstrom
no_reorient  #important for SAPT in psi4, default
symmetry c1  #important for SAPT in psi4, default
}

set PROPERTIES_ORIGIN ["COM"]
properties('MP2/aug-cc-pvtz', properties = ['dipole'])
--------------------------------------------------------------------------

    Molecular point group: c1
  Charge       = 0
  Multiplicity = 1
  Basis Set: AUG-CC-PVTZ
    Blend: AUG-CC-PVTZ
  Basis Set: (AUG-CC-PVTZ AUX)
    Blend: AUG-CC-PVTZ-JKFIT

    Orbital Energies [Eh]
    ---------------------

    Doubly Occupied:

       1A    -91.966783     2A    -20.539140     3A    -11.350167
       4A    -11.266317     5A    -11.242243     6A    -11.236227
       7A     -8.971879     8A     -6.653315     9A     -6.651914
      10A     -6.651308    11A     -1.383746    12A     -1.099582
      13A     -1.036615    14A     -0.969216    15A     -0.847379
      16A     -0.724617    17A     -0.655831    18A     -0.640394
      19A     -0.629666    20A     -0.608752    21A     -0.576680
      22A     -0.555506    23A     -0.530906    24A     -0.527284
      25A     -0.501081    26A     -0.458019    27A     -0.410053
      28A     -0.371809

  @DF-RHF Final Energy:  -628.62644714924181

   => Energetics <=

    Nuclear Repulsion Energy =            297.7177538962244512
    One-Electron Energy =               -1454.5755472300240854
    Two-Electron Energy =                 528.2313461845578786
    Total Energy =                       -628.6264471492418124
  Basis Set: (AUG-CC-PVTZ AUX)
    Blend: AUG-CC-PVTZ-RI
    Molecular point group: c1

    Geometry (in Angstrom), charge = 0, multiplicity = 1:

       Center              X                  Y                   Z               Mass
    ------------   -----------------  -----------------  -----------------  -----------------
         S            0.173583711139    -0.715786736513    -0.007190813561    31.972071174400
         O           -1.148225088861     1.434072263487    -0.018121613561    15.994914619570
         C            1.514991911139     0.509067263487     0.035802386439    12.000000000000
         C            2.909001911139    -0.103914736513    -0.006484613561    12.000000000000
         C           -1.199150088861     0.211505263487    -0.019508613561    12.000000000000
         C           -2.496680088861    -0.561912736513     0.016876386439    12.000000000000
         H            1.343942911139     1.171396263487    -0.815074613561     1.007825032230
         H            1.364488911139     1.094696263487     0.945110386439     1.007825032230
         H            3.080586911139    -0.763648736513     0.847686386439     1.007825032230
         H            3.061395911139    -0.680995736513    -0.921850613561     1.007825032230
         H            3.659315911139     0.690977263487     0.022982386439     1.007825032230
         H           -2.813140088861    -0.669052736513     1.058841386439     1.007825032230
         H           -2.393816088861    -1.557094736513    -0.420515613561     1.007825032230
         H           -3.256469088861     0.009612263487    -0.519196613561     1.007825032230

  Basis Set: AUG-CC-PVTZ
    Blend: AUG-CC-PVTZ
  Basis Set: (AUG-CC-PVTZ AUX)
    Blend: AUG-CC-PVTZ-JKFIT
	 Reference Energy          =    -628.6264471492418124 [Eh]
	 Singles Energy            =      -0.0000000000000000 [Eh]
	 Same-Spin Energy          =      -0.2913558037991466 [Eh]
	 Opposite-Spin Energy      =      -0.9523430469159077 [Eh]
	 Correlation Energy        =      -1.2436988507150541 [Eh]
	 Total Energy              =    -629.8701459999568897 [Eh]

	 ================> DF-SCS-MP2 Energies <==================
	-----------------------------------------------------------
	 SCS Same-Spin Scale       =       0.3333333333333333 [-]
	 SCS Opposite-Spin Scale   =       1.2000000000000000 [-]
	 SCS Same-Spin Energy      =      -0.0971186012663822 [Eh]
	 SCS Opposite-Spin Energy  =      -1.1428116562990891 [Eh]
	 SCS Correlation Energy    =      -1.2399302575654714 [Eh]
	 SCS Total Energy          =    -629.8663774068072598 [Eh]
	-----------------------------------------------------------

  Dipole Moment: [D]
     X:     1.0034      Y:    -1.4540      Z:     0.0952     Total:     1.7692

*** Psi4 exiting successfully. Buy a developer a beer!
