                               Psi4 1.3.2 release

  ==> Input File <==

--------------------------------------------------------------------------
#psi4
#
memory 32 gb

molecule  {
0 1
  S        0.2011420    -0.7740460    -0.0125590
  O       -1.2094190     1.4662670    -0.0184260
  C        1.3848571     0.4688730     0.0328531
  C        2.8478080    -0.0717200    -0.0067890
  C       -1.2603440     0.2437000    -0.0198130
  C       -2.5578740    -0.5297180     0.0165720
  H        1.2827490     1.2035910    -0.8153790
  H        1.3032950     1.1268910     0.9448060
  H        3.0193930    -0.7314540     0.8473820
  H        3.0002020    -0.6488010    -0.9221550
  H        3.5981220     0.7231720     0.0226780
  H       -2.8743340    -0.6368580     1.0585370
  H       -2.4550100    -1.5249000    -0.4208200
  H       -3.3176630     0.0418070    -0.5195010
units angstrom
no_reorient  #important for SAPT in psi4, default
symmetry c1  #important for SAPT in psi4, default
}

set PROPERTIES_ORIGIN ["COM"]
properties('MP2/aug-cc-pvtz', properties = ['dipole'])
--------------------------------------------------------------------------

    Molecular point group: c1
  Charge       = 0
  Multiplicity = 1
  Basis Set: AUG-CC-PVTZ
    Blend: AUG-CC-PVTZ
  Basis Set: (AUG-CC-PVTZ AUX)
    Blend: AUG-CC-PVTZ-JKFIT

    Orbital Energies [Eh]
    ---------------------

    Doubly Occupied:

       1A    -91.971063     2A    -20.555934     3A    -11.365656
       4A    -11.261810     5A    -11.247027     6A    -11.232963
       7A     -8.974253     8A     -6.655562     9A     -6.654404
      10A     -6.653624    11A     -1.391444    12A     -1.097669
      13A     -1.029512    14A     -0.959772    15A     -0.829969
      16A     -0.734026    17A     -0.662262    18A     -0.632120
      19A     -0.628437    20A     -0.607292    21A     -0.578121
      22A     -0.552060    23A     -0.526223    24A     -0.509635
      25A     -0.496232    26A     -0.479851    27A     -0.410868
      28A     -0.367574

  @DF-RHF Final Energy:  -628.62283662240998

   => Energetics <=

    Nuclear Repulsion Energy =            295.5434549499063337
    One-Electron Energy =               -1450.2018532116187544
    Two-Electron Energy =                 526.0355616393023865
    Total Energy =                       -628.6228366224099773
  Basis Set: (AUG-CC-PVTZ AUX)
    Blend: AUG-CC-PVTZ-RI
    Molecular point group: c1

    Geometry (in Angstrom), charge = 0, multiplicity = 1:

       Center              X                  Y                   Z               Mass
    ------------   -----------------  -----------------  -----------------  -----------------
         S            0.243011592630    -0.770090734684    -0.010393229878    31.972071174400
         O           -1.167549407370     1.470222265316    -0.016260229878    15.994914619570
         C            1.426726692630     0.472828265316     0.035018870122    12.000000000000
         C            2.889677592630    -0.067764734684    -0.004623229878    12.000000000000
         C           -1.218474407370     0.247655265316    -0.017647229878    12.000000000000
         C           -2.516004407370    -0.525762734684     0.018737770122    12.000000000000
         H            1.324618592630     1.207546265316    -0.813213229878     1.007825032230
         H            1.345164592630     1.130846265316     0.946971770122     1.007825032230
         H            3.061262592630    -0.727498734684     0.849547770122     1.007825032230
         H            3.042071592630    -0.644845734684    -0.919989229878     1.007825032230
         H            3.639991592630     0.727127265316     0.024843770122     1.007825032230
         H           -2.832464407370    -0.632902734684     1.060702770122     1.007825032230
         H           -2.413140407370    -1.520944734684    -0.418654229878     1.007825032230
         H           -3.275793407370     0.045762265316    -0.517335229878     1.007825032230

  Basis Set: AUG-CC-PVTZ
    Blend: AUG-CC-PVTZ
  Basis Set: (AUG-CC-PVTZ AUX)
    Blend: AUG-CC-PVTZ-JKFIT
	 Reference Energy          =    -628.6228366224099773 [Eh]
	 Singles Energy            =      -0.0000000000000000 [Eh]
	 Same-Spin Energy          =      -0.2917606522018661 [Eh]
	 Opposite-Spin Energy      =      -0.9544970044798051 [Eh]
	 Correlation Energy        =      -1.2462576566816712 [Eh]
	 Total Energy              =    -629.8690942790916552 [Eh]

	 ================> DF-SCS-MP2 Energies <==================
	-----------------------------------------------------------
	 SCS Same-Spin Scale       =       0.3333333333333333 [-]
	 SCS Opposite-Spin Scale   =       1.2000000000000000 [-]
	 SCS Same-Spin Energy      =      -0.0972535507339554 [Eh]
	 SCS Opposite-Spin Energy  =      -1.1453964053757661 [Eh]
	 SCS Correlation Energy    =      -1.2426499561097215 [Eh]
	 SCS Total Energy          =    -629.8654865785197217 [Eh]
	-----------------------------------------------------------

  Dipole Moment: [D]
     X:     0.3735      Y:    -1.2831      Z:     0.0958     Total:     1.3398

*** Psi4 exiting successfully. Buy a developer a beer!
