                               Psi4 1.3.2 release

  ==> Input File <==

--------------------------------------------------------------------------
#psi4
#
memory 32 gb

molecule  {
0 1
  S        0.3455698    -0.8975827    -0.0197084
  O       -1.2094190     1.4662670    -0.0184260
  C        1.4537980     0.5412620     0.0354980
  C        2.8478080    -0.0717200    -0.0067890
  C       -1.2603440     0.2437000    -0.0198130
  C       -2.5578740    -0.5297180     0.0165720
  H        1.2827490     1.2035910    -0.8153790
  H        1.3032950     1.1268910     0.9448060
  H        3.0193930    -0.7314540     0.8473820
  H        3.0002020    -0.6488010    -0.9221550
  H        3.5981220     0.7231720     0.0226780
  H       -2.8743340    -0.6368580     1.0585370
  H       -2.4550100    -1.5249000    -0.4208200
  H       -3.3176630     0.0418070    -0.5195010
units angstrom
no_reorient  #important for SAPT in psi4, default
symmetry c1  #important for SAPT in psi4, default
}

set PROPERTIES_ORIGIN ["COM"]
properties('MP2/aug-cc-pvtz', properties = ['dipole'])
--------------------------------------------------------------------------

    Molecular point group: c1
  Charge       = 0
  Multiplicity = 1
  Basis Set: AUG-CC-PVTZ
    Blend: AUG-CC-PVTZ
  Basis Set: (AUG-CC-PVTZ AUX)
    Blend: AUG-CC-PVTZ-JKFIT

    Orbital Energies [Eh]
    ---------------------

    Doubly Occupied:

       1A    -91.969413     2A    -20.572660     3A    -11.381699
       4A    -11.258430     5A    -11.251652     6A    -11.225416
       7A     -8.968218     8A     -6.649140     9A     -6.648021
      10A     -6.647346    11A     -1.399745    12A     -1.076475
      13A     -1.027491    14A     -0.937518    15A     -0.821443
      16A     -0.743082    17A     -0.652449    18A     -0.633697
      19A     -0.631627    20A     -0.611534    21A     -0.578566
      22A     -0.553538    23A     -0.524430    24A     -0.513825
      25A     -0.503479    26A     -0.461864    27A     -0.397870
      28A     -0.365430

  @DF-RHF Final Energy:  -628.61468157976924

   => Energetics <=

    Nuclear Repulsion Energy =            289.2214596998274487
    One-Electron Energy =               -1437.6601679000218610
    Two-Electron Energy =                 519.8240266204252293
    Total Energy =                       -628.6146815797692398
  Basis Set: (AUG-CC-PVTZ AUX)
    Blend: AUG-CC-PVTZ-RI
    Molecular point group: c1

    Geometry (in Angstrom), charge = 0, multiplicity = 1:

       Center              X                  Y                   Z               Mass
    ------------   -----------------  -----------------  -----------------  -----------------
         S            0.335099025742    -0.864010320150    -0.015650453497    31.972071174400
         O           -1.219889774258     1.499839379850    -0.014368053497    15.994914619570
         C            1.443327225742     0.574834379850     0.039555946503    12.000000000000
         C            2.837337225742    -0.038147620150    -0.002731053497    12.000000000000
         C           -1.270814774258     0.277272379850    -0.015755053497    12.000000000000
         C           -2.568344774258    -0.496145620150     0.020629946503    12.000000000000
         H            1.272278225742     1.237163379850    -0.811321053497     1.007825032230
         H            1.292824225742     1.160463379850     0.948863946503     1.007825032230
         H            3.008922225742    -0.697881620150     0.851439946503     1.007825032230
         H            2.989731225742    -0.615228620150    -0.918097053497     1.007825032230
         H            3.587651225742     0.756744379850     0.026735946503     1.007825032230
         H           -2.884804774258    -0.603285620150     1.062594946503     1.007825032230
         H           -2.465480774258    -1.491327620150    -0.416762053497     1.007825032230
         H           -3.328133774258     0.075379379850    -0.515443053497     1.007825032230

  Basis Set: AUG-CC-PVTZ
    Blend: AUG-CC-PVTZ
  Basis Set: (AUG-CC-PVTZ AUX)
    Blend: AUG-CC-PVTZ-JKFIT
	 Reference Energy          =    -628.6146815797692398 [Eh]
	 Singles Energy            =      -0.0000000000000000 [Eh]
	 Same-Spin Energy          =      -0.2914206756314137 [Eh]
	 Opposite-Spin Energy      =      -0.9573046713632518 [Eh]
	 Correlation Energy        =      -1.2487253469946655 [Eh]
	 Total Energy              =    -629.8634069267639006 [Eh]

	 ================> DF-SCS-MP2 Energies <==================
	-----------------------------------------------------------
	 SCS Same-Spin Scale       =       0.3333333333333333 [-]
	 SCS Opposite-Spin Scale   =       1.2000000000000000 [-]
	 SCS Same-Spin Energy      =      -0.0971402252104712 [Eh]
	 SCS Opposite-Spin Energy  =      -1.1487656056359021 [Eh]
	 SCS Correlation Energy    =      -1.2459058308463733 [Eh]
	 SCS Total Energy          =    -629.8605874106156080 [Eh]
	-----------------------------------------------------------

  Dipole Moment: [D]
     X:    -0.2977      Y:    -0.8359      Z:     0.1079     Total:     0.8939

*** Psi4 exiting successfully. Buy a developer a beer!
