                               Psi4 1.3.2 release

  ==> Input File <==

--------------------------------------------------------------------------
#psi4
#
memory 32 gb

molecule  {
0 1
  S        0.1783644    -0.7520165    -0.0113140
  O       -1.2094190     1.4662670    -0.0184260
  C        1.4537980     0.5412620     0.0354980
  C        2.8478080    -0.0717200    -0.0067890
  C       -1.2603440     0.2437000    -0.0198130
  C       -2.5578740    -0.5297180     0.0165720
  H        1.2827490     1.2035910    -0.8153790
  H        1.3032950     1.1268910     0.9448060
  H        3.0193930    -0.7314540     0.8473820
  H        3.0002020    -0.6488010    -0.9221550
  H        3.5981220     0.7231720     0.0226780
  H       -2.8743340    -0.6368580     1.0585370
  H       -2.4550100    -1.5249000    -0.4208200
  H       -3.3176630     0.0418070    -0.5195010
units angstrom
no_reorient  #important for SAPT in psi4, default
symmetry c1  #important for SAPT in psi4, default
}

set PROPERTIES_ORIGIN ["COM"]
properties('MP2/aug-cc-pvtz', properties = ['dipole'])
--------------------------------------------------------------------------

    Molecular point group: c1
  Charge       = 0
  Multiplicity = 1
  Basis Set: AUG-CC-PVTZ
    Blend: AUG-CC-PVTZ
  Basis Set: (AUG-CC-PVTZ AUX)
    Blend: AUG-CC-PVTZ-JKFIT

    Orbital Energies [Eh]
    ---------------------

    Doubly Occupied:

       1A    -91.968577     2A    -20.550257     3A    -11.361085
       4A    -11.263751     5A    -11.244690     6A    -11.232741
       7A     -8.971016     8A     -6.652231     9A     -6.651072
      10A     -6.650443    11A     -1.388040    12A     -1.089543
      13A     -1.031939    14A     -0.960959    15A     -0.838394
      16A     -0.730316    17A     -0.655418    18A     -0.637220
      19A     -0.629916    20A     -0.608770    21A     -0.577128
      22A     -0.555182    23A     -0.527571    24A     -0.521630
      25A     -0.501390    26A     -0.461647    27A     -0.409901
      28A     -0.370597

  @DF-RHF Final Energy:  -628.63273254752085

   => Energetics <=

    Nuclear Repulsion Energy =            294.8823150366183654
    One-Electron Energy =               -1448.9472445495744068
    Two-Electron Energy =                 525.4321969654351960
    Total Energy =                       -628.6327325475208454
  Basis Set: (AUG-CC-PVTZ AUX)
    Blend: AUG-CC-PVTZ-RI
    Molecular point group: c1

    Geometry (in Angstrom), charge = 0, multiplicity = 1:

       Center              X                  Y                   Z               Mass
    ------------   -----------------  -----------------  -----------------  -----------------
         S            0.219281919711    -0.763181901810    -0.009835957585    31.972071174400
         O           -1.168501480289     1.455101598190    -0.016947957585    15.994914619570
         C            1.494715519711     0.530096598190     0.036976042415    12.000000000000
         C            2.888725519711    -0.082885401810    -0.005310957585    12.000000000000
         C           -1.219426480289     0.232534598190    -0.018334957585    12.000000000000
         C           -2.516956480289    -0.540883401810     0.018050042415    12.000000000000
         H            1.323666519711     1.192425598190    -0.813900957585     1.007825032230
         H            1.344212519711     1.115725598190     0.946284042415     1.007825032230
         H            3.060310519711    -0.742619401810     0.848860042415     1.007825032230
         H            3.041119519711    -0.659966401810    -0.920676957585     1.007825032230
         H            3.639039519711     0.712006598190     0.024156042415     1.007825032230
         H           -2.833416480289    -0.648023401810     1.060015042415     1.007825032230
         H           -2.414092480289    -1.536065401810    -0.419341957585     1.007825032230
         H           -3.276745480289     0.030641598190    -0.518022957585     1.007825032230

  Basis Set: AUG-CC-PVTZ
    Blend: AUG-CC-PVTZ
  Basis Set: (AUG-CC-PVTZ AUX)
    Blend: AUG-CC-PVTZ-JKFIT
	 Reference Energy          =    -628.6327325475208454 [Eh]
	 Singles Energy            =      -0.0000000000000000 [Eh]
	 Same-Spin Energy          =      -0.2908853319246814 [Eh]
	 Opposite-Spin Energy      =      -0.9529999874447894 [Eh]
	 Correlation Energy        =      -1.2438853193694708 [Eh]
	 Total Energy              =    -629.8766178668903422 [Eh]

	 ================> DF-SCS-MP2 Energies <==================
	-----------------------------------------------------------
	 SCS Same-Spin Scale       =       0.3333333333333333 [-]
	 SCS Opposite-Spin Scale   =       1.2000000000000000 [-]
	 SCS Same-Spin Energy      =      -0.0969617773082271 [Eh]
	 SCS Opposite-Spin Energy  =      -1.1435999849337473 [Eh]
	 SCS Correlation Energy    =      -1.2405617622419745 [Eh]
	 SCS Total Energy          =    -629.8732943097628549 [Eh]
	-----------------------------------------------------------

  Dipole Moment: [D]
     X:     0.6372      Y:    -1.2820      Z:     0.0989     Total:     1.4350

*** Psi4 exiting successfully. Buy a developer a beer!
