                               Psi4 1.3.2 release

  ==> Input File <==

--------------------------------------------------------------------------
#psi4
#
memory 32 gb

molecule  {
0 1
  S        0.2186775    -0.7483966    -0.0134388
  O       -1.2094190     1.4662670    -0.0184260
  C        1.4537980     0.5412620     0.0354980
  C        2.8478080    -0.0717200    -0.0067890
  C       -1.2603440     0.2437000    -0.0198130
  C       -2.5578740    -0.5297180     0.0165720
  H        1.2827490     1.2035910    -0.8153790
  H        1.3032950     1.1268910     0.9448060
  H        3.0193930    -0.7314540     0.8473820
  H        3.0002020    -0.6488010    -0.9221550
  H        3.5981220     0.7231720     0.0226780
  H       -2.8743340    -0.6368580     1.0585370
  H       -2.4550100    -1.5249000    -0.4208200
  H       -3.3176630     0.0418070    -0.5195010
units angstrom
no_reorient  #important for SAPT in psi4, default
symmetry c1  #important for SAPT in psi4, default
}

set PROPERTIES_ORIGIN ["COM"]
properties('MP2/aug-cc-pvtz', properties = ['dipole'])
--------------------------------------------------------------------------

    Molecular point group: c1
  Charge       = 0
  Multiplicity = 1
  Basis Set: AUG-CC-PVTZ
    Blend: AUG-CC-PVTZ
  Basis Set: (AUG-CC-PVTZ AUX)
    Blend: AUG-CC-PVTZ-JKFIT

    Orbital Energies [Eh]
    ---------------------

    Doubly Occupied:

       1A    -91.967443     2A    -20.553373     3A    -11.364399
       4A    -11.260339     5A    -11.246461     6A    -11.231912
       7A     -8.969708     8A     -6.650899     9A     -6.649811
      10A     -6.649128    11A     -1.389822    12A     -1.091482
      13A     -1.030590    14A     -0.958889    15A     -0.835932
      16A     -0.732402    17A     -0.657186    18A     -0.637635
      19A     -0.630443    20A     -0.609253    21A     -0.577790
      22A     -0.554660    23A     -0.527489    24A     -0.520439
      25A     -0.501817    26A     -0.465715    27A     -0.408479
      28A     -0.368251

  @DF-RHF Final Energy:  -628.63234002062336

   => Energetics <=

    Nuclear Repulsion Energy =            294.7414310756363420
    One-Electron Energy =               -1448.6640441780004949
    Two-Electron Energy =                 525.2902730817409065
    Total Energy =                       -628.6323400206233600
  Basis Set: (AUG-CC-PVTZ AUX)
    Blend: AUG-CC-PVTZ-RI
    Molecular point group: c1

    Geometry (in Angstrom), charge = 0, multiplicity = 1:

       Center              X                  Y                   Z               Mass
    ------------   -----------------  -----------------  -----------------  -----------------
         S            0.247205339512    -0.760674528590    -0.011307729351    31.972071174400
         O           -1.180891160488     1.453989071410    -0.016294929351    15.994914619570
         C            1.482325839512     0.528984071410     0.037629070649    12.000000000000
         C            2.876335839512    -0.083997928590    -0.004657929351    12.000000000000
         C           -1.231816160488     0.231422071410    -0.017681929351    12.000000000000
         C           -2.529346160488    -0.541995928590     0.018703070649    12.000000000000
         H            1.311276839512     1.191313071410    -0.813247929351     1.007825032230
         H            1.331822839512     1.114613071410     0.946937070649     1.007825032230
         H            3.047920839512    -0.743731928590     0.849513070649     1.007825032230
         H            3.028729839512    -0.661078928590    -0.920023929351     1.007825032230
         H            3.626649839512     0.710894071410     0.024809070649     1.007825032230
         H           -2.845806160488    -0.649135928590     1.060668070649     1.007825032230
         H           -2.426482160488    -1.537177928590    -0.418688929351     1.007825032230
         H           -3.289135160488     0.029529071410    -0.517369929351     1.007825032230

  Basis Set: AUG-CC-PVTZ
    Blend: AUG-CC-PVTZ
  Basis Set: (AUG-CC-PVTZ AUX)
    Blend: AUG-CC-PVTZ-JKFIT
	 Reference Energy          =    -628.6323400206233600 [Eh]
	 Singles Energy            =      -0.0000000000000000 [Eh]
	 Same-Spin Energy          =      -0.2909829078593429 [Eh]
	 Opposite-Spin Energy      =      -0.9532110113783079 [Eh]
	 Correlation Energy        =      -1.2441939192376508 [Eh]
	 Total Energy              =    -629.8765339398610195 [Eh]

	 ================> DF-SCS-MP2 Energies <==================
	-----------------------------------------------------------
	 SCS Same-Spin Scale       =       0.3333333333333333 [-]
	 SCS Opposite-Spin Scale   =       1.2000000000000000 [-]
	 SCS Same-Spin Energy      =      -0.0969943026197810 [Eh]
	 SCS Opposite-Spin Energy  =      -1.1438532136539694 [Eh]
	 SCS Correlation Energy    =      -1.2408475162737505 [Eh]
	 SCS Total Energy          =    -629.8731875368971487 [Eh]
	-----------------------------------------------------------

  Dipole Moment: [D]
     X:     0.4955      Y:    -1.2218      Z:     0.1006     Total:     1.3223

*** Psi4 exiting successfully. Buy a developer a beer!
