                               Psi4 1.3.2 release

  ==> Input File <==

--------------------------------------------------------------------------
#psi4
#
memory 32 gb

molecule  {
0 1
  S        0.2011420    -0.7740460    -0.0125590
  O       -1.2094190     1.4662670    -0.0184260
  C        1.4537980     0.5412620     0.0354980
  C        2.8478080    -0.0717200    -0.0067890
  C       -1.3385394     0.3620080     0.0502059
  C       -2.5578740    -0.5297180     0.0165720
  H        1.2827490     1.2035910    -0.8153790
  H        1.3032950     1.1268910     0.9448060
  H        3.0193930    -0.7314540     0.8473820
  H        3.0002020    -0.6488010    -0.9221550
  H        3.5981220     0.7231720     0.0226780
  H       -2.8743340    -0.6368580     1.0585370
  H       -2.4550100    -1.5249000    -0.4208200
  H       -3.3176630     0.0418070    -0.5195010
units angstrom
no_reorient  #important for SAPT in psi4, default
symmetry c1  #important for SAPT in psi4, default
}

set PROPERTIES_ORIGIN ["COM"]
properties('MP2/aug-cc-pvtz', properties = ['dipole'])
--------------------------------------------------------------------------

    Molecular point group: c1
  Charge       = 0
  Multiplicity = 1
  Basis Set: AUG-CC-PVTZ
    Blend: AUG-CC-PVTZ
  Basis Set: (AUG-CC-PVTZ AUX)
    Blend: AUG-CC-PVTZ-JKFIT

    Orbital Energies [Eh]
    ---------------------

    Doubly Occupied:

       1A    -91.944360     2A    -20.579695     3A    -11.366467
       4A    -11.252880     5A    -11.251881     6A    -11.223207
       7A     -8.945508     8A     -6.626516     9A     -6.625554
      10A     -6.624834    11A     -1.485891    12A     -1.069154
      13A     -1.032010    14A     -0.937437    15A     -0.819655
      16A     -0.746940    17A     -0.676039    18A     -0.661574
      19A     -0.643887    20A     -0.619493    21A     -0.577518
      22A     -0.564089    23A     -0.552963    24A     -0.522228
      25A     -0.506797    26A     -0.449215    27A     -0.380008
      28A     -0.352211

  @DF-RHF Final Energy:  -628.61704705041143

   => Energetics <=

    Nuclear Repulsion Energy =            293.7299252915853458
    One-Electron Energy =               -1446.6179172808040221
    Two-Electron Energy =                 524.2709449388073608
    Total Energy =                       -628.6170470504114292
  Basis Set: (AUG-CC-PVTZ AUX)
    Blend: AUG-CC-PVTZ-RI
    Molecular point group: c1

    Geometry (in Angstrom), charge = 0, multiplicity = 1:

       Center              X                  Y                   Z               Mass
    ------------   -----------------  -----------------  -----------------  -----------------
         S            0.244079115863    -0.792087976881    -0.018775130000    31.972071174400
         O           -1.166481884137     1.448225023119    -0.024642130000    15.994914619570
         C            1.496735115863     0.523220023119     0.029281870000    12.000000000000
         C            2.890745115863    -0.089761976881    -0.013005130000    12.000000000000
         C           -1.295602284137     0.343966023119     0.043989770000    12.000000000000
         C           -2.514936884137    -0.547759976881     0.010355870000    12.000000000000
         H            1.325686115863     1.185549023119    -0.821595130000     1.007825032230
         H            1.346232115863     1.108849023119     0.938589870000     1.007825032230
         H            3.062330115863    -0.749495976881     0.841165870000     1.007825032230
         H            3.043139115863    -0.666842976881    -0.928371130000     1.007825032230
         H            3.641059115863     0.705130023119     0.016461870000     1.007825032230
         H           -2.831396884137    -0.654899976881     1.052320870000     1.007825032230
         H           -2.412072884137    -1.542941976881    -0.427036130000     1.007825032230
         H           -3.274725884137     0.023765023119    -0.525717130000     1.007825032230

  Basis Set: AUG-CC-PVTZ
    Blend: AUG-CC-PVTZ
  Basis Set: (AUG-CC-PVTZ AUX)
    Blend: AUG-CC-PVTZ-JKFIT
	 Reference Energy          =    -628.6170470504114292 [Eh]
	 Singles Energy            =      -0.0000000000000000 [Eh]
	 Same-Spin Energy          =      -0.2886449701011690 [Eh]
	 Opposite-Spin Energy      =      -0.9489391281622569 [Eh]
	 Correlation Energy        =      -1.2375840982634259 [Eh]
	 Total Energy              =    -629.8546311486747982 [Eh]

	 ================> DF-SCS-MP2 Energies <==================
	-----------------------------------------------------------
	 SCS Same-Spin Scale       =       0.3333333333333333 [-]
	 SCS Opposite-Spin Scale   =       1.2000000000000000 [-]
	 SCS Same-Spin Energy      =      -0.0962149900337230 [Eh]
	 SCS Opposite-Spin Energy  =      -1.1387269537947082 [Eh]
	 SCS Correlation Energy    =      -1.2349419438284313 [Eh]
	 SCS Total Energy          =    -629.8519889942398322 [Eh]
	-----------------------------------------------------------

  Dipole Moment: [D]
     X:    -0.6515      Y:    -0.3531      Z:     0.1353     Total:     0.7532

*** Psi4 exiting successfully. Buy a developer a beer!
