                               Psi4 1.3.2 release

  ==> Input File <==

--------------------------------------------------------------------------
#psi4
#
memory 32 gb

molecule  {
0 1
  S        0.2995169    -0.6157020    -0.0118662
  O       -1.2094190     1.4662670    -0.0184260
  C        1.4537980     0.5412620     0.0354980
  C        2.8478080    -0.0717200    -0.0067890
  C       -1.2603440     0.2437000    -0.0198130
  C       -2.5578740    -0.5297180     0.0165720
  H        1.2827490     1.2035910    -0.8153790
  H        1.3032950     1.1268910     0.9448060
  H        3.0193930    -0.7314540     0.8473820
  H        3.0002020    -0.6488010    -0.9221550
  H        3.5981220     0.7231720     0.0226780
  H       -2.8743340    -0.6368580     1.0585370
  H       -2.4550100    -1.5249000    -0.4208200
  H       -3.3176630     0.0418070    -0.5195010
units angstrom
no_reorient  #important for SAPT in psi4, default
symmetry c1  #important for SAPT in psi4, default
}

set PROPERTIES_ORIGIN ["COM"]
properties('MP2/aug-cc-pvtz', properties = ['dipole'])
--------------------------------------------------------------------------

    Molecular point group: c1
  Charge       = 0
  Multiplicity = 1
  Basis Set: AUG-CC-PVTZ
    Blend: AUG-CC-PVTZ
  Basis Set: (AUG-CC-PVTZ AUX)
    Blend: AUG-CC-PVTZ-JKFIT

    Orbital Energies [Eh]
    ---------------------

    Doubly Occupied:

       1A    -91.957093     2A    -20.550750     3A    -11.363695
       4A    -11.250337     5A    -11.248343     6A    -11.235060
       7A     -8.963156     8A     -6.644662     9A     -6.643450
      10A     -6.642512    11A     -1.390595    12A     -1.122173
      13A     -1.029448    14A     -0.963793    15A     -0.839050
      16A     -0.732866    17A     -0.667782    18A     -0.647979
      19A     -0.630877    20A     -0.610587    21A     -0.580629
      22A     -0.554348    23A     -0.532899    24A     -0.527856
      25A     -0.503203    26A     -0.476509    27A     -0.401064
      28A     -0.356139

  @DF-RHF Final Energy:  -628.61261840305588

   => Energetics <=

    Nuclear Repulsion Energy =            298.8171022835891790
    One-Electron Energy =               -1456.7257300982771540
    Two-Electron Energy =                 529.2960094116319851
    Total Energy =                       -628.6126184030558761
  Basis Set: (AUG-CC-PVTZ AUX)
    Blend: AUG-CC-PVTZ-RI
    Molecular point group: c1

    Geometry (in Angstrom), charge = 0, multiplicity = 1:

       Center              X                  Y                   Z               Mass
    ------------   -----------------  -----------------  -----------------  -----------------
         S            0.303199855007    -0.668761799947    -0.010218446463    31.972071174400
         O           -1.205736044993     1.413207200053    -0.016778246463    15.994914619570
         C            1.457480955007     0.488202200053     0.037145753537    12.000000000000
         C            2.851490955007    -0.124779799947    -0.005141246463    12.000000000000
         C           -1.256661044993     0.190640200053    -0.018165246463    12.000000000000
         C           -2.554191044993    -0.582777799947     0.018219753537    12.000000000000
         H            1.286431955007     1.150531200053    -0.813731246463     1.007825032230
         H            1.306977955007     1.073831200053     0.946453753537     1.007825032230
         H            3.023075955007    -0.784513799947     0.849029753537     1.007825032230
         H            3.003884955007    -0.701860799947    -0.920507246463     1.007825032230
         H            3.601804955007     0.670112200053     0.024325753537     1.007825032230
         H           -2.870651044993    -0.689917799947     1.060184753537     1.007825032230
         H           -2.451327044993    -1.577959799947    -0.419172246463     1.007825032230
         H           -3.313980044993    -0.011252799947    -0.517853246463     1.007825032230

  Basis Set: AUG-CC-PVTZ
    Blend: AUG-CC-PVTZ
  Basis Set: (AUG-CC-PVTZ AUX)
    Blend: AUG-CC-PVTZ-JKFIT
	 Reference Energy          =    -628.6126184030558761 [Eh]
	 Singles Energy            =      -0.0000000000000000 [Eh]
	 Same-Spin Energy          =      -0.2923650345887875 [Eh]
	 Opposite-Spin Energy      =      -0.9532942070982700 [Eh]
	 Correlation Energy        =      -1.2456592416870576 [Eh]
	 Total Energy              =    -629.8582776447428841 [Eh]

	 ================> DF-SCS-MP2 Energies <==================
	-----------------------------------------------------------
	 SCS Same-Spin Scale       =       0.3333333333333333 [-]
	 SCS Opposite-Spin Scale   =       1.2000000000000000 [-]
	 SCS Same-Spin Energy      =      -0.0974550115295958 [Eh]
	 SCS Opposite-Spin Energy  =      -1.1439530485179239 [Eh]
	 SCS Correlation Energy    =      -1.2414080600475197 [Eh]
	 SCS Total Energy          =    -629.8540264631034233 [Eh]
	-----------------------------------------------------------

  Dipole Moment: [D]
     X:     0.4989      Y:    -1.1979      Z:     0.1021     Total:     1.3017

*** Psi4 exiting successfully. Buy a developer a beer!
