                               Psi4 1.3.2 release

  ==> Input File <==

--------------------------------------------------------------------------
#psi4
#
memory 32 gb

molecule  {
0 1
  S        0.2011420    -0.7740460    -0.0125590
  O       -1.2520985     1.4672973    -0.0171667
  C        1.4537980     0.5412620     0.0354980
  C        2.8478080    -0.0717200    -0.0067890
  C       -1.2603440     0.2437000    -0.0198130
  C       -2.5578740    -0.5297180     0.0165720
  H        1.2827490     1.2035910    -0.8153790
  H        1.3032950     1.1268910     0.9448060
  H        3.0193930    -0.7314540     0.8473820
  H        3.0002020    -0.6488010    -0.9221550
  H        3.5981220     0.7231720     0.0226780
  H       -2.8743340    -0.6368580     1.0585370
  H       -2.4550100    -1.5249000    -0.4208200
  H       -3.3176630     0.0418070    -0.5195010
units angstrom
no_reorient  #important for SAPT in psi4, default
symmetry c1  #important for SAPT in psi4, default
}

set PROPERTIES_ORIGIN ["COM"]
properties('MP2/aug-cc-pvtz', properties = ['dipole'])
--------------------------------------------------------------------------

    Molecular point group: c1
  Charge       = 0
  Multiplicity = 1
  Basis Set: AUG-CC-PVTZ
    Blend: AUG-CC-PVTZ
  Basis Set: (AUG-CC-PVTZ AUX)
    Blend: AUG-CC-PVTZ-JKFIT

    Orbital Energies [Eh]
    ---------------------

    Doubly Occupied:

       1A    -91.971067     2A    -20.553419     3A    -11.363748
       4A    -11.264241     5A    -11.243345     6A    -11.232604
       7A     -8.972688     8A     -6.653854     9A     -6.652699
      10A     -6.652073    11A     -1.389106    12A     -1.088276
      13A     -1.029431    14A     -0.958429    15A     -0.836338
      16A     -0.732404    17A     -0.655178    18A     -0.637108
      19A     -0.628730    20A     -0.608197    21A     -0.577126
      22A     -0.554517    23A     -0.526559    24A     -0.520895
      25A     -0.501752    26A     -0.463206    27A     -0.409827
      28A     -0.371531

  @DF-RHF Final Energy:  -628.63224566279212

   => Energetics <=

    Nuclear Repulsion Energy =            293.6552966166061651
    One-Electron Energy =               -1446.4783865076803977
    Two-Electron Energy =                 524.1908442282821170
    Total Energy =                       -628.6322456627921156
  Basis Set: (AUG-CC-PVTZ AUX)
    Blend: AUG-CC-PVTZ-RI
    Molecular point group: c1

    Geometry (in Angstrom), charge = 0, multiplicity = 1:

       Center              X                  Y                   Z               Mass
    ------------   -----------------  -----------------  -----------------  -----------------
         S            0.241621258909    -0.778599348379    -0.010891945657    31.972071174400
         O           -1.211619241091     1.462743951621    -0.015499645657    15.994914619570
         C            1.494277258909     0.536708651621     0.037165054343    12.000000000000
         C            2.888287258909    -0.076273348379    -0.005121945657    12.000000000000
         C           -1.219864741091     0.239146651621    -0.018145945657    12.000000000000
         C           -2.517394741091    -0.534271348379     0.018239054343    12.000000000000
         H            1.323228258909     1.199037651621    -0.813711945657     1.007825032230
         H            1.343774258909     1.122337651621     0.946473054343     1.007825032230
         H            3.059872258909    -0.736007348379     0.849049054343     1.007825032230
         H            3.040681258909    -0.653354348379    -0.920487945657     1.007825032230
         H            3.638601258909     0.718618651621     0.024345054343     1.007825032230
         H           -2.833854741091    -0.641411348379     1.060204054343     1.007825032230
         H           -2.414530741091    -1.529453348379    -0.419152945657     1.007825032230
         H           -3.277183741091     0.037253651621    -0.517833945657     1.007825032230

  Basis Set: AUG-CC-PVTZ
    Blend: AUG-CC-PVTZ
  Basis Set: (AUG-CC-PVTZ AUX)
    Blend: AUG-CC-PVTZ-JKFIT
	 Reference Energy          =    -628.6322456627921156 [Eh]
	 Singles Energy            =      -0.0000000000000000 [Eh]
	 Same-Spin Energy          =      -0.2907512335952017 [Eh]
	 Opposite-Spin Energy      =      -0.9533904959124528 [Eh]
	 Correlation Energy        =      -1.2441417295076547 [Eh]
	 Total Energy              =    -629.8763873922997618 [Eh]

	 ================> DF-SCS-MP2 Energies <==================
	-----------------------------------------------------------
	 SCS Same-Spin Scale       =       0.3333333333333333 [-]
	 SCS Opposite-Spin Scale   =       1.2000000000000000 [-]
	 SCS Same-Spin Energy      =      -0.0969170778650672 [Eh]
	 SCS Opposite-Spin Energy  =      -1.1440685950949434 [Eh]
	 SCS Correlation Energy    =      -1.2409856729600106 [Eh]
	 SCS Total Energy          =    -629.8732313357521662 [Eh]
	-----------------------------------------------------------

  Dipole Moment: [D]
     X:     0.6481      Y:    -1.2374      Z:     0.0983     Total:     1.4003

*** Psi4 exiting successfully. Buy a developer a beer!
