                               Psi4 1.3.2 release

  ==> Input File <==

--------------------------------------------------------------------------
#psi4
#
memory 32 gb

molecule  {
0 1
  S        0.2011420    -0.7740460    -0.0125590
  O       -1.2094190     1.4662670    -0.0184260
  C        1.5916797     0.6860399     0.0407877
  C        2.8478080    -0.0717200    -0.0067890
  C       -1.2603440     0.2437000    -0.0198130
  C       -2.5578740    -0.5297180     0.0165720
  H        1.2827490     1.2035910    -0.8153790
  H        1.3032950     1.1268910     0.9448060
  H        3.0193930    -0.7314540     0.8473820
  H        3.0002020    -0.6488010    -0.9221550
  H        3.5981220     0.7231720     0.0226780
  H       -2.8743340    -0.6368580     1.0585370
  H       -2.4550100    -1.5249000    -0.4208200
  H       -3.3176630     0.0418070    -0.5195010
units angstrom
no_reorient  #important for SAPT in psi4, default
symmetry c1  #important for SAPT in psi4, default
}

set PROPERTIES_ORIGIN ["COM"]
properties('MP2/aug-cc-pvtz', properties = ['dipole'])
--------------------------------------------------------------------------

    Molecular point group: c1
  Charge       = 0
  Multiplicity = 1
  Basis Set: AUG-CC-PVTZ
    Blend: AUG-CC-PVTZ
  Basis Set: (AUG-CC-PVTZ AUX)
    Blend: AUG-CC-PVTZ-JKFIT

    Orbital Energies [Eh]
    ---------------------

    Doubly Occupied:

       1A    -91.957106     2A    -20.547756     3A    -11.359246
       4A    -11.276033     5A    -11.240495     6A    -11.235736
       7A     -8.957862     8A     -6.638843     9A     -6.637662
      10A     -6.637173    11A     -1.384304    12A     -1.082179
      13A     -1.031278    14A     -0.949807    15A     -0.849485
      16A     -0.725816    17A     -0.660165    18A     -0.641241
      19A     -0.625229    20A     -0.606162    21A     -0.581867
      22A     -0.574402    23A     -0.534679    24A     -0.531962
      25A     -0.506159    26A     -0.412538    27A     -0.401947
      28A     -0.365770

  @DF-RHF Final Energy:  -628.61201121322699

   => Energetics <=

    Nuclear Repulsion Energy =            291.1562227984546780
    One-Electron Energy =               -1441.6306687094127028
    Two-Electron Energy =                 521.8624346977309187
    Total Energy =                       -628.6120112132269924
  Basis Set: (AUG-CC-PVTZ AUX)
    Blend: AUG-CC-PVTZ-RI
    Molecular point group: c1

    Geometry (in Angstrom), charge = 0, multiplicity = 1:

       Center              X                  Y                   Z               Mass
    ------------   -----------------  -----------------  -----------------  -----------------
         S            0.219154233448    -0.795141327490    -0.011308500270    31.972071174400
         O           -1.191406766552     1.445171672510    -0.017175500270    15.994914619570
         C            1.609691933448     0.664944572510     0.042038199730    12.000000000000
         C            2.865820233448    -0.092815327490    -0.005538500270    12.000000000000
         C           -1.242331766552     0.222604672510    -0.018562500270    12.000000000000
         C           -2.539861766552    -0.550813327490     0.017822499730    12.000000000000
         H            1.300761233448     1.182495672510    -0.814128500270     1.007825032230
         H            1.321307233448     1.105795672510     0.946056499730     1.007825032230
         H            3.037405233448    -0.752549327490     0.848632499730     1.007825032230
         H            3.018214233448    -0.669896327490    -0.920904500270     1.007825032230
         H            3.616134233448     0.702076672510     0.023928499730     1.007825032230
         H           -2.856321766552    -0.657953327490     1.059787499730     1.007825032230
         H           -2.436997766552    -1.545995327490    -0.419569500270     1.007825032230
         H           -3.299650766552     0.020711672510    -0.518250500270     1.007825032230

  Basis Set: AUG-CC-PVTZ
    Blend: AUG-CC-PVTZ
  Basis Set: (AUG-CC-PVTZ AUX)
    Blend: AUG-CC-PVTZ-JKFIT
	 Reference Energy          =    -628.6120112132269924 [Eh]
	 Singles Energy            =      -0.0000000000000000 [Eh]
	 Same-Spin Energy          =      -0.2908156097474381 [Eh]
	 Opposite-Spin Energy      =      -0.9539068200328027 [Eh]
	 Correlation Energy        =      -1.2447224297802408 [Eh]
	 Total Energy              =    -629.8567336430072601 [Eh]

	 ================> DF-SCS-MP2 Energies <==================
	-----------------------------------------------------------
	 SCS Same-Spin Scale       =       0.3333333333333333 [-]
	 SCS Opposite-Spin Scale   =       1.2000000000000000 [-]
	 SCS Same-Spin Energy      =      -0.0969385365824794 [Eh]
	 SCS Opposite-Spin Energy  =      -1.1446881840393632 [Eh]
	 SCS Correlation Energy    =      -1.2416267206218425 [Eh]
	 SCS Total Energy          =    -629.8536379338488587 [Eh]
	-----------------------------------------------------------

  Dipole Moment: [D]
     X:     0.9517      Y:    -1.0611      Z:     0.1080     Total:     1.4294

*** Psi4 exiting successfully. Buy a developer a beer!
