                               Psi4 1.3.2 release

  ==> Input File <==

--------------------------------------------------------------------------
#psi4
#
memory 32 gb

molecule  {
0 1
  S        0.1547568    -0.7199232    -0.1174574
  O       -1.2094190     1.4662670    -0.0184260
  C        1.4537980     0.5412620     0.0354980
  C        2.8478080    -0.0717200    -0.0067890
  C       -1.2603440     0.2437000    -0.0198130
  C       -2.5578740    -0.5297180     0.0165720
  H        1.2827490     1.2035910    -0.8153790
  H        1.3032950     1.1268910     0.9448060
  H        3.0193930    -0.7314540     0.8473820
  H        3.0002020    -0.6488010    -0.9221550
  H        3.5981220     0.7231720     0.0226780
  H       -2.8743340    -0.6368580     1.0585370
  H       -2.4550100    -1.5249000    -0.4208200
  H       -3.3176630     0.0418070    -0.5195010
units angstrom
no_reorient  #important for SAPT in psi4, default
symmetry c1  #important for SAPT in psi4, default
}

set PROPERTIES_ORIGIN ["COM"]
properties('MP2/aug-cc-pvtz', properties = ['dipole'])
--------------------------------------------------------------------------

    Molecular point group: c1
  Charge       = 0
  Multiplicity = 1
  Basis Set: AUG-CC-PVTZ
    Blend: AUG-CC-PVTZ
  Basis Set: (AUG-CC-PVTZ AUX)
    Blend: AUG-CC-PVTZ-JKFIT

    Orbital Energies [Eh]
    ---------------------

    Doubly Occupied:

       1A    -91.967995     2A    -20.546063     3A    -11.357184
       4A    -11.264652     5A    -11.243961     6A    -11.234014
       7A     -8.971326     8A     -6.652606     9A     -6.651390
      10A     -6.650760    11A     -1.386382    12A     -1.092855
      13A     -1.033401    14A     -0.964409    15A     -0.841721
      16A     -0.728297    17A     -0.655739    18A     -0.638187
      19A     -0.629637    20A     -0.608805    21A     -0.576980
      22A     -0.555379    23A     -0.528438    24A     -0.524243
      25A     -0.501210    26A     -0.460278    27A     -0.410212
      28A     -0.370688

  @DF-RHF Final Energy:  -628.63088053816568

   => Energetics <=

    Nuclear Repulsion Energy =            295.9180785679801602
    One-Electron Energy =               -1451.0042964725189449
    Two-Electron Energy =                 526.4553373663732145
    Total Energy =                       -628.6308805381656839
  Basis Set: (AUG-CC-PVTZ AUX)
    Blend: AUG-CC-PVTZ-RI
    Molecular point group: c1

    Geometry (in Angstrom), charge = 0, multiplicity = 1:

       Center              X                  Y                   Z               Mass
    ------------   -----------------  -----------------  -----------------  -----------------
         S            0.202929792852    -0.740952038845    -0.083357634589    31.972071174400
         O           -1.161246007148     1.445238161155     0.015673765411    15.994914619570
         C            1.501970992852     0.520233161155     0.069597765411    12.000000000000
         C            2.895980992852    -0.092748838845     0.027310765411    12.000000000000
         C           -1.212171007148     0.222671161155     0.014286765411    12.000000000000
         C           -2.509701007148    -0.550746838845     0.050671765411    12.000000000000
         H            1.330921992852     1.182562161155    -0.781279234589     1.007825032230
         H            1.351467992852     1.105862161155     0.978905765411     1.007825032230
         H            3.067565992852    -0.752482838845     0.881481765411     1.007825032230
         H            3.048374992852    -0.669829838845    -0.888055234589     1.007825032230
         H            3.646294992852     0.702143161155     0.056777765411     1.007825032230
         H           -2.826161007148    -0.657886838845     1.092636765411     1.007825032230
         H           -2.406837007148    -1.545928838845    -0.386720234589     1.007825032230
         H           -3.269490007148     0.020778161155    -0.485401234589     1.007825032230

  Basis Set: AUG-CC-PVTZ
    Blend: AUG-CC-PVTZ
  Basis Set: (AUG-CC-PVTZ AUX)
    Blend: AUG-CC-PVTZ-JKFIT
	 Reference Energy          =    -628.6308805381656839 [Eh]
	 Singles Energy            =      -0.0000000000000000 [Eh]
	 Same-Spin Energy          =      -0.2910217532235293 [Eh]
	 Opposite-Spin Energy      =      -0.9527177574653305 [Eh]
	 Correlation Energy        =      -1.2437395106888598 [Eh]
	 Total Energy              =    -629.8746200488545810 [Eh]

	 ================> DF-SCS-MP2 Energies <==================
	-----------------------------------------------------------
	 SCS Same-Spin Scale       =       0.3333333333333333 [-]
	 SCS Opposite-Spin Scale   =       1.2000000000000000 [-]
	 SCS Same-Spin Energy      =      -0.0970072510745098 [Eh]
	 SCS Opposite-Spin Energy  =      -1.1432613089583965 [Eh]
	 SCS Correlation Energy    =      -1.2402685600329062 [Eh]
	 SCS Total Energy          =    -629.8711490981985435 [Eh]
	-----------------------------------------------------------

  Dipole Moment: [D]
     X:     0.7714      Y:    -1.3465      Z:     0.1326     Total:     1.5575

*** Psi4 exiting successfully. Buy a developer a beer!
