                               Psi4 1.4a3.dev225

  ==> Input File <==

--------------------------------------------------------------------------
#psi4
#
memory 32 gb

molecule  {
0 1
  S        0.2011420    -0.7740460    -0.0125590
  O       -1.2094190     1.4662670    -0.0184260
  C        1.4537980     0.5412620     0.0354980
  C        2.8478080    -0.0717200    -0.0067890
  C       -1.2603440     0.2437000    -0.0198130
  C       -2.5149375    -0.5041249     0.0153680
  H        1.2827490     1.2035910    -0.8153790
  H        1.3032950     1.1268910     0.9448060
  H        3.0193930    -0.7314540     0.8473820
  H        3.0002020    -0.6488010    -0.9221550
  H        3.5981220     0.7231720     0.0226780
  H       -2.8743340    -0.6368580     1.0585370
  H       -2.4550100    -1.5249000    -0.4208200
  H       -3.3176630     0.0418070    -0.5195010
units angstrom
no_reorient  #important for SAPT in psi4, default
symmetry c1  #important for SAPT in psi4, default
}

set PROPERTIES_ORIGIN ["COM"]
properties('MP2/aug-cc-pvtz', properties = ['dipole'])
--------------------------------------------------------------------------

    Molecular point group: c1
  Charge       = 0
  Multiplicity = 1
  Basis Set: AUG-CC-PVTZ
    Blend: AUG-CC-PVTZ
  Basis Set: (AUG-CC-PVTZ AUX)
    Blend: AUG-CC-PVTZ-JKFIT

    Orbital Energies [Eh]
    ---------------------

    Doubly Occupied:

       1A    -91.968578     2A    -20.552699     3A    -11.362246
       4A    -11.262630     5A    -11.247335     6A    -11.231420
       7A     -8.970344     8A     -6.651507     9A     -6.650378
      10A     -6.649744    11A     -1.390185    12A     -1.087862
      13A     -1.037289    14A     -0.957493    15A     -0.834940
      16A     -0.735486    17A     -0.656427    18A     -0.637149
      19A     -0.635998    20A     -0.607247    21A     -0.573255
      22A     -0.552274    23A     -0.523815    24A     -0.516998
      25A     -0.498307    26A     -0.463126    27A     -0.412187
      28A     -0.369800

  @DF-RHF Final Energy:  -628.62956765995864

   => Energetics <=

    Nuclear Repulsion Energy =            294.8688129821158554
    One-Electron Energy =               -1448.9233297058362950
    Two-Electron Energy =                 525.4249490637619147
    Total Energy =                       -628.6295676599586386
  Basis Set: (AUG-CC-PVTZ AUX)
    Blend: AUG-CC-PVTZ-RI
    Molecular point group: c1

    Geometry (in Angstrom), charge = 0, multiplicity = 1:

       Center              X                  Y                   Z               Mass
    ------------   -----------------  -----------------  -----------------  -----------------
         S            0.230106333165    -0.781393146283    -0.010559440287    31.972071174400
         O           -1.180454666835     1.458919853717    -0.016426440287    15.994914619570
         C            1.482762333165     0.533914853717     0.037497559713    12.000000000000
         C            2.876772333165    -0.079067146283    -0.004789440287    12.000000000000
         C           -1.231379666835     0.236352853717    -0.017813440287    12.000000000000
         C           -2.485973166835    -0.511472046283     0.017367559713    12.000000000000
         H            1.311713333165     1.196243853717    -0.813379440287     1.007825032230
         H            1.332259333165     1.119543853717     0.946805559713     1.007825032230
         H            3.048357333165    -0.738801146283     0.849381559713     1.007825032230
         H            3.029166333165    -0.656148146283    -0.920155440287     1.007825032230
         H            3.627086333165     0.715824853717     0.024677559713     1.007825032230
         H           -2.845369666835    -0.644205146283     1.060536559713     1.007825032230
         H           -2.426045666835    -1.532247146283    -0.418820440287     1.007825032230
         H           -3.288698666835     0.034459853717    -0.517501440287     1.007825032230

  Basis Set: AUG-CC-PVTZ
    Blend: AUG-CC-PVTZ
  Basis Set: (AUG-CC-PVTZ AUX)
    Blend: AUG-CC-PVTZ-JKFIT
	 Reference Energy          =    -628.6295676599586386 [Eh]
	 Singles Energy            =      -0.0000000000000000 [Eh]
	 Same-Spin Energy          =      -0.2912786152629488 [Eh]
	 Opposite-Spin Energy      =      -0.9538727056922209 [Eh]
	 Correlation Energy        =      -1.2451513209551697 [Eh]
	 Total Energy              =    -629.8747189809138263 [Eh]

	 ================> DF-SCS-MP2 Energies <==================
	-----------------------------------------------------------
	 SCS Same-Spin Scale       =       0.3333333333333333 [-]
	 SCS Opposite-Spin Scale   =       1.2000000000000000 [-]
	 SCS Same-Spin Energy      =      -0.0970928717543163 [Eh]
	 SCS Opposite-Spin Energy  =      -1.1446472468306650 [Eh]
	 SCS Correlation Energy    =      -1.2417401185849812 [Eh]
	 SCS Total Energy          =    -629.8713077785436099 [Eh]
	-----------------------------------------------------------

  Dipole Moment: [D]
     X:     0.4292      Y:    -1.2613      Z:     0.1087     Total:     1.3368

*** Psi4 exiting successfully. Buy a developer a beer!
