                               Psi4 1.3.2 release

  ==> Input File <==

--------------------------------------------------------------------------
#psi4
#
memory 32 gb

molecule  {
0 1
  S        0.2011420    -0.7740460    -0.0125590
  O       -1.2094190     1.4662670    -0.0184260
  C        1.4537980     0.5412620     0.0354980
  C        2.8478080    -0.0717200    -0.0067890
  C       -1.2486726     0.2231217    -0.0314648
  C       -2.5578740    -0.5297180     0.0165720
  H        1.2827490     1.2035910    -0.8153790
  H        1.3032950     1.1268910     0.9448060
  H        3.0193930    -0.7314540     0.8473820
  H        3.0002020    -0.6488010    -0.9221550
  H        3.5981220     0.7231720     0.0226780
  H       -2.8743340    -0.6368580     1.0585370
  H       -2.4550100    -1.5249000    -0.4208200
  H       -3.3176630     0.0418070    -0.5195010
units angstrom
no_reorient  #important for SAPT in psi4, default
symmetry c1  #important for SAPT in psi4, default
}

set PROPERTIES_ORIGIN ["COM"]
properties('MP2/aug-cc-pvtz', properties = ['dipole'])
--------------------------------------------------------------------------

    Molecular point group: c1
  Charge       = 0
  Multiplicity = 1
  Basis Set: AUG-CC-PVTZ
    Blend: AUG-CC-PVTZ
  Basis Set: (AUG-CC-PVTZ AUX)
    Blend: AUG-CC-PVTZ-JKFIT

    Orbital Energies [Eh]
    ---------------------

    Doubly Occupied:

       1A    -91.972285     2A    -20.549867     3A    -11.364599
       4A    -11.264439     5A    -11.245318     6A    -11.232828
       7A     -8.974240     8A     -6.655436     9A     -6.654268
      10A     -6.653659    11A     -1.374344    12A     -1.090030
      13A     -1.031374    14A     -0.960880    15A     -0.838163
      16A     -0.731069    17A     -0.653078    18A     -0.637210
      19A     -0.624715    20A     -0.606793    21A     -0.577735
      22A     -0.553416    23A     -0.525972    24A     -0.519574
      25A     -0.496820    26A     -0.463830    27A     -0.411933
      28A     -0.372027

  @DF-RHF Final Energy:  -628.62961151721049

   => Energetics <=

    Nuclear Repulsion Energy =            294.0460008275268819
    One-Electron Energy =               -1447.2794166768867399
    Two-Electron Energy =                 524.6038043321494797
    Total Energy =                       -628.6296115172104919
  Basis Set: (AUG-CC-PVTZ AUX)
    Blend: AUG-CC-PVTZ-RI
    Molecular point group: c1

    Geometry (in Angstrom), charge = 0, multiplicity = 1:

       Center              X                  Y                   Z               Mass
    ------------   -----------------  -----------------  -----------------  -----------------
         S            0.233712818726    -0.776067192186    -0.009354267751    31.972071174400
         O           -1.176848181274     1.464245807814    -0.015221267751    15.994914619570
         C            1.486368818726     0.539240807814     0.038702732249    12.000000000000
         C            2.880378818726    -0.073741192186    -0.003584267751    12.000000000000
         C           -1.216101781274     0.221100507814    -0.028260067751    12.000000000000
         C           -2.525303181274    -0.531739192186     0.019776732249    12.000000000000
         H            1.315319818726     1.201569807814    -0.812174267751     1.007825032230
         H            1.335865818726     1.124869807814     0.948010732249     1.007825032230
         H            3.051963818726    -0.733475192186     0.850586732249     1.007825032230
         H            3.032772818726    -0.650822192186    -0.918950267751     1.007825032230
         H            3.630692818726     0.721150807814     0.025882732249     1.007825032230
         H           -2.841763181274    -0.638879192186     1.061741732249     1.007825032230
         H           -2.422439181274    -1.526921192186    -0.417615267751     1.007825032230
         H           -3.285092181274     0.039785807814    -0.516296267751     1.007825032230

  Basis Set: AUG-CC-PVTZ
    Blend: AUG-CC-PVTZ
  Basis Set: (AUG-CC-PVTZ AUX)
    Blend: AUG-CC-PVTZ-JKFIT
	 Reference Energy          =    -628.6296115172104919 [Eh]
	 Singles Energy            =      -0.0000000000000000 [Eh]
	 Same-Spin Energy          =      -0.2913880704132814 [Eh]
	 Opposite-Spin Energy      =      -0.9544575943911964 [Eh]
	 Correlation Energy        =      -1.2458456648044778 [Eh]
	 Total Energy              =    -629.8754571820149977 [Eh]

	 ================> DF-SCS-MP2 Energies <==================
	-----------------------------------------------------------
	 SCS Same-Spin Scale       =       0.3333333333333333 [-]
	 SCS Opposite-Spin Scale   =       1.2000000000000000 [-]
	 SCS Same-Spin Energy      =      -0.0971293568044271 [Eh]
	 SCS Opposite-Spin Energy  =      -1.1453491132694356 [Eh]
	 SCS Correlation Energy    =      -1.2424784700738627 [Eh]
	 SCS Total Energy          =    -629.8720899872843120 [Eh]
	-----------------------------------------------------------

  Dipole Moment: [D]
     X:     0.6735      Y:    -1.3470      Z:     0.0993     Total:     1.5093

*** Psi4 exiting successfully. Buy a developer a beer!
