                               Psi4 1.3.2 release

  ==> Input File <==

--------------------------------------------------------------------------
#psi4
#
memory 32 gb

molecule  {
0 1
  S        0.2011420    -0.7740460    -0.0125590
  O       -1.2094190     1.4662670    -0.0184260
  C        1.4537980     0.5412620     0.0354980
  C        2.8478080    -0.0717200    -0.0067890
  C       -1.2603440     0.2437000    -0.0198130
  C       -2.6437470    -0.5809043     0.0189800
  H        1.2827490     1.2035910    -0.8153790
  H        1.3032950     1.1268910     0.9448060
  H        3.0193930    -0.7314540     0.8473820
  H        3.0002020    -0.6488010    -0.9221550
  H        3.5981220     0.7231720     0.0226780
  H       -2.8743340    -0.6368580     1.0585370
  H       -2.4550100    -1.5249000    -0.4208200
  H       -3.3176630     0.0418070    -0.5195010
units angstrom
no_reorient  #important for SAPT in psi4, default
symmetry c1  #important for SAPT in psi4, default
}

set PROPERTIES_ORIGIN ["COM"]
properties('MP2/aug-cc-pvtz', properties = ['dipole'])
--------------------------------------------------------------------------

    Molecular point group: c1
  Charge       = 0
  Multiplicity = 1
  Basis Set: AUG-CC-PVTZ
    Blend: AUG-CC-PVTZ
  Basis Set: (AUG-CC-PVTZ AUX)
    Blend: AUG-CC-PVTZ-JKFIT

    Orbital Energies [Eh]
    ---------------------

    Doubly Occupied:

       1A    -91.969462     2A    -20.555452     3A    -11.367235
       4A    -11.263286     5A    -11.244219     6A    -11.231850
       7A     -8.971114     8A     -6.652265     9A     -6.651147
      10A     -6.650513    11A     -1.388680    12A     -1.085696
      13A     -1.020374    14A     -0.958728    15A     -0.836407
      16A     -0.727059    17A     -0.653735    18A     -0.636453
      19A     -0.616527    20A     -0.613858    21A     -0.589011
      22A     -0.556662    23A     -0.532172    24A     -0.523217
      25A     -0.505451    26A     -0.460329    27A     -0.400437
      28A     -0.370227

  @DF-RHF Final Energy:  -628.62510427806501

   => Energetics <=

    Nuclear Repulsion Energy =            292.3279142926762688
    One-Electron Energy =               -1443.8429054739099229
    Two-Electron Energy =                 522.8898869031686445
    Total Energy =                       -628.6251042780650096
  Basis Set: (AUG-CC-PVTZ AUX)
    Blend: AUG-CC-PVTZ-RI
    Molecular point group: c1

    Geometry (in Angstrom), charge = 0, multiplicity = 1:

       Center              X                  Y                   Z               Mass
    ------------   -----------------  -----------------  -----------------  -----------------
         S            0.244964740842    -0.772536504293    -0.010976090988    31.972071174400
         O           -1.165596259158     1.467776495707    -0.016843090988    15.994914619570
         C            1.497620740842     0.542771495707     0.037080909012    12.000000000000
         C            2.891630740842    -0.070210504293    -0.005206090988    12.000000000000
         C           -1.216521259158     0.245209495707    -0.018230090988    12.000000000000
         C           -2.599924259158    -0.579394804293     0.020562909012    12.000000000000
         H            1.326571740842     1.205100495707    -0.813796090988     1.007825032230
         H            1.347117740842     1.128400495707     0.946388909012     1.007825032230
         H            3.063215740842    -0.729944504293     0.848964909012     1.007825032230
         H            3.044024740842    -0.647291504293    -0.920572090988     1.007825032230
         H            3.641944740842     0.724681495707     0.024260909012     1.007825032230
         H           -2.830511259158    -0.635348504293     1.060119909012     1.007825032230
         H           -2.411187259158    -1.523390504293    -0.419237090988     1.007825032230
         H           -3.273840259158     0.043316495707    -0.517918090988     1.007825032230

  Basis Set: AUG-CC-PVTZ
    Blend: AUG-CC-PVTZ
  Basis Set: (AUG-CC-PVTZ AUX)
    Blend: AUG-CC-PVTZ-JKFIT
	 Reference Energy          =    -628.6251042780650096 [Eh]
	 Singles Energy            =      -0.0000000000000000 [Eh]
	 Same-Spin Energy          =      -0.2905471817857823 [Eh]
	 Opposite-Spin Energy      =      -0.9534721532777062 [Eh]
	 Correlation Energy        =      -1.2440193350634885 [Eh]
	 Total Energy              =    -629.8691236131285223 [Eh]

	 ================> DF-SCS-MP2 Energies <==================
	-----------------------------------------------------------
	 SCS Same-Spin Scale       =       0.3333333333333333 [-]
	 SCS Opposite-Spin Scale   =       1.2000000000000000 [-]
	 SCS Same-Spin Energy      =      -0.0968490605952608 [Eh]
	 SCS Opposite-Spin Energy  =      -1.1441665839332473 [Eh]
	 SCS Correlation Energy    =      -1.2410156445285081 [Eh]
	 SCS Total Energy          =    -629.8661199225934979 [Eh]
	-----------------------------------------------------------

  Dipole Moment: [D]
     X:     0.6577      Y:    -1.1438      Z:     0.0872     Total:     1.3222

*** Psi4 exiting successfully. Buy a developer a beer!
