                               Psi4 1.3.2 release

  ==> Input File <==

--------------------------------------------------------------------------
#psi4
#
memory 32 gb

molecule  {
0 1
  S        0.2011420    -0.7740460    -0.0125590
  O       -1.2094190     1.4662670    -0.0184260
  C        1.4537980     0.5412620     0.0354980
  C        2.8478080    -0.0717200    -0.0067890
  C       -1.1963646     0.1169183    -0.0894332
  C       -2.5578740    -0.5297180     0.0165720
  H        1.2827490     1.2035910    -0.8153790
  H        1.3032950     1.1268910     0.9448060
  H        3.0193930    -0.7314540     0.8473820
  H        3.0002020    -0.6488010    -0.9221550
  H        3.5981220     0.7231720     0.0226780
  H       -2.8743340    -0.6368580     1.0585370
  H       -2.4550100    -1.5249000    -0.4208200
  H       -3.3176630     0.0418070    -0.5195010
units angstrom
no_reorient  #important for SAPT in psi4, default
symmetry c1  #important for SAPT in psi4, default
}

set PROPERTIES_ORIGIN ["COM"]
properties('MP2/aug-cc-pvtz', properties = ['dipole'])
--------------------------------------------------------------------------

    Molecular point group: c1
  Charge       = 0
  Multiplicity = 1
  Basis Set: AUG-CC-PVTZ
    Blend: AUG-CC-PVTZ
  Basis Set: (AUG-CC-PVTZ AUX)
    Blend: AUG-CC-PVTZ-JKFIT

    Orbital Energies [Eh]
    ---------------------

    Doubly Occupied:

       1A    -91.986834     2A    -20.530365     3A    -11.365188
       4A    -11.271571     5A    -11.245948     6A    -11.238428
       7A     -8.990461     8A     -6.671885     9A     -6.670378
      10A     -6.669951    11A     -1.304099    12A     -1.106405
      13A     -1.037171    14A     -0.973807    15A     -0.850487
      16A     -0.729248    17A     -0.644111    18A     -0.641878
      19A     -0.609419    20A     -0.597945    21A     -0.577246
      22A     -0.542328    23A     -0.528732    24A     -0.521837
      25A     -0.473218    26A     -0.465322    27A     -0.413981
      28A     -0.376091

  @DF-RHF Final Energy:  -628.59492781910160

   => Energetics <=

    Nuclear Repulsion Energy =            294.3660749490689454
    One-Electron Energy =               -1447.8533323245001156
    Two-Electron Energy =                 524.8923295563296278
    Total Energy =                       -628.5949278191015992
  Basis Set: (AUG-CC-PVTZ AUX)
    Blend: AUG-CC-PVTZ-RI
    Molecular point group: c1

    Geometry (in Angstrom), charge = 0, multiplicity = 1:

       Center              X                  Y                   Z               Mass
    ------------   -----------------  -----------------  -----------------  -----------------
         S            0.227678996774    -0.763816438834    -0.002667508470    31.972071174400
         O           -1.182882003226     1.476496561166    -0.008534508470    15.994914619570
         C            1.480334996774     0.551491561166     0.045389491530    12.000000000000
         C            2.874344996774    -0.061490438834     0.003102491530    12.000000000000
         C           -1.169827603226     0.127147861166    -0.079541708470    12.000000000000
         C           -2.531337003226    -0.519488438834     0.026463491530    12.000000000000
         H            1.309285996774     1.213820561166    -0.805487508470     1.007825032230
         H            1.329831996774     1.137120561166     0.954697491530     1.007825032230
         H            3.045929996774    -0.721224438834     0.857273491530     1.007825032230
         H            3.026738996774    -0.638571438834    -0.912263508470     1.007825032230
         H            3.624658996774     0.733401561166     0.032569491530     1.007825032230
         H           -2.847797003226    -0.626628438834     1.068428491530     1.007825032230
         H           -2.428473003226    -1.514670438834    -0.410928508470     1.007825032230
         H           -3.291126003226     0.052036561166    -0.509609508470     1.007825032230

  Basis Set: AUG-CC-PVTZ
    Blend: AUG-CC-PVTZ
  Basis Set: (AUG-CC-PVTZ AUX)
    Blend: AUG-CC-PVTZ-JKFIT
	 Reference Energy          =    -628.5949278191015992 [Eh]
	 Singles Energy            =      -0.0000000000000000 [Eh]
	 Same-Spin Energy          =      -0.2949176435079945 [Eh]
	 Opposite-Spin Energy      =      -0.9609734032026120 [Eh]
	 Correlation Energy        =      -1.2558910467106066 [Eh]
	 Total Energy              =    -629.8508188658122435 [Eh]

	 ================> DF-SCS-MP2 Energies <==================
	-----------------------------------------------------------
	 SCS Same-Spin Scale       =       0.3333333333333333 [-]
	 SCS Opposite-Spin Scale   =       1.2000000000000000 [-]
	 SCS Same-Spin Energy      =      -0.0983058811693315 [Eh]
	 SCS Opposite-Spin Energy  =      -1.1531680838431344 [Eh]
	 SCS Correlation Energy    =      -1.2514739650124660 [Eh]
	 SCS Total Energy          =    -629.8464017841140503 [Eh]
	-----------------------------------------------------------

  Dipole Moment: [D]
     X:     1.3806      Y:    -1.8762      Z:     0.1192     Total:     2.3324

*** Psi4 exiting successfully. Buy a developer a beer!
