                               Psi4 1.3.2 release

  ==> Input File <==

--------------------------------------------------------------------------
#psi4
#
memory 32 gb

molecule  {
0 1
  S        0.2685747    -0.6696175    -0.0120878
  O       -1.2094190     1.4662670    -0.0184260
  C        1.4537980     0.5412620     0.0354980
  C        2.8478080    -0.0717200    -0.0067890
  C       -1.2603440     0.2437000    -0.0198130
  C       -2.5578740    -0.5297180     0.0165720
  H        1.2827490     1.2035910    -0.8153790
  H        1.3032950     1.1268910     0.9448060
  H        3.0193930    -0.7314540     0.8473820
  H        3.0002020    -0.6488010    -0.9221550
  H        3.5981220     0.7231720     0.0226780
  H       -2.8743340    -0.6368580     1.0585370
  H       -2.4550100    -1.5249000    -0.4208200
  H       -3.3176630     0.0418070    -0.5195010
units angstrom
no_reorient  #important for SAPT in psi4, default
symmetry c1  #important for SAPT in psi4, default
}

set PROPERTIES_ORIGIN ["COM"]
properties('MP2/aug-cc-pvtz', properties = ['dipole'])
--------------------------------------------------------------------------

    Molecular point group: c1
  Charge       = 0
  Multiplicity = 1
  Basis Set: AUG-CC-PVTZ
    Blend: AUG-CC-PVTZ
  Basis Set: (AUG-CC-PVTZ AUX)
    Blend: AUG-CC-PVTZ-JKFIT

    Orbital Energies [Eh]
    ---------------------

    Doubly Occupied:

       1A    -91.961766     2A    -20.551968     3A    -11.364089
       4A    -11.252905     5A    -11.248891     6A    -11.233457
       7A     -8.966069     8A     -6.647402     9A     -6.646333
      10A     -6.645487    11A     -1.390338    12A     -1.108338
      13A     -1.029989    14A     -0.961836    15A     -0.837585
      16A     -0.732784    17A     -0.663514    18A     -0.643059
      19A     -0.630859    20A     -0.610085    21A     -0.579438
      22A     -0.554083    23A     -0.530410    24A     -0.523859
      25A     -0.502547    26A     -0.473525    27A     -0.404869
      28A     -0.361646

  @DF-RHF Final Energy:  -628.62487609963932

   => Energetics <=

    Nuclear Repulsion Energy =            297.1209911135937318
    One-Electron Energy =               -1453.3774707204136121
    Two-Electron Energy =                 527.6316035071806709
    Total Energy =                       -628.6248760996393230
  Basis Set: (AUG-CC-PVTZ AUX)
    Blend: AUG-CC-PVTZ-RI
    Molecular point group: c1

    Geometry (in Angstrom), charge = 0, multiplicity = 1:

       Center              X                  Y                   Z               Mass
    ------------   -----------------  -----------------  -----------------  -----------------
         S            0.281767317193    -0.706107108054    -0.010371940733    31.972071174400
         O           -1.196226382807     1.429777391946    -0.016710140733    15.994914619570
         C            1.466990617193     0.504772391946     0.037213859267    12.000000000000
         C            2.861000617193    -0.108209608054    -0.005073140733    12.000000000000
         C           -1.247151382807     0.207210391946    -0.018097140733    12.000000000000
         C           -2.544681382807    -0.566207608054     0.018287859267    12.000000000000
         H            1.295941617193     1.167101391946    -0.813663140733     1.007825032230
         H            1.316487617193     1.090401391946     0.946521859267     1.007825032230
         H            3.032585617193    -0.767943608054     0.849097859267     1.007825032230
         H            3.013394617193    -0.685290608054    -0.920439140733     1.007825032230
         H            3.611314617193     0.686682391946     0.024393859267     1.007825032230
         H           -2.861141382807    -0.673347608054     1.060252859267     1.007825032230
         H           -2.441817382807    -1.561389608054    -0.419104140733     1.007825032230
         H           -3.304470382807     0.005317391946    -0.517785140733     1.007825032230

  Basis Set: AUG-CC-PVTZ
    Blend: AUG-CC-PVTZ
  Basis Set: (AUG-CC-PVTZ AUX)
    Blend: AUG-CC-PVTZ-JKFIT
	 Reference Energy          =    -628.6248760996393230 [Eh]
	 Singles Energy            =      -0.0000000000000000 [Eh]
	 Same-Spin Energy          =      -0.2916840175992421 [Eh]
	 Opposite-Spin Energy      =      -0.9530530013374995 [Eh]
	 Correlation Energy        =      -1.2447370189367415 [Eh]
	 Total Energy              =    -629.8696131185760123 [Eh]

	 ================> DF-SCS-MP2 Energies <==================
	-----------------------------------------------------------
	 SCS Same-Spin Scale       =       0.3333333333333333 [-]
	 SCS Opposite-Spin Scale   =       1.2000000000000000 [-]
	 SCS Same-Spin Energy      =      -0.0972280058664140 [Eh]
	 SCS Opposite-Spin Energy  =      -1.1436636016049992 [Eh]
	 SCS Correlation Energy    =      -1.2408916074714134 [Eh]
	 SCS Total Energy          =    -629.8657677071107628 [Eh]
	-----------------------------------------------------------

  Dipole Moment: [D]
     X:     0.4822      Y:    -1.2123      Z:     0.1010     Total:     1.3086

*** Psi4 exiting successfully. Buy a developer a beer!
