                               Psi4 1.3.2 release

  ==> Input File <==

--------------------------------------------------------------------------
#psi4
#
memory 32 gb

molecule  {
0 1
  S        0.2011420    -0.7740460    -0.0125590
  O       -1.2094190     1.4662670    -0.0184260
  C        1.4537980     0.5412620     0.0354980
  C        2.8478080    -0.0717200    -0.0067890
  C       -1.2520204     0.4435266    -0.0195863
  C       -2.5578740    -0.5297180     0.0165720
  H        1.2827490     1.2035910    -0.8153790
  H        1.3032950     1.1268910     0.9448060
  H        3.0193930    -0.7314540     0.8473820
  H        3.0002020    -0.6488010    -0.9221550
  H        3.5981220     0.7231720     0.0226780
  H       -2.8743340    -0.6368580     1.0585370
  H       -2.4550100    -1.5249000    -0.4208200
  H       -3.3176630     0.0418070    -0.5195010
units angstrom
no_reorient  #important for SAPT in psi4, default
symmetry c1  #important for SAPT in psi4, default
}

set PROPERTIES_ORIGIN ["COM"]
properties('MP2/aug-cc-pvtz', properties = ['dipole'])
--------------------------------------------------------------------------

    Molecular point group: c1
  Charge       = 0
  Multiplicity = 1
  Basis Set: AUG-CC-PVTZ
    Blend: AUG-CC-PVTZ
  Basis Set: (AUG-CC-PVTZ AUX)
    Blend: AUG-CC-PVTZ-JKFIT

    Orbital Energies [Eh]
    ---------------------

    Doubly Occupied:

       1A    -91.941923     2A    -20.588381     3A    -11.354804
       4A    -11.253638     5A    -11.242485     6A    -11.223020
       7A     -8.943708     8A     -6.624708     9A     -6.623611
      10A     -6.622862    11A     -1.564192    12A     -1.069684
      13A     -0.999243    14A     -0.938120    15A     -0.819692
      16A     -0.759989    17A     -0.705079    18A     -0.674156
      19A     -0.659767    20A     -0.621998    21A     -0.572020
      22A     -0.562673    23A     -0.560650    24A     -0.525734
      25A     -0.508817    26A     -0.448015    27A     -0.363428
      28A     -0.353797

  @DF-RHF Final Energy:  -628.56389973327100

   => Energetics <=

    Nuclear Repulsion Energy =            295.3007852650330847
    One-Electron Energy =               -1449.4769819428859137
    Two-Electron Energy =                 525.6122969445818853
    Total Energy =                       -628.5638997332710005
  Basis Set: (AUG-CC-PVTZ AUX)
    Blend: AUG-CC-PVTZ-RI
    Molecular point group: c1

    Geometry (in Angstrom), charge = 0, multiplicity = 1:

       Center              X                  Y                   Z               Mass
    ------------   -----------------  -----------------  -----------------  -----------------
         S            0.234098993482    -0.801491294121    -0.010724474107    31.972071174400
         O           -1.176462006518     1.438821705879    -0.016591474107    15.994914619570
         C            1.486754993482     0.513816705879     0.037332525893    12.000000000000
         C            2.880764993482    -0.099165294121    -0.004954474107    12.000000000000
         C           -1.219063406518     0.416081305879    -0.017751774107    12.000000000000
         C           -2.524917006518    -0.557163294121     0.018406525893    12.000000000000
         H            1.315705993482     1.176145705879    -0.813544474107     1.007825032230
         H            1.336251993482     1.099445705879     0.946640525893     1.007825032230
         H            3.052349993482    -0.758899294121     0.849216525893     1.007825032230
         H            3.033158993482    -0.676246294121    -0.920320474107     1.007825032230
         H            3.631078993482     0.695726705879     0.024512525893     1.007825032230
         H           -2.841377006518    -0.664303294121     1.060371525893     1.007825032230
         H           -2.422053006518    -1.552345294121    -0.418985474107     1.007825032230
         H           -3.284706006518     0.014361705879    -0.517666474107     1.007825032230

  Basis Set: AUG-CC-PVTZ
    Blend: AUG-CC-PVTZ
  Basis Set: (AUG-CC-PVTZ AUX)
    Blend: AUG-CC-PVTZ-JKFIT
	 Reference Energy          =    -628.5638997332710005 [Eh]
	 Singles Energy            =      -0.0000000000000000 [Eh]
	 Same-Spin Energy          =      -0.2865291661378576 [Eh]
	 Opposite-Spin Energy      =      -0.9449171072659288 [Eh]
	 Correlation Energy        =      -1.2314462734037863 [Eh]
	 Total Energy              =    -629.7953460066747766 [Eh]

	 ================> DF-SCS-MP2 Energies <==================
	-----------------------------------------------------------
	 SCS Same-Spin Scale       =       0.3333333333333333 [-]
	 SCS Opposite-Spin Scale   =       1.2000000000000000 [-]
	 SCS Same-Spin Energy      =      -0.0955097220459525 [Eh]
	 SCS Opposite-Spin Energy  =      -1.1339005287191146 [Eh]
	 SCS Correlation Energy    =      -1.2294102507650670 [Eh]
	 SCS Total Energy          =    -629.7933099840361137 [Eh]
	-----------------------------------------------------------

  Dipole Moment: [D]
     X:    -0.2729      Y:     0.1460      Z:     0.0762     Total:     0.3187

*** Psi4 exiting successfully. Buy a developer a beer!
