                               Psi4 1.3.2 release

  ==> Input File <==

--------------------------------------------------------------------------
#psi4
#
memory 32 gb

molecule  {
0 1
  S        0.1265891    -0.8735161    -0.0130655
  O       -1.2094190     1.4662670    -0.0184260
  C        1.4537980     0.5412620     0.0354980
  C        2.8478080    -0.0717200    -0.0067890
  C       -1.2603440     0.2437000    -0.0198130
  C       -2.5578740    -0.5297180     0.0165720
  H        1.2827490     1.2035910    -0.8153790
  H        1.3032950     1.1268910     0.9448060
  H        3.0193930    -0.7314540     0.8473820
  H        3.0002020    -0.6488010    -0.9221550
  H        3.5981220     0.7231720     0.0226780
  H       -2.8743340    -0.6368580     1.0585370
  H       -2.4550100    -1.5249000    -0.4208200
  H       -3.3176630     0.0418070    -0.5195010
units angstrom
no_reorient  #important for SAPT in psi4, default
symmetry c1  #important for SAPT in psi4, default
}

set PROPERTIES_ORIGIN ["COM"]
properties('MP2/aug-cc-pvtz', properties = ['dipole'])
--------------------------------------------------------------------------

    Molecular point group: c1
  Charge       = 0
  Multiplicity = 1
  Basis Set: AUG-CC-PVTZ
    Blend: AUG-CC-PVTZ
  Basis Set: (AUG-CC-PVTZ AUX)
    Blend: AUG-CC-PVTZ-JKFIT

    Orbital Energies [Eh]
    ---------------------

    Doubly Occupied:

       1A    -91.973323     2A    -20.554789     3A    -11.364216
       4A    -11.273783     5A    -11.241833     6A    -11.231488
       7A     -8.973425     8A     -6.654476     9A     -6.653202
      10A     -6.652706    11A     -1.388684    12A     -1.073114
      13A     -1.031372    14A     -0.953076    15A     -0.835306
      16A     -0.731070    17A     -0.647320    18A     -0.632805
      19A     -0.628858    20A     -0.607849    21A     -0.575987
      22A     -0.556558    23A     -0.524535    24A     -0.520257
      25A     -0.501628    26A     -0.446586    27A     -0.409594
      28A     -0.375135

  @DF-RHF Final Energy:  -628.62444605937776

   => Energetics <=

    Nuclear Repulsion Energy =            291.2125861338667505
    One-Electron Energy =               -1441.6481200586617888
    Two-Electron Energy =                 521.8110878654172211
    Total Energy =                       -628.6244460593777603
  Basis Set: (AUG-CC-PVTZ AUX)
    Blend: AUG-CC-PVTZ-RI
    Molecular point group: c1

    Geometry (in Angstrom), charge = 0, multiplicity = 1:

       Center              X                  Y                   Z               Mass
    ------------   -----------------  -----------------  -----------------  -----------------
         S            0.183419050391    -0.847340260666    -0.011049158003    31.972071174400
         O           -1.152589049609     1.492442839334    -0.016409658003    15.994914619570
         C            1.510627950391     0.567437839334     0.037514341997    12.000000000000
         C            2.904637950391    -0.045544160666    -0.004772658003    12.000000000000
         C           -1.203514049609     0.269875839334    -0.017796658003    12.000000000000
         C           -2.501044049609    -0.503542160666     0.018588341997    12.000000000000
         H            1.339578950391     1.229766839334    -0.813362658003     1.007825032230
         H            1.360124950391     1.153066839334     0.946822341997     1.007825032230
         H            3.076222950391    -0.705278160666     0.849398341997     1.007825032230
         H            3.057031950391    -0.622625160666    -0.920138658003     1.007825032230
         H            3.654951950391     0.749347839334     0.024694341997     1.007825032230
         H           -2.817504049609    -0.610682160666     1.060553341997     1.007825032230
         H           -2.398180049609    -1.498724160666    -0.418803658003     1.007825032230
         H           -3.260833049609     0.067982839334    -0.517484658003     1.007825032230

  Basis Set: AUG-CC-PVTZ
    Blend: AUG-CC-PVTZ
  Basis Set: (AUG-CC-PVTZ AUX)
    Blend: AUG-CC-PVTZ-JKFIT
	 Reference Energy          =    -628.6244460593777603 [Eh]
	 Singles Energy            =      -0.0000000000000000 [Eh]
	 Same-Spin Energy          =      -0.2905338778278567 [Eh]
	 Opposite-Spin Energy      =      -0.9546253493406756 [Eh]
	 Correlation Energy        =      -1.2451592271685321 [Eh]
	 Total Energy              =    -629.8696052865462889 [Eh]

	 ================> DF-SCS-MP2 Energies <==================
	-----------------------------------------------------------
	 SCS Same-Spin Scale       =       0.3333333333333333 [-]
	 SCS Opposite-Spin Scale   =       1.2000000000000000 [-]
	 SCS Same-Spin Energy      =      -0.0968446259426189 [Eh]
	 SCS Opposite-Spin Energy  =      -1.1455504192088106 [Eh]
	 SCS Correlation Energy    =      -1.2423950451514294 [Eh]
	 SCS Total Energy          =    -629.8668411045291577 [Eh]
	-----------------------------------------------------------

  Dipole Moment: [D]
     X:     0.6030      Y:    -1.2051      Z:     0.1005     Total:     1.3512

*** Psi4 exiting successfully. Buy a developer a beer!
