                               Psi4 1.3.2 release

  ==> Input File <==

--------------------------------------------------------------------------
#psi4
#
memory 32 gb

molecule  {
0 1
  S        0.2685602    -0.6696668    -0.0160888
  O       -1.2094190     1.4662670    -0.0184260
  C        1.4537980     0.5412620     0.0354980
  C        2.8478080    -0.0717200    -0.0067890
  C       -1.2603440     0.2437000    -0.0198130
  C       -2.5578740    -0.5297180     0.0165720
  H        1.2827490     1.2035910    -0.8153790
  H        1.3032950     1.1268910     0.9448060
  H        3.0193930    -0.7314540     0.8473820
  H        3.0002020    -0.6488010    -0.9221550
  H        3.5981220     0.7231720     0.0226780
  H       -2.8743340    -0.6368580     1.0585370
  H       -2.4550100    -1.5249000    -0.4208200
  H       -3.3176630     0.0418070    -0.5195010
units angstrom
no_reorient  #important for SAPT in psi4, default
symmetry c1  #important for SAPT in psi4, default
}

set PROPERTIES_ORIGIN ["COM"]
properties('MP2/aug-cc-pvtz', properties = ['dipole'])
--------------------------------------------------------------------------

    Molecular point group: c1
  Charge       = 0
  Multiplicity = 1
  Basis Set: AUG-CC-PVTZ
    Blend: AUG-CC-PVTZ
  Basis Set: (AUG-CC-PVTZ AUX)
    Blend: AUG-CC-PVTZ-JKFIT

    Orbital Energies [Eh]
    ---------------------

    Doubly Occupied:

       1A    -91.961782     2A    -20.551964     3A    -11.364088
       4A    -11.252919     5A    -11.248892     6A    -11.233454
       7A     -8.966080     8A     -6.647412     9A     -6.646344
      10A     -6.645498    11A     -1.390334    12A     -1.108307
      13A     -1.029989    14A     -0.961832    15A     -0.837583
      16A     -0.732788    17A     -0.663498    18A     -0.643055
      19A     -0.630855    20A     -0.610088    21A     -0.579434
      22A     -0.554085    23A     -0.530389    24A     -0.523870
      25A     -0.502543    26A     -0.473513    27A     -0.404874
      28A     -0.361661

  @DF-RHF Final Energy:  -628.62489856827983

   => Energetics <=

    Nuclear Repulsion Energy =            297.1167906806150540
    One-Electron Energy =               -1453.3691171585001030
    Two-Electron Energy =                 527.6274279096053306
    Total Energy =                       -628.6248985682798320
  Basis Set: (AUG-CC-PVTZ AUX)
    Blend: AUG-CC-PVTZ-RI
    Molecular point group: c1

    Geometry (in Angstrom), charge = 0, multiplicity = 1:

       Center              X                  Y                   Z               Mass
    ------------   -----------------  -----------------  -----------------  -----------------
         S            0.281757273570    -0.706141256373    -0.013143288077    31.972071174400
         O           -1.196221926430     1.429792543627    -0.015480488077    15.994914619570
         C            1.466995073570     0.504787543627     0.038443511923    12.000000000000
         C            2.861005073570    -0.108194456373    -0.003843488077    12.000000000000
         C           -1.247146926430     0.207225543627    -0.016867488077    12.000000000000
         C           -2.544676926430    -0.566192456373     0.019517511923    12.000000000000
         H            1.295946073570     1.167116543627    -0.812433488077     1.007825032230
         H            1.316492073570     1.090416543627     0.947751511923     1.007825032230
         H            3.032590073570    -0.767928456373     0.850327511923     1.007825032230
         H            3.013399073570    -0.685275456373    -0.919209488077     1.007825032230
         H            3.611319073570     0.686697543627     0.025623511923     1.007825032230
         H           -2.861136926430    -0.673332456373     1.061482511923     1.007825032230
         H           -2.441812926430    -1.561374456373    -0.417874488077     1.007825032230
         H           -3.304465926430     0.005332543627    -0.516555488077     1.007825032230

  Basis Set: AUG-CC-PVTZ
    Blend: AUG-CC-PVTZ
  Basis Set: (AUG-CC-PVTZ AUX)
    Blend: AUG-CC-PVTZ-JKFIT
	 Reference Energy          =    -628.6248985682798320 [Eh]
	 Singles Energy            =      -0.0000000000000000 [Eh]
	 Same-Spin Energy          =      -0.2916824460567267 [Eh]
	 Opposite-Spin Energy      =      -0.9530531106988303 [Eh]
	 Correlation Energy        =      -1.2447355567555569 [Eh]
	 Total Energy              =    -629.8696341250354180 [Eh]

	 ================> DF-SCS-MP2 Energies <==================
	-----------------------------------------------------------
	 SCS Same-Spin Scale       =       0.3333333333333333 [-]
	 SCS Opposite-Spin Scale   =       1.2000000000000000 [-]
	 SCS Same-Spin Energy      =      -0.0972274820189089 [Eh]
	 SCS Opposite-Spin Energy  =      -1.1436637328385963 [Eh]
	 SCS Correlation Energy    =      -1.2408912148575053 [Eh]
	 SCS Total Energy          =    -629.8657897831373020 [Eh]
	-----------------------------------------------------------

  Dipole Moment: [D]
     X:     0.4822      Y:    -1.2124      Z:     0.1029     Total:     1.3088

*** Psi4 exiting successfully. Buy a developer a beer!
