                               Psi4 1.4a3.dev225

  ==> Input File <==

--------------------------------------------------------------------------
#psi4
#
memory 32 gb

molecule  {
0 1
  S        0.2011420    -0.7740460    -0.0125590
  O       -1.2094190     1.4662670    -0.0184260
  C        1.4537980     0.5412620     0.0354980
  C        2.8478080    -0.0717200    -0.0067890
  C       -1.2767564     0.2551292    -0.0198945
  C       -2.5578740    -0.5297180     0.0165720
  H        1.2827490     1.2035910    -0.8153790
  H        1.3032950     1.1268910     0.9448060
  H        3.0193930    -0.7314540     0.8473820
  H        3.0002020    -0.6488010    -0.9221550
  H        3.5981220     0.7231720     0.0226780
  H       -2.8743340    -0.6368580     1.0585370
  H       -2.4550100    -1.5249000    -0.4208200
  H       -3.3176630     0.0418070    -0.5195010
units angstrom
no_reorient  #important for SAPT in psi4, default
symmetry c1  #important for SAPT in psi4, default
}

set PROPERTIES_ORIGIN ["COM"]
properties('MP2/aug-cc-pvtz', properties = ['dipole'])
--------------------------------------------------------------------------

    Molecular point group: c1
  Charge       = 0
  Multiplicity = 1
  Basis Set: AUG-CC-PVTZ
    Blend: AUG-CC-PVTZ
  Basis Set: (AUG-CC-PVTZ AUX)
    Blend: AUG-CC-PVTZ-JKFIT

    Orbital Energies [Eh]
    ---------------------

    Doubly Occupied:

       1A    -91.966166     2A    -20.556587     3A    -11.365013
       4A    -11.261625     5A    -11.246326     6A    -11.230581
       7A     -8.967662     8A     -6.648790     9A     -6.647714
      10A     -6.647064    11A     -1.398526    12A     -1.084194
      13A     -1.032497    14A     -0.955292    15A     -0.833363
      16A     -0.733529    17A     -0.656589    18A     -0.635596
      19A     -0.634423    20A     -0.611393    21A     -0.577317
      22A     -0.555830    23A     -0.527298    24A     -0.519908
      25A     -0.503818    26A     -0.461168    27A     -0.406809
      28A     -0.367832

  @DF-RHF Final Energy:  -628.63321384635424

   => Energetics <=

    Nuclear Repulsion Energy =            293.8679842059830207
    One-Electron Energy =               -1446.9365760218984178
    Two-Electron Energy =                 524.4353779695611593
    Total Energy =                       -628.6332138463542378
  Basis Set: (AUG-CC-PVTZ AUX)
    Blend: AUG-CC-PVTZ-RI
    Molecular point group: c1

    Geometry (in Angstrom), charge = 0, multiplicity = 1:

       Center              X                  Y                   Z               Mass
    ------------   -----------------  -----------------  -----------------  -----------------
         S            0.236952335606    -0.779759314923    -0.010688922682    31.972071174400
         O           -1.173608664394     1.460553685077    -0.016555922682    15.994914619570
         C            1.489608335606     0.535548685077     0.037368077318    12.000000000000
         C            2.883618335606    -0.077433314923    -0.004918922682    12.000000000000
         C           -1.240946064394     0.249415885077    -0.018024422682    12.000000000000
         C           -2.522063664394    -0.535431314923     0.018442077318    12.000000000000
         H            1.318559335606     1.197877685077    -0.813508922682     1.007825032230
         H            1.339105335606     1.121177685077     0.946676077318     1.007825032230
         H            3.055203335606    -0.737167314923     0.849252077318     1.007825032230
         H            3.036012335606    -0.654514314923    -0.920284922682     1.007825032230
         H            3.633932335606     0.717458685077     0.024548077318     1.007825032230
         H           -2.838523664394    -0.642571314923     1.060407077318     1.007825032230
         H           -2.419199664394    -1.530613314923    -0.418949922682     1.007825032230
         H           -3.281852664394     0.036093685077    -0.517630922682     1.007825032230

  Basis Set: AUG-CC-PVTZ
    Blend: AUG-CC-PVTZ
  Basis Set: (AUG-CC-PVTZ AUX)
    Blend: AUG-CC-PVTZ-JKFIT
	 Reference Energy          =    -628.6332138463542378 [Eh]
	 Singles Energy            =      -0.0000000000000000 [Eh]
	 Same-Spin Energy          =      -0.2905767094403663 [Eh]
	 Opposite-Spin Energy      =      -0.9528969281475007 [Eh]
	 Correlation Energy        =      -1.2434736375878670 [Eh]
	 Total Energy              =    -629.8766874839420780 [Eh]

	 ================> DF-SCS-MP2 Energies <==================
	-----------------------------------------------------------
	 SCS Same-Spin Scale       =       0.3333333333333333 [-]
	 SCS Opposite-Spin Scale   =       1.2000000000000000 [-]
	 SCS Same-Spin Energy      =      -0.0968589031467888 [Eh]
	 SCS Opposite-Spin Energy  =      -1.1434763137770008 [Eh]
	 SCS Correlation Energy    =      -1.2403352169237896 [Eh]
	 SCS Total Energy          =    -629.8735490632780056 [Eh]
	-----------------------------------------------------------

  Dipole Moment: [D]
     X:     0.3418      Y:    -1.1335      Z:     0.1011     Total:     1.1882

*** Psi4 exiting successfully. Buy a developer a beer!
