                               Psi4 1.3.2 release

  ==> Input File <==

--------------------------------------------------------------------------
#psi4
#
memory 32 gb

molecule  {
0 1
  S        0.2357625    -0.7224449    -0.0143206
  O       -1.2094190     1.4662670    -0.0184260
  C        1.4537980     0.5412620     0.0354980
  C        2.8478080    -0.0717200    -0.0067890
  C       -1.2603440     0.2437000    -0.0198130
  C       -2.5578740    -0.5297180     0.0165720
  H        1.2827490     1.2035910    -0.8153790
  H        1.3032950     1.1268910     0.9448060
  H        3.0193930    -0.7314540     0.8473820
  H        3.0002020    -0.6488010    -0.9221550
  H        3.5981220     0.7231720     0.0226780
  H       -2.8743340    -0.6368580     1.0585370
  H       -2.4550100    -1.5249000    -0.4208200
  H       -3.3176630     0.0418070    -0.5195010
units angstrom
no_reorient  #important for SAPT in psi4, default
symmetry c1  #important for SAPT in psi4, default
}

set PROPERTIES_ORIGIN ["COM"]
properties('MP2/aug-cc-pvtz', properties = ['dipole'])
--------------------------------------------------------------------------

    Molecular point group: c1
  Charge       = 0
  Multiplicity = 1
  Basis Set: AUG-CC-PVTZ
    Blend: AUG-CC-PVTZ
  Basis Set: (AUG-CC-PVTZ AUX)
    Blend: AUG-CC-PVTZ-JKFIT

    Orbital Energies [Eh]
    ---------------------

    Doubly Occupied:

       1A    -91.965737     2A    -20.552955     3A    -11.364332
       4A    -11.257799     5A    -11.247304     6A    -11.232313
       7A     -8.968608     8A     -6.649836     9A     -6.648773
      10A     -6.648037    11A     -1.390009    12A     -1.096576
      13A     -1.030414    14A     -0.959891    15A     -0.836392
      16A     -0.732568    17A     -0.659270    18A     -0.639204
      19A     -0.630629    20A     -0.609537    21A     -0.578311
      22A     -0.554380    23A     -0.528359    24A     -0.521230
      25A     -0.502015    26A     -0.468730    27A     -0.407538
      28A     -0.366272

  @DF-RHF Final Energy:  -628.63111142630419

   => Energetics <=

    Nuclear Repulsion Energy =            295.5113337423815665
    One-Electron Energy =               -1450.1908559451553629
    Two-Electron Energy =                 526.0484107764696091
    Total Energy =                       -628.6311114263041873
  Basis Set: (AUG-CC-PVTZ AUX)
    Blend: AUG-CC-PVTZ-RI
    Molecular point group: c1

    Geometry (in Angstrom), charge = 0, multiplicity = 1:

       Center              X                  Y                   Z               Mass
    ------------   -----------------  -----------------  -----------------  -----------------
         S            0.259039498316    -0.742698728822    -0.011918520175    31.972071174400
         O           -1.186142001684     1.446013171178    -0.016023920175    15.994914619570
         C            1.477074998316     0.521008171178     0.037900079825    12.000000000000
         C            2.871084998316    -0.091973828822    -0.004386920175    12.000000000000
         C           -1.237067001684     0.223446171178    -0.017410920175    12.000000000000
         C           -2.534597001684    -0.549971828822     0.018974079825    12.000000000000
         H            1.306025998316     1.183337171178    -0.812976920175     1.007825032230
         H            1.326571998316     1.106637171178     0.947208079825     1.007825032230
         H            3.042669998316    -0.751707828822     0.849784079825     1.007825032230
         H            3.023478998316    -0.669054828822    -0.919752920175     1.007825032230
         H            3.621398998316     0.702918171178     0.025080079825     1.007825032230
         H           -2.851057001684    -0.657111828822     1.060939079825     1.007825032230
         H           -2.431733001684    -1.545153828822    -0.418417920175     1.007825032230
         H           -3.294386001684     0.021553171178    -0.517098920175     1.007825032230

  Basis Set: AUG-CC-PVTZ
    Blend: AUG-CC-PVTZ
  Basis Set: (AUG-CC-PVTZ AUX)
    Blend: AUG-CC-PVTZ-JKFIT
	 Reference Energy          =    -628.6311114263041873 [Eh]
	 Singles Energy            =      -0.0000000000000000 [Eh]
	 Same-Spin Energy          =      -0.2911763174170408 [Eh]
	 Opposite-Spin Energy      =      -0.9530940589330610 [Eh]
	 Correlation Energy        =      -1.2442703763501017 [Eh]
	 Total Energy              =    -629.8753818026542604 [Eh]

	 ================> DF-SCS-MP2 Energies <==================
	-----------------------------------------------------------
	 SCS Same-Spin Scale       =       0.3333333333333333 [-]
	 SCS Opposite-Spin Scale   =       1.2000000000000000 [-]
	 SCS Same-Spin Energy      =      -0.0970587724723469 [Eh]
	 SCS Opposite-Spin Energy  =      -1.1437128707196731 [Eh]
	 SCS Correlation Energy    =      -1.2407716431920199 [Eh]
	 SCS Total Energy          =    -629.8718830694962207 [Eh]
	-----------------------------------------------------------

  Dipole Moment: [D]
     X:     0.4862      Y:    -1.2204      Z:     0.1012     Total:     1.3175

*** Psi4 exiting successfully. Buy a developer a beer!
