                               Psi4 1.3.2 release

  ==> Input File <==

--------------------------------------------------------------------------
#psi4
#
memory 32 gb

molecule  {
0 1
  S        0.2011420    -0.7740460    -0.0125590
  O       -1.2094190     1.4662670    -0.0184260
  C        1.4765705     0.5191921     0.0354922
  C        2.8478080    -0.0717200    -0.0067890
  C       -1.2603440     0.2437000    -0.0198130
  C       -2.5578740    -0.5297180     0.0165720
  H        1.2827490     1.2035910    -0.8153790
  H        1.3032950     1.1268910     0.9448060
  H        3.0193930    -0.7314540     0.8473820
  H        3.0002020    -0.6488010    -0.9221550
  H        3.5981220     0.7231720     0.0226780
  H       -2.8743340    -0.6368580     1.0585370
  H       -2.4550100    -1.5249000    -0.4208200
  H       -3.3176630     0.0418070    -0.5195010
units angstrom
no_reorient  #important for SAPT in psi4, default
symmetry c1  #important for SAPT in psi4, default
}

set PROPERTIES_ORIGIN ["COM"]
properties('MP2/aug-cc-pvtz', properties = ['dipole'])
--------------------------------------------------------------------------

    Molecular point group: c1
  Charge       = 0
  Multiplicity = 1
  Basis Set: AUG-CC-PVTZ
    Blend: AUG-CC-PVTZ
  Basis Set: (AUG-CC-PVTZ AUX)
    Blend: AUG-CC-PVTZ-JKFIT

    Orbital Energies [Eh]
    ---------------------

    Doubly Occupied:

       1A    -91.968736     2A    -20.553895     3A    -11.364928
       4A    -11.264485     5A    -11.245947     6A    -11.230592
       7A     -8.970492     8A     -6.651649     9A     -6.650563
      10A     -6.649914    11A     -1.389718    12A     -1.089523
      13A     -1.032431    14A     -0.960075    15A     -0.832569
      16A     -0.731980    17A     -0.656132    18A     -0.634699
      19A     -0.630417    20A     -0.609210    21A     -0.579919
      22A     -0.556268    23A     -0.528661    24A     -0.523547
      25A     -0.498209    26A     -0.459886    27A     -0.409212
      28A     -0.368776

  @DF-RHF Final Energy:  -628.63127641184246

   => Energetics <=

    Nuclear Repulsion Energy =            294.0423220617681181
    One-Electron Energy =               -1447.2623255384628465
    Two-Electron Energy =                 524.5887270648522644
    Total Energy =                       -628.6312764118424639
  Basis Set: (AUG-CC-PVTZ AUX)
    Blend: AUG-CC-PVTZ-RI
    Molecular point group: c1

    Geometry (in Angstrom), charge = 0, multiplicity = 1:

       Center              X                  Y                   Z               Mass
    ------------   -----------------  -----------------  -----------------  -----------------
         S            0.232432286860    -0.775895133441    -0.010697654813    31.972071174400
         O           -1.178128713140     1.464417866559    -0.016564654813    15.994914619570
         C            1.507860786860     0.517342966559     0.037353545187    12.000000000000
         C            2.879098286860    -0.073569133441    -0.004927654813    12.000000000000
         C           -1.229053713140     0.241850866559    -0.017951654813    12.000000000000
         C           -2.526583713140    -0.531567133441     0.018433345187    12.000000000000
         H            1.314039286860     1.201741866559    -0.813517654813     1.007825032230
         H            1.334585286860     1.125041866559     0.946667345187     1.007825032230
         H            3.050683286860    -0.733303133441     0.849243345187     1.007825032230
         H            3.031492286860    -0.650650133441    -0.920293654813     1.007825032230
         H            3.629412286860     0.721322866559     0.024539345187     1.007825032230
         H           -2.843043713140    -0.638707133441     1.060398345187     1.007825032230
         H           -2.423719713140    -1.526749133441    -0.418958654813     1.007825032230
         H           -3.286372713140     0.039957866559    -0.517639654813     1.007825032230

  Basis Set: AUG-CC-PVTZ
    Blend: AUG-CC-PVTZ
  Basis Set: (AUG-CC-PVTZ AUX)
    Blend: AUG-CC-PVTZ-JKFIT
	 Reference Energy          =    -628.6312764118424639 [Eh]
	 Singles Energy            =      -0.0000000000000000 [Eh]
	 Same-Spin Energy          =      -0.2910191891547568 [Eh]
	 Opposite-Spin Energy      =      -0.9535154678984272 [Eh]
	 Correlation Energy        =      -1.2445346570531841 [Eh]
	 Total Energy              =    -629.8758110688957004 [Eh]

	 ================> DF-SCS-MP2 Energies <==================
	-----------------------------------------------------------
	 SCS Same-Spin Scale       =       0.3333333333333333 [-]
	 SCS Opposite-Spin Scale   =       1.2000000000000000 [-]
	 SCS Same-Spin Energy      =      -0.0970063963849189 [Eh]
	 SCS Opposite-Spin Energy  =      -1.1442185614781126 [Eh]
	 SCS Correlation Energy    =      -1.2412249578630314 [Eh]
	 SCS Total Energy          =    -629.8725013697054465 [Eh]
	-----------------------------------------------------------

  Dipole Moment: [D]
     X:     0.5246      Y:    -1.2162      Z:     0.0999     Total:     1.3282

*** Psi4 exiting successfully. Buy a developer a beer!
