                               Psi4 1.4a3.dev225

  ==> Input File <==

--------------------------------------------------------------------------
#psi4
#
memory 32 gb

molecule  {
0 1
  S        0.2011420    -0.7740460    -0.0125590
  O       -1.2094190     1.4662670    -0.0184260
  C        1.4537980     0.5412620     0.0354980
  C        2.8478080    -0.0717200    -0.0067890
  C       -1.2603440     0.2437000    -0.0198130
  C       -2.5750486    -0.5399553     0.0170536
  H        1.2827490     1.2035910    -0.8153790
  H        1.3032950     1.1268910     0.9448060
  H        3.0193930    -0.7314540     0.8473820
  H        3.0002020    -0.6488010    -0.9221550
  H        3.5981220     0.7231720     0.0226780
  H       -2.8743340    -0.6368580     1.0585370
  H       -2.4550100    -1.5249000    -0.4208200
  H       -3.3176630     0.0418070    -0.5195010
units angstrom
no_reorient  #important for SAPT in psi4, default
symmetry c1  #important for SAPT in psi4, default
}

set PROPERTIES_ORIGIN ["COM"]
properties('MP2/aug-cc-pvtz', properties = ['dipole'])
--------------------------------------------------------------------------

    Molecular point group: c1
  Charge       = 0
  Multiplicity = 1
  Basis Set: AUG-CC-PVTZ
    Blend: AUG-CC-PVTZ
  Basis Set: (AUG-CC-PVTZ AUX)
    Blend: AUG-CC-PVTZ-JKFIT

    Orbital Energies [Eh]
    ---------------------

    Doubly Occupied:

       1A    -91.969094     2A    -20.554118     3A    -11.365146
       4A    -11.263031     5A    -11.245078     6A    -11.231683
       7A     -8.970802     8A     -6.651961     9A     -6.650839
      10A     -6.650206    11A     -1.389412    12A     -1.086590
      13A     -1.028392    14A     -0.958008    15A     -0.835787
      16A     -0.731016    17A     -0.654736    18A     -0.636311
      19A     -0.627378    20A     -0.609865    21A     -0.579376
      22A     -0.555709    23A     -0.527869    24A     -0.520853
      25A     -0.502693    26A     -0.461981    27A     -0.407721
      28A     -0.370083

  @DF-RHF Final Energy:  -628.63229067626935

   => Energetics <=

    Nuclear Repulsion Energy =            293.6518267280147825
    One-Electron Energy =               -1446.4967583401073625
    Two-Electron Energy =                 524.2126409358231740
    Total Energy =                       -628.6322906762693492
  Basis Set: (AUG-CC-PVTZ AUX)
    Blend: AUG-CC-PVTZ-RI
    Molecular point group: c1

    Geometry (in Angstrom), charge = 0, multiplicity = 1:

       Center              X                  Y                   Z               Mass
    ------------   -----------------  -----------------  -----------------  -----------------
         S            0.237040256748    -0.777260045149    -0.010753877281    31.972071174400
         O           -1.173520743252     1.463052954851    -0.016620877281    15.994914619570
         C            1.489696256748     0.538047954851     0.037303122719    12.000000000000
         C            2.883706256748    -0.074934045149    -0.004983877281    12.000000000000
         C           -1.224445743252     0.240485954851    -0.018007877281    12.000000000000
         C           -2.539150343252    -0.543169345149     0.018858722719    12.000000000000
         H            1.318647256748     1.200376954851    -0.813573877281     1.007825032230
         H            1.339193256748     1.123676954851     0.946611122719     1.007825032230
         H            3.055291256748    -0.734668045149     0.849187122719     1.007825032230
         H            3.036100256748    -0.652015045149    -0.920349877281     1.007825032230
         H            3.634020256748     0.719957954851     0.024483122719     1.007825032230
         H           -2.838435743252    -0.640072045149     1.060342122719     1.007825032230
         H           -2.419111743252    -1.528114045149    -0.419014877281     1.007825032230
         H           -3.281764743252     0.038592954851    -0.517695877281     1.007825032230

  Basis Set: AUG-CC-PVTZ
    Blend: AUG-CC-PVTZ
  Basis Set: (AUG-CC-PVTZ AUX)
    Blend: AUG-CC-PVTZ-JKFIT
	 Reference Energy          =    -628.6322906762693492 [Eh]
	 Singles Energy            =      -0.0000000000000000 [Eh]
	 Same-Spin Energy          =      -0.2907070204645356 [Eh]
	 Opposite-Spin Energy      =      -0.9532950299007594 [Eh]
	 Correlation Energy        =      -1.2440020503652951 [Eh]
	 Total Energy              =    -629.8762927266346878 [Eh]

	 ================> DF-SCS-MP2 Energies <==================
	-----------------------------------------------------------
	 SCS Same-Spin Scale       =       0.3333333333333333 [-]
	 SCS Opposite-Spin Scale   =       1.2000000000000000 [-]
	 SCS Same-Spin Energy      =      -0.0969023401548452 [Eh]
	 SCS Opposite-Spin Energy  =      -1.1439540358809113 [Eh]
	 SCS Correlation Energy    =      -1.2408563760357565 [Eh]
	 SCS Total Energy          =    -629.8731470523050575 [Eh]
	-----------------------------------------------------------

  Dipole Moment: [D]
     X:     0.5397      Y:    -1.2060      Z:     0.0972     Total:     1.3248

*** Psi4 exiting successfully. Buy a developer a beer!
