                               Psi4 1.3.2 release

  ==> Input File <==

--------------------------------------------------------------------------
#psi4
#
memory 32 gb

molecule  {
0 1
  S        0.2243012    -0.7956748    -0.0137893
  O       -1.2094190     1.4662670    -0.0184260
  C        1.4537980     0.5412620     0.0354980
  C        2.8478080    -0.0717200    -0.0067890
  C       -1.2603440     0.2437000    -0.0198130
  C       -2.5578740    -0.5297180     0.0165720
  H        1.2827490     1.2035910    -0.8153790
  H        1.3032950     1.1268910     0.9448060
  H        3.0193930    -0.7314540     0.8473820
  H        3.0002020    -0.6488010    -0.9221550
  H        3.5981220     0.7231720     0.0226780
  H       -2.8743340    -0.6368580     1.0585370
  H       -2.4550100    -1.5249000    -0.4208200
  H       -3.3176630     0.0418070    -0.5195010
units angstrom
no_reorient  #important for SAPT in psi4, default
symmetry c1  #important for SAPT in psi4, default
}

set PROPERTIES_ORIGIN ["COM"]
properties('MP2/aug-cc-pvtz', properties = ['dipole'])
--------------------------------------------------------------------------

    Molecular point group: c1
  Charge       = 0
  Multiplicity = 1
  Basis Set: AUG-CC-PVTZ
    Blend: AUG-CC-PVTZ
  Basis Set: (AUG-CC-PVTZ AUX)
    Blend: AUG-CC-PVTZ-JKFIT

    Orbital Energies [Eh]
    ---------------------

    Doubly Occupied:

       1A    -91.969261     2A    -20.557122     3A    -11.367634
       4A    -11.262140     5A    -11.246522     6A    -11.230523
       7A     -8.970344     8A     -6.651456     9A     -6.650353
      10A     -6.649715    11A     -1.391248    12A     -1.084538
      13A     -1.029758    14A     -0.954607    15A     -0.832875
      16A     -0.734068    17A     -0.654786    18A     -0.635404
      19A     -0.630591    20A     -0.609246    21A     -0.577499
      22A     -0.554787    23A     -0.525971    24A     -0.518460
      25A     -0.502000    26A     -0.462803    27A     -0.408108
      28A     -0.369374

  @DF-RHF Final Energy:  -628.63130273737522

   => Energetics <=

    Nuclear Repulsion Energy =            293.1316718633879645
    One-Electron Energy =               -1445.4635617457299759
    Two-Electron Energy =                 523.7005871449667893
    Total Energy =                       -628.6313027373752220
  Basis Set: (AUG-CC-PVTZ AUX)
    Blend: AUG-CC-PVTZ-RI
    Molecular point group: c1

    Geometry (in Angstrom), charge = 0, multiplicity = 1:

       Center              X                  Y                   Z               Mass
    ------------   -----------------  -----------------  -----------------  -----------------
         S            0.251100672194    -0.793422420120    -0.011550507967    31.972071174400
         O           -1.182619527806     1.468519379880    -0.016187207967    15.994914619570
         C            1.480597472194     0.543514379880     0.037736792033    12.000000000000
         C            2.874607472194    -0.069467620120    -0.004550207967    12.000000000000
         C           -1.233544527806     0.245952379880    -0.017574207967    12.000000000000
         C           -2.531074527806    -0.527465620120     0.018810792033    12.000000000000
         H            1.309548472194     1.205843379880    -0.813140207967     1.007825032230
         H            1.330094472194     1.129143379880     0.947044792033     1.007825032230
         H            3.046192472194    -0.729201620120     0.849620792033     1.007825032230
         H            3.027001472194    -0.646548620120    -0.919916207967     1.007825032230
         H            3.624921472194     0.725424379880     0.024916792033     1.007825032230
         H           -2.847534527806    -0.634605620120     1.060775792033     1.007825032230
         H           -2.428210527806    -1.522647620120    -0.418581207967     1.007825032230
         H           -3.290863527806     0.044059379880    -0.517262207967     1.007825032230

  Basis Set: AUG-CC-PVTZ
    Blend: AUG-CC-PVTZ
  Basis Set: (AUG-CC-PVTZ AUX)
    Blend: AUG-CC-PVTZ-JKFIT
	 Reference Energy          =    -628.6313027373752220 [Eh]
	 Singles Energy            =      -0.0000000000000000 [Eh]
	 Same-Spin Energy          =      -0.2908153021183296 [Eh]
	 Opposite-Spin Energy      =      -0.9538555319789482 [Eh]
	 Correlation Energy        =      -1.2446708340972779 [Eh]
	 Total Energy              =    -629.8759735714725139 [Eh]

	 ================> DF-SCS-MP2 Energies <==================
	-----------------------------------------------------------
	 SCS Same-Spin Scale       =       0.3333333333333333 [-]
	 SCS Opposite-Spin Scale   =       1.2000000000000000 [-]
	 SCS Same-Spin Energy      =      -0.0969384340394432 [Eh]
	 SCS Opposite-Spin Energy  =      -1.1446266383747379 [Eh]
	 SCS Correlation Energy    =      -1.2415650724141811 [Eh]
	 SCS Total Energy          =    -629.8728678097894544 [Eh]
	-----------------------------------------------------------

  Dipole Moment: [D]
     X:     0.3789      Y:    -1.1599      Z:     0.1014     Total:     1.2244

*** Psi4 exiting successfully. Buy a developer a beer!
