                               Psi4 1.4a3.dev225

  ==> Input File <==

--------------------------------------------------------------------------
#psi4
#
memory 32 gb

molecule  {
0 1
  S        0.2011420    -0.7740460    -0.0125590
  O       -1.2094190     1.4662670    -0.0184260
  C        1.4537980     0.5412620     0.0354980
  C        2.8478080    -0.0717200    -0.0067890
  C       -1.2611764     0.2237173    -0.0198357
  C       -2.5578740    -0.5297180     0.0165720
  H        1.2827490     1.2035910    -0.8153790
  H        1.3032950     1.1268910     0.9448060
  H        3.0193930    -0.7314540     0.8473820
  H        3.0002020    -0.6488010    -0.9221550
  H        3.5981220     0.7231720     0.0226780
  H       -2.8743340    -0.6368580     1.0585370
  H       -2.4550100    -1.5249000    -0.4208200
  H       -3.3176630     0.0418070    -0.5195010
units angstrom
no_reorient  #important for SAPT in psi4, default
symmetry c1  #important for SAPT in psi4, default
}

set PROPERTIES_ORIGIN ["COM"]
properties('MP2/aug-cc-pvtz', properties = ['dipole'])
--------------------------------------------------------------------------

    Molecular point group: c1
  Charge       = 0
  Multiplicity = 1
  Basis Set: AUG-CC-PVTZ
    Blend: AUG-CC-PVTZ
  Basis Set: (AUG-CC-PVTZ AUX)
    Blend: AUG-CC-PVTZ-JKFIT

    Orbital Energies [Eh]
    ---------------------

    Doubly Occupied:

       1A    -91.971192     2A    -20.550640     3A    -11.365303
       4A    -11.263835     5A    -11.245826     6A    -11.232382
       7A     -8.972969     8A     -6.654147     9A     -6.653014
      10A     -6.652397    11A     -1.375113    12A     -1.088636
      13A     -1.033767    14A     -0.960011    15A     -0.837139
      16A     -0.731740    17A     -0.653533    18A     -0.636702
      19A     -0.626015    20A     -0.608669    21A     -0.578073
      22A     -0.553421    23A     -0.525363    24A     -0.519092
      25A     -0.496713    26A     -0.463590    27A     -0.411476
      28A     -0.370909

  @DF-RHF Final Energy:  -628.62981840895418

   => Energetics <=

    Nuclear Repulsion Energy =            293.9296001785313024
    One-Electron Energy =               -1447.0555017572767156
    Two-Electron Energy =                 524.4960831697912909
    Total Energy =                       -628.6298184089541792
  Basis Set: (AUG-CC-PVTZ AUX)
    Blend: AUG-CC-PVTZ-RI
    Molecular point group: c1

    Geometry (in Angstrom), charge = 0, multiplicity = 1:

       Center              X                  Y                   Z               Mass
    ------------   -----------------  -----------------  -----------------  -----------------
         S            0.235155154562    -0.776135895718    -0.010695705368    31.972071174400
         O           -1.175405845438     1.464177104282    -0.016562705368    15.994914619570
         C            1.487811154562     0.539172104282     0.037361294632    12.000000000000
         C            2.881821154562    -0.073809895718    -0.004925705368    12.000000000000
         C           -1.227163245438     0.221627404282    -0.017972405368    12.000000000000
         C           -2.523860845438    -0.531807895718     0.018435294632    12.000000000000
         H            1.316762154562     1.201501104282    -0.813515705368     1.007825032230
         H            1.337308154562     1.124801104282     0.946669294632     1.007825032230
         H            3.053406154562    -0.733543895718     0.849245294632     1.007825032230
         H            3.034215154562    -0.650890895718    -0.920291705368     1.007825032230
         H            3.632135154562     0.721082104282     0.024541294632     1.007825032230
         H           -2.840320845438    -0.638947895718     1.060400294632     1.007825032230
         H           -2.420996845438    -1.526989895718    -0.418956705368     1.007825032230
         H           -3.283649845438     0.039717104282    -0.517637705368     1.007825032230

  Basis Set: AUG-CC-PVTZ
    Blend: AUG-CC-PVTZ
  Basis Set: (AUG-CC-PVTZ AUX)
    Blend: AUG-CC-PVTZ-JKFIT
	 Reference Energy          =    -628.6298184089541792 [Eh]
	 Singles Energy            =      -0.0000000000000000 [Eh]
	 Same-Spin Energy          =      -0.2913911815026536 [Eh]
	 Opposite-Spin Energy      =      -0.9544360718177889 [Eh]
	 Correlation Energy        =      -1.2458272533204426 [Eh]
	 Total Energy              =    -629.8756456622746782 [Eh]

	 ================> DF-SCS-MP2 Energies <==================
	-----------------------------------------------------------
	 SCS Same-Spin Scale       =       0.3333333333333333 [-]
	 SCS Opposite-Spin Scale   =       1.2000000000000000 [-]
	 SCS Same-Spin Energy      =      -0.0971303938342179 [Eh]
	 SCS Opposite-Spin Energy  =      -1.1453232861813467 [Eh]
	 SCS Correlation Energy    =      -1.2424536800155646 [Eh]
	 SCS Total Energy          =    -629.8722720889697939 [Eh]
	-----------------------------------------------------------

  Dipole Moment: [D]
     X:     0.5795      Y:    -1.3274      Z:     0.1027     Total:     1.4521

*** Psi4 exiting successfully. Buy a developer a beer!
