                               Psi4 1.3.2 release

  ==> Input File <==

--------------------------------------------------------------------------
#psi4
#
memory 32 gb

molecule  {
0 1
  S        0.2011420    -0.7740460    -0.0125590
  O       -1.2094190     1.4662670    -0.0184260
  C        1.5227389     0.6136510     0.0381429
  C        2.8478080    -0.0717200    -0.0067890
  C       -1.2603440     0.2437000    -0.0198130
  C       -2.5578740    -0.5297180     0.0165720
  H        1.2827490     1.2035910    -0.8153790
  H        1.3032950     1.1268910     0.9448060
  H        3.0193930    -0.7314540     0.8473820
  H        3.0002020    -0.6488010    -0.9221550
  H        3.5981220     0.7231720     0.0226780
  H       -2.8743340    -0.6368580     1.0585370
  H       -2.4550100    -1.5249000    -0.4208200
  H       -3.3176630     0.0418070    -0.5195010
units angstrom
no_reorient  #important for SAPT in psi4, default
symmetry c1  #important for SAPT in psi4, default
}

set PROPERTIES_ORIGIN ["COM"]
properties('MP2/aug-cc-pvtz', properties = ['dipole'])
--------------------------------------------------------------------------

    Molecular point group: c1
  Charge       = 0
  Multiplicity = 1
  Basis Set: AUG-CC-PVTZ
    Blend: AUG-CC-PVTZ
  Basis Set: (AUG-CC-PVTZ AUX)
    Blend: AUG-CC-PVTZ-JKFIT

    Orbital Energies [Eh]
    ---------------------

    Doubly Occupied:

       1A    -91.964202     2A    -20.551017     3A    -11.362262
       4A    -11.267604     5A    -11.243396     6A    -11.232595
       7A     -8.965180     8A     -6.646242     9A     -6.645085
      10A     -6.644551    11A     -1.387236    12A     -1.081926
      13A     -1.031700    14A     -0.954415    15A     -0.842275
      16A     -0.729326    17A     -0.648678    18A     -0.647028
      19A     -0.627898    20A     -0.608304    21A     -0.576488
      22A     -0.564340    23A     -0.531403    24A     -0.527717
      25A     -0.505407    26A     -0.437593    27A     -0.406208
      28A     -0.369089

  @DF-RHF Final Energy:  -628.62736668036507

   => Energetics <=

    Nuclear Repulsion Energy =            292.5452174603385060
    One-Electron Energy =               -1444.3468383121576153
    Two-Electron Energy =                 523.1742541714539811
    Total Energy =                       -628.6273666803650713
  Basis Set: (AUG-CC-PVTZ AUX)
    Blend: AUG-CC-PVTZ-RI
    Molecular point group: c1

    Geometry (in Angstrom), charge = 0, multiplicity = 1:

       Center              X                  Y                   Z               Mass
    ------------   -----------------  -----------------  -----------------  -----------------
         S            0.227106678818    -0.786791137578    -0.011003417830    31.972071174400
         O           -1.183454321182     1.453521862422    -0.016870417830    15.994914619570
         C            1.548703578818     0.600905862422     0.039698482170    12.000000000000
         C            2.873772678818    -0.084465137578    -0.005233417830    12.000000000000
         C           -1.234379321182     0.230954862422    -0.018257417830    12.000000000000
         C           -2.531909321182    -0.542463137578     0.018127582170    12.000000000000
         H            1.308713678818     1.190845862422    -0.813823417830     1.007825032230
         H            1.329259678818     1.114145862422     0.946361582170     1.007825032230
         H            3.045357678818    -0.744199137578     0.848937582170     1.007825032230
         H            3.026166678818    -0.661546137578    -0.920599417830     1.007825032230
         H            3.624086678818     0.710426862422     0.024233582170     1.007825032230
         H           -2.848369321182    -0.649603137578     1.060092582170     1.007825032230
         H           -2.429045321182    -1.537645137578    -0.419264417830     1.007825032230
         H           -3.291698321182     0.029061862422    -0.517945417830     1.007825032230

  Basis Set: AUG-CC-PVTZ
    Blend: AUG-CC-PVTZ
  Basis Set: (AUG-CC-PVTZ AUX)
    Blend: AUG-CC-PVTZ-JKFIT
	 Reference Energy          =    -628.6273666803650713 [Eh]
	 Singles Energy            =      -0.0000000000000000 [Eh]
	 Same-Spin Energy          =      -0.2905737259762952 [Eh]
	 Opposite-Spin Energy      =      -0.9532683924995142 [Eh]
	 Correlation Energy        =      -1.2438421184758095 [Eh]
	 Total Energy              =    -629.8712087988408257 [Eh]

	 ================> DF-SCS-MP2 Energies <==================
	-----------------------------------------------------------
	 SCS Same-Spin Scale       =       0.3333333333333333 [-]
	 SCS Opposite-Spin Scale   =       1.2000000000000000 [-]
	 SCS Same-Spin Energy      =      -0.0968579086587651 [Eh]
	 SCS Opposite-Spin Energy  =      -1.1439220709994171 [Eh]
	 SCS Correlation Energy    =      -1.2407799796581822 [Eh]
	 SCS Total Energy          =    -629.8681466600232852 [Eh]
	-----------------------------------------------------------

  Dipole Moment: [D]
     X:     0.7086      Y:    -1.1456      Z:     0.1042     Total:     1.3511

*** Psi4 exiting successfully. Buy a developer a beer!
