                               Psi4 1.3.2 release

  ==> Input File <==

--------------------------------------------------------------------------
#psi4
#
memory 32 gb

molecule  {
0 1
  S        0.2011420    -0.7740460    -0.0125590
  O       -1.2094190     1.4662670    -0.0184260
  C        1.4537980     0.5412620     0.0354980
  C        2.8478080    -0.0717200    -0.0067890
  C       -1.2645058     0.1437867    -0.0199264
  C       -2.5578740    -0.5297180     0.0165720
  H        1.2827490     1.2035910    -0.8153790
  H        1.3032950     1.1268910     0.9448060
  H        3.0193930    -0.7314540     0.8473820
  H        3.0002020    -0.6488010    -0.9221550
  H        3.5981220     0.7231720     0.0226780
  H       -2.8743340    -0.6368580     1.0585370
  H       -2.4550100    -1.5249000    -0.4208200
  H       -3.3176630     0.0418070    -0.5195010
units angstrom
no_reorient  #important for SAPT in psi4, default
symmetry c1  #important for SAPT in psi4, default
}

set PROPERTIES_ORIGIN ["COM"]
properties('MP2/aug-cc-pvtz', properties = ['dipole'])
--------------------------------------------------------------------------

    Molecular point group: c1
  Charge       = 0
  Multiplicity = 1
  Basis Set: AUG-CC-PVTZ
    Blend: AUG-CC-PVTZ
  Basis Set: (AUG-CC-PVTZ AUX)
    Blend: AUG-CC-PVTZ-JKFIT

    Orbital Energies [Eh]
    ---------------------

    Doubly Occupied:

       1A    -91.979594     2A    -20.538098     3A    -11.368224
       4A    -11.267409     5A    -11.246606     6A    -11.235320
       7A     -8.981654     8A     -6.662910     9A     -6.661720
      10A     -6.661183    11A     -1.322838    12A     -1.095512
      13A     -1.045218    14A     -0.968939    15A     -0.843254
      16A     -0.731849    17A     -0.649272    18A     -0.638940
      19A     -0.614765    20A     -0.609297    21A     -0.578593
      22A     -0.546528    23A     -0.524586    24A     -0.516791
      25A     -0.475024    26A     -0.466475    27A     -0.415260
      28A     -0.372694

  @DF-RHF Final Energy:  -628.60931787748905

   => Energetics <=

    Nuclear Repulsion Energy =            293.7589935968929922
    One-Electron Energy =               -1446.6995134037197204
    Two-Electron Energy =                 524.3312019293375670
    Total Energy =                       -628.6093178774890475
  Basis Set: (AUG-CC-PVTZ AUX)
    Blend: AUG-CC-PVTZ-RI
    Molecular point group: c1

    Geometry (in Angstrom), charge = 0, multiplicity = 1:

       Center              X                  Y                   Z               Mass
    ------------   -----------------  -----------------  -----------------  -----------------
         S            0.235539206845    -0.766915757136    -0.010685242960    31.972071174400
         O           -1.175021793155     1.473397242864    -0.016552242960    15.994914619570
         C            1.488195206845     0.548392242864     0.037371757040    12.000000000000
         C            2.882205206845    -0.064589757136    -0.004915242960    12.000000000000
         C           -1.230108593155     0.150916942864    -0.018052642960    12.000000000000
         C           -2.523476793155    -0.522587757136     0.018445757040    12.000000000000
         H            1.317146206845     1.210721242864    -0.813505242960     1.007825032230
         H            1.337692206845     1.134021242864     0.946679757040     1.007825032230
         H            3.053790206845    -0.724323757136     0.849255757040     1.007825032230
         H            3.034599206845    -0.641670757136    -0.920281242960     1.007825032230
         H            3.632519206845     0.730302242864     0.024551757040     1.007825032230
         H           -2.839936793155    -0.629727757136     1.060410757040     1.007825032230
         H           -2.420612793155    -1.517769757136    -0.418946242960     1.007825032230
         H           -3.283265793155     0.048937242864    -0.517627242960     1.007825032230

  Basis Set: AUG-CC-PVTZ
    Blend: AUG-CC-PVTZ
  Basis Set: (AUG-CC-PVTZ AUX)
    Blend: AUG-CC-PVTZ-JKFIT
	 Reference Energy          =    -628.6093178774890475 [Eh]
	 Singles Energy            =      -0.0000000000000000 [Eh]
	 Same-Spin Energy          =      -0.2938726220428122 [Eh]
	 Opposite-Spin Energy      =      -0.9589431662829897 [Eh]
	 Correlation Energy        =      -1.2528157883258020 [Eh]
	 Total Energy              =    -629.8621336658148948 [Eh]

	 ================> DF-SCS-MP2 Energies <==================
	-----------------------------------------------------------
	 SCS Same-Spin Scale       =       0.3333333333333333 [-]
	 SCS Opposite-Spin Scale   =       1.2000000000000000 [-]
	 SCS Same-Spin Energy      =      -0.0979575406809374 [Eh]
	 SCS Opposite-Spin Energy  =      -1.1507317995395876 [Eh]
	 SCS Correlation Energy    =      -1.2486893402205250 [Eh]
	 SCS Total Energy          =    -629.8580072177095417 [Eh]
	-----------------------------------------------------------

  Dipole Moment: [D]
     X:     0.8434      Y:    -1.6934      Z:     0.1128     Total:     1.8951

*** Psi4 exiting successfully. Buy a developer a beer!
