                               Psi4 1.3.2 release

  ==> Input File <==

--------------------------------------------------------------------------
#psi4
#
memory 32 gb

molecule  {
0 1
  S        0.2536300    -0.8217607     0.0925735
  O       -1.2094190     1.4662670    -0.0184260
  C        1.4537980     0.5412620     0.0354980
  C        2.8478080    -0.0717200    -0.0067890
  C       -1.2603440     0.2437000    -0.0198130
  C       -2.5578740    -0.5297180     0.0165720
  H        1.2827490     1.2035910    -0.8153790
  H        1.3032950     1.1268910     0.9448060
  H        3.0193930    -0.7314540     0.8473820
  H        3.0002020    -0.6488010    -0.9221550
  H        3.5981220     0.7231720     0.0226780
  H       -2.8743340    -0.6368580     1.0585370
  H       -2.4550100    -1.5249000    -0.4208200
  H       -3.3176630     0.0418070    -0.5195010
units angstrom
no_reorient  #important for SAPT in psi4, default
symmetry c1  #important for SAPT in psi4, default
}

set PROPERTIES_ORIGIN ["COM"]
properties('MP2/aug-cc-pvtz', properties = ['dipole'])
--------------------------------------------------------------------------

    Molecular point group: c1
  Charge       = 0
  Multiplicity = 1
  Basis Set: AUG-CC-PVTZ
    Blend: AUG-CC-PVTZ
  Basis Set: (AUG-CC-PVTZ AUX)
    Blend: AUG-CC-PVTZ-JKFIT

    Orbital Energies [Eh]
    ---------------------

    Doubly Occupied:

       1A    -91.969221     2A    -20.561771     3A    -11.371792
       4A    -11.261009     5A    -11.247794     6A    -11.229089
       7A     -8.969579     8A     -6.650635     9A     -6.649544
      10A     -6.648894    11A     -1.393670    12A     -1.081697
      13A     -1.028743    14A     -0.950106    15A     -0.829369
      16A     -0.736528    17A     -0.654559    18A     -0.633805
      19A     -0.631364    20A     -0.609650    21A     -0.577845
      22A     -0.554353    23A     -0.525337    24A     -0.516788
      25A     -0.502595    26A     -0.462826    27A     -0.406201
      28A     -0.367865

  @DF-RHF Final Energy:  -628.62759186081098

   => Energetics <=

    Nuclear Repulsion Energy =            292.0126017316615048
    One-Electron Energy =               -1443.2351231936891054
    Two-Electron Energy =                 522.5949296012165632
    Total Energy =                       -628.6275918608109805
  Basis Set: (AUG-CC-PVTZ AUX)
    Blend: AUG-CC-PVTZ-RI
    Molecular point group: c1

    Geometry (in Angstrom), charge = 0, multiplicity = 1:

       Center              X                  Y                   Z               Mass
    ------------   -----------------  -----------------  -----------------  -----------------
         S            0.271415666442    -0.811491175353     0.062123139447    31.972071174400
         O           -1.191633333558     1.476536524647    -0.048876360553    15.994914619570
         C            1.471583666442     0.551531524647     0.005047639447    12.000000000000
         C            2.865593666442    -0.061450475353    -0.037239360553    12.000000000000
         C           -1.242558333558     0.253969524647    -0.050263360553    12.000000000000
         C           -2.540088333558    -0.519448475353    -0.013878360553    12.000000000000
         H            1.300534666442     1.213860524647    -0.845829360553     1.007825032230
         H            1.321080666442     1.137160524647     0.914355639447     1.007825032230
         H            3.037178666442    -0.721184475353     0.816931639447     1.007825032230
         H            3.017987666442    -0.638531475353    -0.952605360553     1.007825032230
         H            3.615907666442     0.733441524647    -0.007772360553     1.007825032230
         H           -2.856548333558    -0.626588475353     1.028086639447     1.007825032230
         H           -2.437224333558    -1.514630475353    -0.451270360553     1.007825032230
         H           -3.299877333558     0.052076524647    -0.549951360553     1.007825032230

  Basis Set: AUG-CC-PVTZ
    Blend: AUG-CC-PVTZ
  Basis Set: (AUG-CC-PVTZ AUX)
    Blend: AUG-CC-PVTZ-JKFIT
	 Reference Energy          =    -628.6275918608109805 [Eh]
	 Singles Energy            =      -0.0000000000000000 [Eh]
	 Same-Spin Energy          =      -0.2908827377647614 [Eh]
	 Opposite-Spin Energy      =      -0.9546467081248865 [Eh]
	 Correlation Energy        =      -1.2455294458896478 [Eh]
	 Total Energy              =    -629.8731213067006820 [Eh]

	 ================> DF-SCS-MP2 Energies <==================
	-----------------------------------------------------------
	 SCS Same-Spin Scale       =       0.3333333333333333 [-]
	 SCS Opposite-Spin Scale   =       1.2000000000000000 [-]
	 SCS Same-Spin Energy      =      -0.0969609125882538 [Eh]
	 SCS Opposite-Spin Energy  =      -1.1455760497498637 [Eh]
	 SCS Correlation Energy    =      -1.2425369623381175 [Eh]
	 SCS Total Energy          =    -629.8701288231491162 [Eh]
	-----------------------------------------------------------

  Dipole Moment: [D]
     X:     0.1948      Y:    -1.0708      Z:     0.0504     Total:     1.0895

*** Psi4 exiting successfully. Buy a developer a beer!
