                               Psi4 1.3.2 release

  ==> Input File <==

--------------------------------------------------------------------------
#psi4
#
memory 32 gb

molecule  {
0 1
  S        0.2011420    -0.7740460    -0.0125590
  O       -1.2094190     1.4662670    -0.0184260
  C        1.4537980     0.5412620     0.0354980
  C        2.8478080    -0.0717200    -0.0067890
  C       -1.2603440     0.2437000    -0.0198130
  C       -2.3861280    -0.4273455     0.0117559
  H        1.2827490     1.2035910    -0.8153790
  H        1.3032950     1.1268910     0.9448060
  H        3.0193930    -0.7314540     0.8473820
  H        3.0002020    -0.6488010    -0.9221550
  H        3.5981220     0.7231720     0.0226780
  H       -2.8743340    -0.6368580     1.0585370
  H       -2.4550100    -1.5249000    -0.4208200
  H       -3.3176630     0.0418070    -0.5195010
units angstrom
no_reorient  #important for SAPT in psi4, default
symmetry c1  #important for SAPT in psi4, default
}

set PROPERTIES_ORIGIN ["COM"]
properties('MP2/aug-cc-pvtz', properties = ['dipole'])
--------------------------------------------------------------------------

    Molecular point group: c1
  Charge       = 0
  Multiplicity = 1
  Basis Set: AUG-CC-PVTZ
    Blend: AUG-CC-PVTZ
  Basis Set: (AUG-CC-PVTZ AUX)
    Blend: AUG-CC-PVTZ-JKFIT

    Orbital Energies [Eh]
    ---------------------

    Doubly Occupied:

       1A    -91.966686     2A    -20.548401     3A    -11.351827
       4A    -11.261045     5A    -11.255685     6A    -11.230376
       7A     -8.968597     8A     -6.649768     9A     -6.648599
      10A     -6.647960    11A     -1.392414    12A     -1.096646
      13A     -1.059670    14A     -0.956767    15A     -0.831882
      16A     -0.746752    17A     -0.662968    18A     -0.650885
      19A     -0.636011    20A     -0.607411    21A     -0.568630
      22A     -0.542112    23A     -0.517254    24A     -0.498989
      25A     -0.480262    26A     -0.463187    27A     -0.416613
      28A     -0.368486

  @DF-RHF Final Energy:  -628.58227256534860

   => Energetics <=

    Nuclear Repulsion Energy =            297.7326221847215493
    One-Electron Energy =               -1454.5780224015247768
    Two-Electron Energy =                 528.2631276514546244
    Total Energy =                       -628.5822725653486032
  Basis Set: (AUG-CC-PVTZ AUX)
    Blend: AUG-CC-PVTZ-RI
    Molecular point group: c1

    Geometry (in Angstrom), charge = 0, multiplicity = 1:

       Center              X                  Y                   Z               Mass
    ------------   -----------------  -----------------  -----------------  -----------------
         S            0.215247925488    -0.790249788272    -0.010142778050    31.972071174400
         O           -1.195313074512     1.450063211728    -0.016009778050    15.994914619570
         C            1.467903925488     0.525058211728     0.037914221950    12.000000000000
         C            2.861913925488    -0.087923788272    -0.004372778050    12.000000000000
         C           -1.246238074512     0.227496211728    -0.017396778050    12.000000000000
         C           -2.372022074512    -0.443549288272     0.014172121950    12.000000000000
         H            1.296854925488     1.187387211728    -0.812962778050     1.007825032230
         H            1.317400925488     1.110687211728     0.947222221950     1.007825032230
         H            3.033498925488    -0.747657788272     0.849798221950     1.007825032230
         H            3.014307925488    -0.665004788272    -0.919738778050     1.007825032230
         H            3.612227925488     0.706968211728     0.025094221950     1.007825032230
         H           -2.860228074512    -0.653061788272     1.060953221950     1.007825032230
         H           -2.440904074512    -1.541103788272    -0.418403778050     1.007825032230
         H           -3.303557074512     0.025603211728    -0.517084778050     1.007825032230

  Basis Set: AUG-CC-PVTZ
    Blend: AUG-CC-PVTZ
  Basis Set: (AUG-CC-PVTZ AUX)
    Blend: AUG-CC-PVTZ-JKFIT
	 Reference Energy          =    -628.5822725653486032 [Eh]
	 Singles Energy            =      -0.0000000000000000 [Eh]
	 Same-Spin Energy          =      -0.2941524069286252 [Eh]
	 Opposite-Spin Energy      =      -0.9577491637187190 [Eh]
	 Correlation Energy        =      -1.2519015706473442 [Eh]
	 Total Energy              =    -629.8341741359959087 [Eh]

	 ================> DF-SCS-MP2 Energies <==================
	-----------------------------------------------------------
	 SCS Same-Spin Scale       =       0.3333333333333333 [-]
	 SCS Opposite-Spin Scale   =       1.2000000000000000 [-]
	 SCS Same-Spin Energy      =      -0.0980508023095417 [Eh]
	 SCS Opposite-Spin Energy  =      -1.1492989964624627 [Eh]
	 SCS Correlation Energy    =      -1.2473497987720044 [Eh]
	 SCS Total Energy          =    -629.8296223641206097 [Eh]
	-----------------------------------------------------------

  Dipole Moment: [D]
     X:     0.1362      Y:    -1.3950      Z:     0.1474     Total:     1.4093

*** Psi4 exiting successfully. Buy a developer a beer!
