                               Psi4 1.3.2 release

  ==> Input File <==

--------------------------------------------------------------------------
#psi4
#
memory 32 gb

molecule  {
0 1
  S        0.2011420    -0.7740460    -0.0125590
  O       -1.2094190     1.4662670    -0.0184260
  C        1.4071153     0.5841932     0.0354656
  C        2.8478080    -0.0717200    -0.0067890
  C       -1.2603440     0.2437000    -0.0198130
  C       -2.5578740    -0.5297180     0.0165720
  H        1.2827490     1.2035910    -0.8153790
  H        1.3032950     1.1268910     0.9448060
  H        3.0193930    -0.7314540     0.8473820
  H        3.0002020    -0.6488010    -0.9221550
  H        3.5981220     0.7231720     0.0226780
  H       -2.8743340    -0.6368580     1.0585370
  H       -2.4550100    -1.5249000    -0.4208200
  H       -3.3176630     0.0418070    -0.5195010
units angstrom
no_reorient  #important for SAPT in psi4, default
symmetry c1  #important for SAPT in psi4, default
}

set PROPERTIES_ORIGIN ["COM"]
properties('MP2/aug-cc-pvtz', properties = ['dipole'])
--------------------------------------------------------------------------

    Molecular point group: c1
  Charge       = 0
  Multiplicity = 1
  Basis Set: AUG-CC-PVTZ
    Blend: AUG-CC-PVTZ
  Basis Set: (AUG-CC-PVTZ AUX)
    Blend: AUG-CC-PVTZ-JKFIT

    Orbital Energies [Eh]
    ---------------------

    Doubly Occupied:

       1A    -91.969713     2A    -20.553540     3A    -11.363545
       4A    -11.260453     5A    -11.244945     6A    -11.233368
       7A     -8.971337     8A     -6.652499     9A     -6.651307
      10A     -6.650702    11A     -1.389559    12A     -1.082906
      13A     -1.027725    14A     -0.953402    15A     -0.841361
      16A     -0.732564    17A     -0.653368    18A     -0.641130
      19A     -0.629993    20A     -0.608725    21A     -0.573080
      22A     -0.553125    23A     -0.531002    24A     -0.506694
      25A     -0.503148    26A     -0.466624    27A     -0.409007
      28A     -0.372259

  @DF-RHF Final Energy:  -628.62904823386441

   => Energetics <=

    Nuclear Repulsion Energy =            293.9257645509269423
    One-Electron Energy =               -1447.0554638723731387
    Two-Electron Energy =                 524.5006510875817867
    Total Energy =                       -628.6290482338644097
  Basis Set: (AUG-CC-PVTZ AUX)
    Blend: AUG-CC-PVTZ-RI
    Molecular point group: c1

    Geometry (in Angstrom), charge = 0, multiplicity = 1:

       Center              X                  Y                   Z               Mass
    ------------   -----------------  -----------------  -----------------  -----------------
         S            0.240444069196    -0.783393127325    -0.010694586456    31.972071174400
         O           -1.170116930804     1.456919872675    -0.016561586456    15.994914619570
         C            1.446417369196     0.574846072675     0.037330013544    12.000000000000
         C            2.887110069196    -0.081067127325    -0.004924586456    12.000000000000
         C           -1.221041930804     0.234352872675    -0.017948586456    12.000000000000
         C           -2.518571930804    -0.539065127325     0.018436413544    12.000000000000
         H            1.322051069196     1.194243872675    -0.813514586456     1.007825032230
         H            1.342597069196     1.117543872675     0.946670413544     1.007825032230
         H            3.058695069196    -0.740801127325     0.849246413544     1.007825032230
         H            3.039504069196    -0.658148127325    -0.920290586456     1.007825032230
         H            3.637424069196     0.713824872675     0.024542413544     1.007825032230
         H           -2.835031930804    -0.646205127325     1.060401413544     1.007825032230
         H           -2.415707930804    -1.534247127325    -0.418955586456     1.007825032230
         H           -3.278360930804     0.032459872675    -0.517636586456     1.007825032230

  Basis Set: AUG-CC-PVTZ
    Blend: AUG-CC-PVTZ
  Basis Set: (AUG-CC-PVTZ AUX)
    Blend: AUG-CC-PVTZ-JKFIT
	 Reference Energy          =    -628.6290482338644097 [Eh]
	 Singles Energy            =      -0.0000000000000000 [Eh]
	 Same-Spin Energy          =      -0.2906585966141934 [Eh]
	 Opposite-Spin Energy      =      -0.9535437564590592 [Eh]
	 Correlation Energy        =      -1.2442023530732524 [Eh]
	 Total Energy              =    -629.8732505869376155 [Eh]

	 ================> DF-SCS-MP2 Energies <==================
	-----------------------------------------------------------
	 SCS Same-Spin Scale       =       0.3333333333333333 [-]
	 SCS Opposite-Spin Scale   =       1.2000000000000000 [-]
	 SCS Same-Spin Energy      =      -0.0968861988713978 [Eh]
	 SCS Opposite-Spin Energy  =      -1.1442525077508710 [Eh]
	 SCS Correlation Energy    =      -1.2411387066222688 [Eh]
	 SCS Total Energy          =    -629.8701869404866329 [Eh]
	-----------------------------------------------------------

  Dipole Moment: [D]
     X:     0.4761      Y:    -1.2349      Z:     0.1006     Total:     1.3273

*** Psi4 exiting successfully. Buy a developer a beer!
