                               Psi4 1.3.2 release

  ==> Input File <==

--------------------------------------------------------------------------
#psi4
#
memory 32 gb

molecule  {
0 1
  S        0.2011420    -0.7740460    -0.0125590
  O       -1.3374356     1.4648862    -0.0146593
  C        1.4537980     0.5412620     0.0354980
  C        2.8478080    -0.0717200    -0.0067890
  C       -1.2603440     0.2437000    -0.0198130
  C       -2.5578740    -0.5297180     0.0165720
  H        1.2827490     1.2035910    -0.8153790
  H        1.3032950     1.1268910     0.9448060
  H        3.0193930    -0.7314540     0.8473820
  H        3.0002020    -0.6488010    -0.9221550
  H        3.5981220     0.7231720     0.0226780
  H       -2.8743340    -0.6368580     1.0585370
  H       -2.4550100    -1.5249000    -0.4208200
  H       -3.3176630     0.0418070    -0.5195010
units angstrom
no_reorient  #important for SAPT in psi4, default
symmetry c1  #important for SAPT in psi4, default
}

set PROPERTIES_ORIGIN ["COM"]
properties('MP2/aug-cc-pvtz', properties = ['dipole'])
--------------------------------------------------------------------------

    Molecular point group: c1
  Charge       = 0
  Multiplicity = 1
  Basis Set: AUG-CC-PVTZ
    Blend: AUG-CC-PVTZ
  Basis Set: (AUG-CC-PVTZ AUX)
    Blend: AUG-CC-PVTZ-JKFIT

    Orbital Energies [Eh]
    ---------------------

    Doubly Occupied:

       1A    -91.975208     2A    -20.552621     3A    -11.362452
       4A    -11.266758     5A    -11.238850     6A    -11.234479
       7A     -8.976622     8A     -6.657797     9A     -6.656580
      10A     -6.655966    11A     -1.388409    12A     -1.090955
      13A     -1.026808    14A     -0.959310    15A     -0.837929
      16A     -0.732782    17A     -0.655365    18A     -0.638852
      19A     -0.625753    20A     -0.606656    21A     -0.576980
      22A     -0.553808    23A     -0.526623    24A     -0.522214
      25A     -0.501334    26A     -0.465026    27A     -0.410029
      28A     -0.374470

  @DF-RHF Final Energy:  -628.62981831837544

   => Energetics <=

    Nuclear Repulsion Energy =            293.0593320426203832
    One-Electron Energy =               -1445.2370277748843819
    Two-Electron Energy =                 523.5478774138886138
    Total Energy =                       -628.6298183183754418
  Basis Set: (AUG-CC-PVTZ AUX)
    Blend: AUG-CC-PVTZ-RI
    Molecular point group: c1

    Geometry (in Angstrom), charge = 0, multiplicity = 1:

       Center              X                  Y                   Z               Mass
    ------------   -----------------  -----------------  -----------------  -----------------
         S            0.254742138076    -0.778228633276    -0.011277467222    31.972071174400
         O           -1.283835461924     1.460703566724    -0.013377767222    15.994914619570
         C            1.507398138076     0.537079366724     0.036779532778    12.000000000000
         C            2.901408138076    -0.075902633276    -0.005507467222    12.000000000000
         C           -1.206743861924     0.239517366724    -0.018531467222    12.000000000000
         C           -2.504273861924    -0.533900633276     0.017853532778    12.000000000000
         H            1.336349138076     1.199408366724    -0.814097467222     1.007825032230
         H            1.356895138076     1.122708366724     0.946087532778     1.007825032230
         H            3.072993138076    -0.735636633276     0.848663532778     1.007825032230
         H            3.053802138076    -0.652983633276    -0.920873467222     1.007825032230
         H            3.651722138076     0.718989366724     0.023959532778     1.007825032230
         H           -2.820733861924    -0.641040633276     1.059818532778     1.007825032230
         H           -2.401409861924    -1.529082633276    -0.419538467222     1.007825032230
         H           -3.264062861924     0.037624366724    -0.518219467222     1.007825032230

  Basis Set: AUG-CC-PVTZ
    Blend: AUG-CC-PVTZ
  Basis Set: (AUG-CC-PVTZ AUX)
    Blend: AUG-CC-PVTZ-JKFIT
	 Reference Energy          =    -628.6298183183754418 [Eh]
	 Singles Energy            =      -0.0000000000000000 [Eh]
	 Same-Spin Energy          =      -0.2906752929407816 [Eh]
	 Opposite-Spin Energy      =      -0.9535549544382620 [Eh]
	 Correlation Energy        =      -1.2442302473790436 [Eh]
	 Total Energy              =    -629.8740485657544923 [Eh]

	 ================> DF-SCS-MP2 Energies <==================
	-----------------------------------------------------------
	 SCS Same-Spin Scale       =       0.3333333333333333 [-]
	 SCS Opposite-Spin Scale   =       1.2000000000000000 [-]
	 SCS Same-Spin Energy      =      -0.0968917643135939 [Eh]
	 SCS Opposite-Spin Energy  =      -1.1442659453259143 [Eh]
	 SCS Correlation Energy    =      -1.2411577096395081 [Eh]
	 SCS Total Energy          =    -629.8709760280149794 [Eh]
	-----------------------------------------------------------

  Dipole Moment: [D]
     X:     0.9229      Y:    -1.2549      Z:     0.0948     Total:     1.5606

*** Psi4 exiting successfully. Buy a developer a beer!
