                               Psi4 1.3.2 release

  ==> Input File <==

--------------------------------------------------------------------------
#psi4
#
memory 32 gb

molecule  {
0 1
  S        0.2011420    -0.7740460    -0.0125590
  O       -1.1668015     1.4637472    -0.0196870
  C        1.4537980     0.5412620     0.0354980
  C        2.8478080    -0.0717200    -0.0067890
  C       -1.2603440     0.2437000    -0.0198130
  C       -2.5578740    -0.5297180     0.0165720
  H        1.2827490     1.2035910    -0.8153790
  H        1.3032950     1.1268910     0.9448060
  H        3.0193930    -0.7314540     0.8473820
  H        3.0002020    -0.6488010    -0.9221550
  H        3.5981220     0.7231720     0.0226780
  H       -2.8743340    -0.6368580     1.0585370
  H       -2.4550100    -1.5249000    -0.4208200
  H       -3.3176630     0.0418070    -0.5195010
units angstrom
no_reorient  #important for SAPT in psi4, default
symmetry c1  #important for SAPT in psi4, default
}

set PROPERTIES_ORIGIN ["COM"]
properties('MP2/aug-cc-pvtz', properties = ['dipole'])
--------------------------------------------------------------------------

    Molecular point group: c1
  Charge       = 0
  Multiplicity = 1
  Basis Set: AUG-CC-PVTZ
    Blend: AUG-CC-PVTZ
  Basis Set: (AUG-CC-PVTZ AUX)
    Blend: AUG-CC-PVTZ-JKFIT

    Orbital Energies [Eh]
    ---------------------

    Doubly Occupied:

       1A    -91.966853     2A    -20.554013     3A    -11.365136
       4A    -11.261603     5A    -11.247822     6A    -11.230606
       7A     -8.968678     8A     -6.649830     9A     -6.648741
      10A     -6.648099    11A     -1.390246    12A     -1.085469
      13A     -1.032066    14A     -0.957181    15A     -0.834853
      16A     -0.731979    17A     -0.655124    18A     -0.635513
      19A     -0.631671    20A     -0.609722    21A     -0.577585
      22A     -0.555522    23A     -0.527002    24A     -0.518840
      25A     -0.501401    26A     -0.461537    27A     -0.408158
      28A     -0.368483

  @DF-RHF Final Energy:  -628.63208149927937

   => Energetics <=

    Nuclear Repulsion Energy =            294.3583801753833313
    One-Electron Energy =               -1447.9334559300993988
    Two-Electron Energy =                 524.9429942554368154
    Total Energy =                       -628.6320814992793657
  Basis Set: (AUG-CC-PVTZ AUX)
    Blend: AUG-CC-PVTZ-RI
    Molecular point group: c1

    Geometry (in Angstrom), charge = 0, multiplicity = 1:

       Center              X                  Y                   Z               Mass
    ------------   -----------------  -----------------  -----------------  -----------------
         S            0.228506545258    -0.778053508022    -0.010504440670    31.972071174400
         O           -1.139436954742     1.459739691978    -0.017632440670    15.994914619570
         C            1.481162545258     0.537254491978     0.037552559330    12.000000000000
         C            2.875172545258    -0.075727508022    -0.004734440670    12.000000000000
         C           -1.232979454742     0.239692491978    -0.017758440670    12.000000000000
         C           -2.530509454742    -0.533725508022     0.018626559330    12.000000000000
         H            1.310113545258     1.199583491978    -0.813324440670     1.007825032230
         H            1.330659545258     1.122883491978     0.946860559330     1.007825032230
         H            3.046757545258    -0.735461508022     0.849436559330     1.007825032230
         H            3.027566545258    -0.652808508022    -0.920100440670     1.007825032230
         H            3.625486545258     0.719164491978     0.024732559330     1.007825032230
         H           -2.846969454742    -0.640865508022     1.060591559330     1.007825032230
         H           -2.427645454742    -1.528907508022    -0.418765440670     1.007825032230
         H           -3.290298454742     0.037799491978    -0.517446440670     1.007825032230

  Basis Set: AUG-CC-PVTZ
    Blend: AUG-CC-PVTZ
  Basis Set: (AUG-CC-PVTZ AUX)
    Blend: AUG-CC-PVTZ-JKFIT
	 Reference Energy          =    -628.6320814992793657 [Eh]
	 Singles Energy            =      -0.0000000000000000 [Eh]
	 Same-Spin Energy          =      -0.2909270310935324 [Eh]
	 Opposite-Spin Energy      =      -0.9534394147696715 [Eh]
	 Correlation Energy        =      -1.2443664458632040 [Eh]
	 Total Energy              =    -629.8764479451425586 [Eh]

	 ================> DF-SCS-MP2 Energies <==================
	-----------------------------------------------------------
	 SCS Same-Spin Scale       =       0.3333333333333333 [-]
	 SCS Opposite-Spin Scale   =       1.2000000000000000 [-]
	 SCS Same-Spin Energy      =      -0.0969756770311774 [Eh]
	 SCS Opposite-Spin Energy  =      -1.1441272977236059 [Eh]
	 SCS Correlation Energy    =      -1.2411029747547833 [Eh]
	 SCS Total Energy          =    -629.8731844740341330 [Eh]
	-----------------------------------------------------------

  Dipole Moment: [D]
     X:     0.3697      Y:    -1.2011      Z:     0.1020     Total:     1.2609

*** Psi4 exiting successfully. Buy a developer a beer!
