                               Psi4 1.3.2 release

  ==> Input File <==

--------------------------------------------------------------------------
#psi4
#
memory 32 gb

molecule  {
0 1
  S        0.2478349    -0.8168964    -0.0150046
  O       -1.2094190     1.4662670    -0.0184260
  C        1.4537980     0.5412620     0.0354980
  C        2.8478080    -0.0717200    -0.0067890
  C       -1.2603440     0.2437000    -0.0198130
  C       -2.5578740    -0.5297180     0.0165720
  H        1.2827490     1.2035910    -0.8153790
  H        1.3032950     1.1268910     0.9448060
  H        3.0193930    -0.7314540     0.8473820
  H        3.0002020    -0.6488010    -0.9221550
  H        3.5981220     0.7231720     0.0226780
  H       -2.8743340    -0.6368580     1.0585370
  H       -2.4550100    -1.5249000    -0.4208200
  H       -3.3176630     0.0418070    -0.5195010
units angstrom
no_reorient  #important for SAPT in psi4, default
symmetry c1  #important for SAPT in psi4, default
}

set PROPERTIES_ORIGIN ["COM"]
properties('MP2/aug-cc-pvtz', properties = ['dipole'])
--------------------------------------------------------------------------

    Molecular point group: c1
  Charge       = 0
  Multiplicity = 1
  Basis Set: AUG-CC-PVTZ
    Blend: AUG-CC-PVTZ
  Basis Set: (AUG-CC-PVTZ AUX)
    Blend: AUG-CC-PVTZ-JKFIT

    Orbital Energies [Eh]
    ---------------------

    Doubly Occupied:

       1A    -91.969461     2A    -20.560403     3A    -11.370700
       4A    -11.261363     5A    -11.247490     6A    -11.229450
       7A     -8.969972     8A     -6.651039     9A     -6.649946
      10A     -6.649304    11A     -1.392911    12A     -1.082467
      13A     -1.028961    14A     -0.951267    15A     -0.830298
      16A     -0.735917    17A     -0.654385    18A     -0.634584
      19A     -0.631046    20A     -0.609594    21A     -0.577700
      22A     -0.554555    23A     -0.525363    24A     -0.517145
      25A     -0.502352    26A     -0.463018    27A     -0.406707
      28A     -0.368668

  @DF-RHF Final Energy:  -628.62928096245992

   => Energetics <=

    Nuclear Repulsion Energy =            292.2970899544230292
    One-Electron Energy =               -1443.8006088265753988
    Two-Electron Energy =                 522.8742379096925106
    Total Energy =                       -628.6292809624599158
  Basis Set: (AUG-CC-PVTZ AUX)
    Blend: AUG-CC-PVTZ-RI
    Molecular point group: c1

    Geometry (in Angstrom), charge = 0, multiplicity = 1:

       Center              X                  Y                   Z               Mass
    ------------   -----------------  -----------------  -----------------  -----------------
         S            0.267401611207    -0.808121851462    -0.012392302126    31.972071174400
         O           -1.189852288793     1.475041548538    -0.015813702126    15.994914619570
         C            1.473364711207     0.550036548538     0.038110297874    12.000000000000
         C            2.867374711207    -0.062945451462    -0.004176702126    12.000000000000
         C           -1.240777288793     0.252474548538    -0.017200702126    12.000000000000
         C           -2.538307288793    -0.520943451462     0.019184297874    12.000000000000
         H            1.302315711207     1.212365548538    -0.812766702126     1.007825032230
         H            1.322861711207     1.135665548538     0.947418297874     1.007825032230
         H            3.038959711207    -0.722679451462     0.849994297874     1.007825032230
         H            3.019768711207    -0.640026451462    -0.919542702126     1.007825032230
         H            3.617688711207     0.731946548538     0.025290297874     1.007825032230
         H           -2.854767288793    -0.628083451462     1.061149297874     1.007825032230
         H           -2.435443288793    -1.516125451462    -0.418207702126     1.007825032230
         H           -3.298096288793     0.050581548538    -0.516888702126     1.007825032230

  Basis Set: AUG-CC-PVTZ
    Blend: AUG-CC-PVTZ
  Basis Set: (AUG-CC-PVTZ AUX)
    Blend: AUG-CC-PVTZ-JKFIT
	 Reference Energy          =    -628.6292809624599158 [Eh]
	 Singles Energy            =      -0.0000000000000000 [Eh]
	 Same-Spin Energy          =      -0.2908503209911188 [Eh]
	 Opposite-Spin Energy      =      -0.9544012098608863 [Eh]
	 Correlation Energy        =      -1.2452515308520051 [Eh]
	 Total Energy              =    -629.8745324933119036 [Eh]

	 ================> DF-SCS-MP2 Energies <==================
	-----------------------------------------------------------
	 SCS Same-Spin Scale       =       0.3333333333333333 [-]
	 SCS Opposite-Spin Scale   =       1.2000000000000000 [-]
	 SCS Same-Spin Energy      =      -0.0969501069970396 [Eh]
	 SCS Opposite-Spin Energy  =      -1.1452814518330634 [Eh]
	 SCS Correlation Energy    =      -1.2422315588301029 [Eh]
	 SCS Total Energy          =    -629.8715125212900148 [Eh]
	-----------------------------------------------------------

  Dipole Moment: [D]
     X:     0.2463      Y:    -1.0970      Z:     0.1027     Total:     1.1290

*** Psi4 exiting successfully. Buy a developer a beer!
