                               Psi4 1.4a3.dev225

  ==> Input File <==

--------------------------------------------------------------------------
#psi4
#
memory 32 gb

molecule  {
0 1
  S        0.2011420    -0.7740460    -0.0125590
  O       -1.2094190     1.4662670    -0.0184260
  C        1.4537980     0.5412620     0.0354980
  C        2.8478080    -0.0717200    -0.0067890
  C       -1.2603440     0.2437000    -0.0198130
  C       -2.6008105    -0.5553111     0.0177760
  H        1.2827490     1.2035910    -0.8153790
  H        1.3032950     1.1268910     0.9448060
  H        3.0193930    -0.7314540     0.8473820
  H        3.0002020    -0.6488010    -0.9221550
  H        3.5981220     0.7231720     0.0226780
  H       -2.8743340    -0.6368580     1.0585370
  H       -2.4550100    -1.5249000    -0.4208200
  H       -3.3176630     0.0418070    -0.5195010
units angstrom
no_reorient  #important for SAPT in psi4, default
symmetry c1  #important for SAPT in psi4, default
}

set PROPERTIES_ORIGIN ["COM"]
properties('MP2/aug-cc-pvtz', properties = ['dipole'])
--------------------------------------------------------------------------

    Molecular point group: c1
  Charge       = 0
  Multiplicity = 1
  Basis Set: AUG-CC-PVTZ
    Blend: AUG-CC-PVTZ
  Basis Set: (AUG-CC-PVTZ AUX)
    Blend: AUG-CC-PVTZ-JKFIT

    Orbital Energies [Eh]
    ---------------------

    Doubly Occupied:

       1A    -91.969255     2A    -20.554646     3A    -11.366067
       4A    -11.263149     5A    -11.244530     6A    -11.231760
       7A     -8.970941     8A     -6.652097     9A     -6.650978
      10A     -6.650344    11A     -1.389118    12A     -1.086209
      13A     -1.025130    14A     -0.958264    15A     -0.836056
      16A     -0.729387    17A     -0.654256    18A     -0.636360
      19A     -0.623089    20A     -0.611384    21A     -0.582825
      22A     -0.556382    23A     -0.529563    24A     -0.521938
      25A     -0.503945    26A     -0.461386    27A     -0.405267
      28A     -0.370155

  @DF-RHF Final Energy:  -628.63070695146030

   => Energetics <=

    Nuclear Repulsion Energy =            293.1479897154543437
    One-Electron Energy =               -1445.4884315347478605
    Two-Electron Energy =                 523.7097348678332764
    Total Energy =                       -628.6307069514602972
  Basis Set: (AUG-CC-PVTZ AUX)
    Blend: AUG-CC-PVTZ-RI
    Molecular point group: c1

    Geometry (in Angstrom), charge = 0, multiplicity = 1:

       Center              X                  Y                   Z               Mass
    ------------   -----------------  -----------------  -----------------  -----------------
         S            0.240011938283    -0.775488725980    -0.010837207421    31.972071174400
         O           -1.170549061717     1.464824274020    -0.016704207421    15.994914619570
         C            1.492667938283     0.539819274020     0.037219792579    12.000000000000
         C            2.886677938283    -0.073162725980    -0.005067207421    12.000000000000
         C           -1.221474061717     0.242257274020    -0.018091207421    12.000000000000
         C           -2.561940561717    -0.556753825980     0.019497792579    12.000000000000
         H            1.321618938283     1.202148274020    -0.813657207421     1.007825032230
         H            1.342164938283     1.125448274020     0.946527792579     1.007825032230
         H            3.058262938283    -0.732896725980     0.849103792579     1.007825032230
         H            3.039071938283    -0.650243725980    -0.920433207421     1.007825032230
         H            3.636991938283     0.721729274020     0.024399792579     1.007825032230
         H           -2.835464061717    -0.638300725980     1.060258792579     1.007825032230
         H           -2.416140061717    -1.526342725980    -0.419098207421     1.007825032230
         H           -3.278793061717     0.040364274020    -0.517779207421     1.007825032230

  Basis Set: AUG-CC-PVTZ
    Blend: AUG-CC-PVTZ
  Basis Set: (AUG-CC-PVTZ AUX)
    Blend: AUG-CC-PVTZ-JKFIT
	 Reference Energy          =    -628.6307069514602972 [Eh]
	 Singles Energy            =      -0.0000000000000000 [Eh]
	 Same-Spin Energy          =      -0.2905892974880192 [Eh]
	 Opposite-Spin Energy      =      -0.9532606462448274 [Eh]
	 Correlation Energy        =      -1.2438499437328465 [Eh]
	 Total Energy              =    -629.8745568951931091 [Eh]

	 ================> DF-SCS-MP2 Energies <==================
	-----------------------------------------------------------
	 SCS Same-Spin Scale       =       0.3333333333333333 [-]
	 SCS Opposite-Spin Scale   =       1.2000000000000000 [-]
	 SCS Same-Spin Energy      =      -0.0968630991626731 [Eh]
	 SCS Opposite-Spin Energy  =      -1.1439127754937928 [Eh]
	 SCS Correlation Energy    =      -1.2407758746564659 [Eh]
	 SCS Total Energy          =    -629.8714828261167895 [Eh]
	-----------------------------------------------------------

  Dipole Moment: [D]
     X:     0.5842      Y:    -1.1829      Z:     0.0931     Total:     1.3225

*** Psi4 exiting successfully. Buy a developer a beer!
