                               Psi4 1.3.2 release

  ==> Input File <==

--------------------------------------------------------------------------
#psi4
#
memory 32 gb

molecule  {
0 1
  S        0.1771717    -0.7477699    -0.0650695
  O       -1.2094190     1.4662670    -0.0184260
  C        1.4537980     0.5412620     0.0354980
  C        2.8478080    -0.0717200    -0.0067890
  C       -1.2603440     0.2437000    -0.0198130
  C       -2.5578740    -0.5297180     0.0165720
  H        1.2827490     1.2035910    -0.8153790
  H        1.3032950     1.1268910     0.9448060
  H        3.0193930    -0.7314540     0.8473820
  H        3.0002020    -0.6488010    -0.9221550
  H        3.5981220     0.7231720     0.0226780
  H       -2.8743340    -0.6368580     1.0585370
  H       -2.4550100    -1.5249000    -0.4208200
  H       -3.3176630     0.0418070    -0.5195010
units angstrom
no_reorient  #important for SAPT in psi4, default
symmetry c1  #important for SAPT in psi4, default
}

set PROPERTIES_ORIGIN ["COM"]
properties('MP2/aug-cc-pvtz', properties = ['dipole'])
--------------------------------------------------------------------------

    Molecular point group: c1
  Charge       = 0
  Multiplicity = 1
  Basis Set: AUG-CC-PVTZ
    Blend: AUG-CC-PVTZ
  Basis Set: (AUG-CC-PVTZ AUX)
    Blend: AUG-CC-PVTZ-JKFIT

    Orbital Energies [Eh]
    ---------------------

    Doubly Occupied:

       1A    -91.968574     2A    -20.549836     3A    -11.360771
       4A    -11.263825     5A    -11.244703     6A    -11.232842
       7A     -8.971075     8A     -6.652292     9A     -6.651131
      10A     -6.650501    11A     -1.387879    12A     -1.089801
      13A     -1.032024    14A     -0.961290    15A     -0.838678
      16A     -0.730186    17A     -0.655419    18A     -0.637336
      19A     -0.629847    20A     -0.608822    21A     -0.577118
      22A     -0.555229    23A     -0.527549    24A     -0.522001
      25A     -0.501365    26A     -0.461481    27A     -0.409902
      28A     -0.370570

  @DF-RHF Final Energy:  -628.63253239101846

   => Energetics <=

    Nuclear Repulsion Energy =            294.9665116755248278
    One-Electron Energy =               -1449.1139947692604437
    Two-Electron Energy =                 525.5149507027172149
    Total Energy =                       -628.6325323910184579
  Basis Set: (AUG-CC-PVTZ AUX)
    Blend: AUG-CC-PVTZ-RI
    Molecular point group: c1

    Geometry (in Angstrom), charge = 0, multiplicity = 1:

       Center              X                  Y                   Z               Mass
    ------------   -----------------  -----------------  -----------------  -----------------
         S            0.218455779752    -0.760240436268    -0.047070439505    31.972071174400
         O           -1.168134920248     1.453796463732    -0.000426939505    15.994914619570
         C            1.495082079752     0.528791463732     0.053497060495    12.000000000000
         C            2.889092079752    -0.084190536268     0.011210060495    12.000000000000
         C           -1.219059920248     0.231229463732    -0.001813939505    12.000000000000
         C           -2.516589920248    -0.542188536268     0.034571060495    12.000000000000
         H            1.324033079752     1.191120463732    -0.797379939505     1.007825032230
         H            1.344579079752     1.114420463732     0.962805060495     1.007825032230
         H            3.060677079752    -0.743924536268     0.865381060495     1.007825032230
         H            3.041486079752    -0.661271536268    -0.904155939505     1.007825032230
         H            3.639406079752     0.710701463732     0.040677060495     1.007825032230
         H           -2.833049920248    -0.649328536268     1.076536060495     1.007825032230
         H           -2.413725920248    -1.537370536268    -0.402820939505     1.007825032230
         H           -3.276378920248     0.029336463732    -0.501501939505     1.007825032230

  Basis Set: AUG-CC-PVTZ
    Blend: AUG-CC-PVTZ
  Basis Set: (AUG-CC-PVTZ AUX)
    Blend: AUG-CC-PVTZ-JKFIT
	 Reference Energy          =    -628.6325323910184579 [Eh]
	 Singles Energy            =      -0.0000000000000000 [Eh]
	 Same-Spin Energy          =      -0.2908958114119072 [Eh]
	 Opposite-Spin Energy      =      -0.9529817721322401 [Eh]
	 Correlation Energy        =      -1.2438775835441473 [Eh]
	 Total Energy              =    -629.8764099745626481 [Eh]

	 ================> DF-SCS-MP2 Energies <==================
	-----------------------------------------------------------
	 SCS Same-Spin Scale       =       0.3333333333333333 [-]
	 SCS Opposite-Spin Scale   =       1.2000000000000000 [-]
	 SCS Same-Spin Energy      =      -0.0969652704706357 [Eh]
	 SCS Opposite-Spin Energy  =      -1.1435781265586882 [Eh]
	 SCS Correlation Energy    =      -1.2405433970293238 [Eh]
	 SCS Total Energy          =    -629.8730757880477995 [Eh]
	-----------------------------------------------------------

  Dipole Moment: [D]
     X:     0.6474      Y:    -1.2877      Z:     0.1182     Total:     1.4461

*** Psi4 exiting successfully. Buy a developer a beer!
