                               Psi4 1.3.2 release

  ==> Input File <==

--------------------------------------------------------------------------
#psi4
#
memory 32 gb

molecule  {
0 1
  S        0.2011420    -0.7740460    -0.0125590
  O       -1.1880993     1.4651931    -0.0190564
  C        1.4537980     0.5412620     0.0354980
  C        2.8478080    -0.0717200    -0.0067890
  C       -1.2603440     0.2437000    -0.0198130
  C       -2.5578740    -0.5297180     0.0165720
  H        1.2827490     1.2035910    -0.8153790
  H        1.3032950     1.1268910     0.9448060
  H        3.0193930    -0.7314540     0.8473820
  H        3.0002020    -0.6488010    -0.9221550
  H        3.5981220     0.7231720     0.0226780
  H       -2.8743340    -0.6368580     1.0585370
  H       -2.4550100    -1.5249000    -0.4208200
  H       -3.3176630     0.0418070    -0.5195010
units angstrom
no_reorient  #important for SAPT in psi4, default
symmetry c1  #important for SAPT in psi4, default
}

set PROPERTIES_ORIGIN ["COM"]
properties('MP2/aug-cc-pvtz', properties = ['dipole'])
--------------------------------------------------------------------------

    Molecular point group: c1
  Charge       = 0
  Multiplicity = 1
  Basis Set: AUG-CC-PVTZ
    Blend: AUG-CC-PVTZ
  Basis Set: (AUG-CC-PVTZ AUX)
    Blend: AUG-CC-PVTZ-JKFIT

    Orbital Energies [Eh]
    ---------------------

    Doubly Occupied:

       1A    -91.967913     2A    -20.553884     3A    -11.364780
       4A    -11.262273     5A    -11.246706     6A    -11.231117
       7A     -8.969687     8A     -6.650843     9A     -6.649737
      10A     -6.649099    11A     -1.389919    12A     -1.086182
      13A     -1.031408    14A     -0.957526    15A     -0.835210
      16A     -0.732092    17A     -0.655124    18A     -0.635890
      19A     -0.630944    20A     -0.609348    21A     -0.577433
      22A     -0.555257    23A     -0.526838    24A     -0.519424
      25A     -0.501559    26A     -0.461937    27A     -0.408711
      28A     -0.369255

  @DF-RHF Final Energy:  -628.63236852510818

   => Energetics <=

    Nuclear Repulsion Energy =            294.1724211023720841
    One-Electron Energy =               -1447.5493887664890735
    Two-Electron Energy =                 524.7445991390088693
    Total Energy =                       -628.6323685251081770
  Basis Set: (AUG-CC-PVTZ AUX)
    Blend: AUG-CC-PVTZ-RI
    Molecular point group: c1

    Geometry (in Angstrom), charge = 0, multiplicity = 1:

       Center              X                  Y                   Z               Mass
    ------------   -----------------  -----------------  -----------------  -----------------
         S            0.231781156890    -0.778275820230    -0.010601397637    31.972071174400
         O           -1.157460143110     1.460963279770    -0.017098797637    15.994914619570
         C            1.484437156890     0.537032179770     0.037455602363    12.000000000000
         C            2.878447156890    -0.075949820230    -0.004831397637    12.000000000000
         C           -1.229704843110     0.239470179770    -0.017855397637    12.000000000000
         C           -2.527234843110    -0.533947820230     0.018529602363    12.000000000000
         H            1.313388156890     1.199361179770    -0.813421397637     1.007825032230
         H            1.333934156890     1.122661179770     0.946763602363     1.007825032230
         H            3.050032156890    -0.735683820230     0.849339602363     1.007825032230
         H            3.030841156890    -0.653030820230    -0.920197397637     1.007825032230
         H            3.628761156890     0.718942179770     0.024635602363     1.007825032230
         H           -2.843694843110    -0.641087820230     1.060494602363     1.007825032230
         H           -2.424370843110    -1.529129820230    -0.418862397637     1.007825032230
         H           -3.287023843110     0.037577179770    -0.517543397637     1.007825032230

  Basis Set: AUG-CC-PVTZ
    Blend: AUG-CC-PVTZ
  Basis Set: (AUG-CC-PVTZ AUX)
    Blend: AUG-CC-PVTZ-JKFIT
	 Reference Energy          =    -628.6323685251081770 [Eh]
	 Singles Energy            =      -0.0000000000000000 [Eh]
	 Same-Spin Energy          =      -0.2908736127515478 [Eh]
	 Opposite-Spin Energy      =      -0.9534065942550386 [Eh]
	 Correlation Energy        =      -1.2442802070065864 [Eh]
	 Total Energy              =    -629.8766487321147451 [Eh]

	 ================> DF-SCS-MP2 Energies <==================
	-----------------------------------------------------------
	 SCS Same-Spin Scale       =       0.3333333333333333 [-]
	 SCS Opposite-Spin Scale   =       1.2000000000000000 [-]
	 SCS Same-Spin Energy      =      -0.0969578709171826 [Eh]
	 SCS Opposite-Spin Energy  =      -1.1440879131060462 [Eh]
	 SCS Correlation Energy    =      -1.2410457840232287 [Eh]
	 SCS Total Energy          =    -629.8734143091313626 [Eh]
	-----------------------------------------------------------

  Dipole Moment: [D]
     X:     0.4396      Y:    -1.2119      Z:     0.1010     Total:     1.2931

*** Psi4 exiting successfully. Buy a developer a beer!
