                               Psi4 1.3.2 release

  ==> Input File <==

--------------------------------------------------------------------------
#psi4
#
memory 32 gb

molecule  {
0 1
  S        0.2011420    -0.7740460    -0.0125590
  O       -1.2094190     1.4662670    -0.0184260
  C        1.3159163     0.3964841     0.0302083
  C        2.8478080    -0.0717200    -0.0067890
  C       -1.2603440     0.2437000    -0.0198130
  C       -2.5578740    -0.5297180     0.0165720
  H        1.2827490     1.2035910    -0.8153790
  H        1.3032950     1.1268910     0.9448060
  H        3.0193930    -0.7314540     0.8473820
  H        3.0002020    -0.6488010    -0.9221550
  H        3.5981220     0.7231720     0.0226780
  H       -2.8743340    -0.6368580     1.0585370
  H       -2.4550100    -1.5249000    -0.4208200
  H       -3.3176630     0.0418070    -0.5195010
units angstrom
no_reorient  #important for SAPT in psi4, default
symmetry c1  #important for SAPT in psi4, default
}

set PROPERTIES_ORIGIN ["COM"]
properties('MP2/aug-cc-pvtz', properties = ['dipole'])
--------------------------------------------------------------------------

    Molecular point group: c1
  Charge       = 0
  Multiplicity = 1
  Basis Set: AUG-CC-PVTZ
    Blend: AUG-CC-PVTZ
  Basis Set: (AUG-CC-PVTZ AUX)
    Blend: AUG-CC-PVTZ-JKFIT

    Orbital Energies [Eh]
    ---------------------

    Doubly Occupied:

       1A    -91.970443     2A    -20.557699     3A    -11.365916
       4A    -11.263378     5A    -11.247764     6A    -11.236597
       7A     -8.976061     8A     -6.657667     9A     -6.656188
      10A     -6.655278    11A     -1.392773    12A     -1.115026
      13A     -1.028671    14A     -0.960146    15A     -0.825867
      16A     -0.734164    17A     -0.669107    18A     -0.633458
      19A     -0.625079    20A     -0.603546    21A     -0.578954
      22A     -0.551652    23A     -0.527290    24A     -0.518155
      25A     -0.491514    26A     -0.474538    27A     -0.410478
      28A     -0.360725

  @DF-RHF Final Energy:  -628.59324303372773

   => Energetics <=

    Nuclear Repulsion Energy =            297.2455055008447857
    One-Electron Energy =               -1453.5012286789851714
    Two-Electron Energy =                 527.6624801444127115
    Total Energy =                       -628.5932430337277310
  Basis Set: (AUG-CC-PVTZ AUX)
    Blend: AUG-CC-PVTZ-RI
    Molecular point group: c1

    Geometry (in Angstrom), charge = 0, multiplicity = 1:

       Center              X                  Y                   Z               Mass
    ------------   -----------------  -----------------  -----------------  -----------------
         S            0.250964038000    -0.761740544772    -0.010088147438    31.972071174400
         O           -1.159596962000     1.478572455228    -0.015955147438    15.994914619570
         C            1.365738338000     0.408789555228     0.032679152562    12.000000000000
         C            2.897630038000    -0.059414544772    -0.004318147438    12.000000000000
         C           -1.210521962000     0.256005455228    -0.017342147438    12.000000000000
         C           -2.508051962000    -0.517412544772     0.019042852562    12.000000000000
         H            1.332571038000     1.215896455228    -0.812908147438     1.007825032230
         H            1.353117038000     1.139196455228     0.947276852562     1.007825032230
         H            3.069215038000    -0.719148544772     0.849852852562     1.007825032230
         H            3.050024038000    -0.636495544772    -0.919684147438     1.007825032230
         H            3.647944038000     0.735477455228     0.025148852562     1.007825032230
         H           -2.824511962000    -0.624552544772     1.061007852562     1.007825032230
         H           -2.405187962000    -1.512594544772    -0.418349147438     1.007825032230
         H           -3.267840962000     0.054112455228    -0.517030147438     1.007825032230

  Basis Set: AUG-CC-PVTZ
    Blend: AUG-CC-PVTZ
  Basis Set: (AUG-CC-PVTZ AUX)
    Blend: AUG-CC-PVTZ-JKFIT
	 Reference Energy          =    -628.5932430337277310 [Eh]
	 Singles Energy            =      -0.0000000000000000 [Eh]
	 Same-Spin Energy          =      -0.2935658258067479 [Eh]
	 Opposite-Spin Energy      =      -0.9568811638541680 [Eh]
	 Correlation Energy        =      -1.2504469896609161 [Eh]
	 Total Energy              =    -629.8436900233886035 [Eh]

	 ================> DF-SCS-MP2 Energies <==================
	-----------------------------------------------------------
	 SCS Same-Spin Scale       =       0.3333333333333333 [-]
	 SCS Opposite-Spin Scale   =       1.2000000000000000 [-]
	 SCS Same-Spin Energy      =      -0.0978552752689160 [Eh]
	 SCS Opposite-Spin Energy  =      -1.1482573966250016 [Eh]
	 SCS Correlation Energy    =      -1.2461126718939175 [Eh]
	 SCS Total Energy          =    -629.8393557056216423 [Eh]
	-----------------------------------------------------------

  Dipole Moment: [D]
     X:     0.3039      Y:    -1.3369      Z:     0.0907     Total:     1.3740

*** Psi4 exiting successfully. Buy a developer a beer!
