                               Psi4 1.3.2 release

  ==> Input File <==

--------------------------------------------------------------------------
#psi4
#
memory 32 gb

molecule  {
0 1
  S        0.1889642    -0.7611063    -0.0388255
  O       -1.2094190     1.4662670    -0.0184260
  C        1.4537980     0.5412620     0.0354980
  C        2.8478080    -0.0717200    -0.0067890
  C       -1.2603440     0.2437000    -0.0198130
  C       -2.5578740    -0.5297180     0.0165720
  H        1.2827490     1.2035910    -0.8153790
  H        1.3032950     1.1268910     0.9448060
  H        3.0193930    -0.7314540     0.8473820
  H        3.0002020    -0.6488010    -0.9221550
  H        3.5981220     0.7231720     0.0226780
  H       -2.8743340    -0.6368580     1.0585370
  H       -2.4550100    -1.5249000    -0.4208200
  H       -3.3176630     0.0418070    -0.5195010
units angstrom
no_reorient  #important for SAPT in psi4, default
symmetry c1  #important for SAPT in psi4, default
}

set PROPERTIES_ORIGIN ["COM"]
properties('MP2/aug-cc-pvtz', properties = ['dipole'])
--------------------------------------------------------------------------

    Molecular point group: c1
  Charge       = 0
  Multiplicity = 1
  Basis Set: AUG-CC-PVTZ
    Blend: AUG-CC-PVTZ
  Basis Set: (AUG-CC-PVTZ AUX)
    Blend: AUG-CC-PVTZ-JKFIT

    Orbital Energies [Eh]
    ---------------------

    Doubly Occupied:

       1A    -91.968794     2A    -20.551776     3A    -11.362594
       4A    -11.263387     5A    -11.245127     6A    -11.232236
       7A     -8.970899     8A     -6.652087     9A     -6.650947
      10A     -6.650316    11A     -1.388722    12A     -1.088323
      13A     -1.031370    14A     -0.959608    15A     -0.837132
      16A     -0.731179    17A     -0.655274    18A     -0.636831
      19A     -0.630009    20A     -0.608879    21A     -0.577206
      22A     -0.555123    23A     -0.527121    24A     -0.520951
      25A     -0.501501    26A     -0.461962    27A     -0.409594
      28A     -0.370346

  @DF-RHF Final Energy:  -628.63272032783902

   => Energetics <=

    Nuclear Repulsion Energy =            294.4821035837385921
    One-Electron Energy =               -1448.1510588222938622
    Two-Electron Energy =                 525.0362349107163027
    Total Energy =                       -628.6327203278390243
  Basis Set: (AUG-CC-PVTZ AUX)
    Blend: AUG-CC-PVTZ-RI
    Molecular point group: c1

    Geometry (in Angstrom), charge = 0, multiplicity = 1:

       Center              X                  Y                   Z               Mass
    ------------   -----------------  -----------------  -----------------  -----------------
         S            0.226624016082    -0.769478076039    -0.028892174146    31.972071174400
         O           -1.171759183918     1.457895223961    -0.008492674146    15.994914619570
         C            1.491457816082     0.532890223961     0.045431325854    12.000000000000
         C            2.885467816082    -0.080091776039     0.003144325854    12.000000000000
         C           -1.222684183918     0.235328223961    -0.009879674146    12.000000000000
         C           -2.520214183918    -0.538089776039     0.026505325854    12.000000000000
         H            1.320408816082     1.195219223961    -0.805445674146     1.007825032230
         H            1.340954816082     1.118519223961     0.954739325854     1.007825032230
         H            3.057052816082    -0.739825776039     0.857315325854     1.007825032230
         H            3.037861816082    -0.657172776039    -0.912221674146     1.007825032230
         H            3.635781816082     0.714800223961     0.032611325854     1.007825032230
         H           -2.836674183918    -0.645229776039     1.068470325854     1.007825032230
         H           -2.417350183918    -1.533271776039    -0.410886674146     1.007825032230
         H           -3.280003183918     0.033435223961    -0.509567674146     1.007825032230

  Basis Set: AUG-CC-PVTZ
    Blend: AUG-CC-PVTZ
  Basis Set: (AUG-CC-PVTZ AUX)
    Blend: AUG-CC-PVTZ-JKFIT
	 Reference Energy          =    -628.6327203278390243 [Eh]
	 Singles Energy            =      -0.0000000000000000 [Eh]
	 Same-Spin Energy          =      -0.2908536784282438 [Eh]
	 Opposite-Spin Energy      =      -0.9531665780781716 [Eh]
	 Correlation Energy        =      -1.2440202565064156 [Eh]
	 Total Energy              =    -629.8767405843453844 [Eh]

	 ================> DF-SCS-MP2 Energies <==================
	-----------------------------------------------------------
	 SCS Same-Spin Scale       =       0.3333333333333333 [-]
	 SCS Opposite-Spin Scale   =       1.2000000000000000 [-]
	 SCS Same-Spin Energy      =      -0.0969512261427479 [Eh]
	 SCS Opposite-Spin Energy  =      -1.1437998936938059 [Eh]
	 SCS Correlation Energy    =      -1.2407511198365537 [Eh]
	 SCS Total Energy          =    -629.8734714476755698 [Eh]
	-----------------------------------------------------------

  Dipole Moment: [D]
     X:     0.5800      Y:    -1.2555      Z:     0.1097     Total:     1.3873

*** Psi4 exiting successfully. Buy a developer a beer!
