                               Psi4 1.3.2 release

  ==> Input File <==

--------------------------------------------------------------------------
#psi4
#
memory 32 gb

molecule  {
0 1
  S        0.1831613    -0.7993854    -0.0116814
  O       -1.2094190     1.4662670    -0.0184260
  C        1.4537980     0.5412620     0.0354980
  C        2.8478080    -0.0717200    -0.0067890
  C       -1.2603440     0.2437000    -0.0198130
  C       -2.5578740    -0.5297180     0.0165720
  H        1.2827490     1.2035910    -0.8153790
  H        1.3032950     1.1268910     0.9448060
  H        3.0193930    -0.7314540     0.8473820
  H        3.0002020    -0.6488010    -0.9221550
  H        3.5981220     0.7231720     0.0226780
  H       -2.8743340    -0.6368580     1.0585370
  H       -2.4550100    -1.5249000    -0.4208200
  H       -3.3176630     0.0418070    -0.5195010
units angstrom
no_reorient  #important for SAPT in psi4, default
symmetry c1  #important for SAPT in psi4, default
}

set PROPERTIES_ORIGIN ["COM"]
properties('MP2/aug-cc-pvtz', properties = ['dipole'])
--------------------------------------------------------------------------

    Molecular point group: c1
  Charge       = 0
  Multiplicity = 1
  Basis Set: AUG-CC-PVTZ
    Blend: AUG-CC-PVTZ
  Basis Set: (AUG-CC-PVTZ AUX)
    Blend: AUG-CC-PVTZ-JKFIT

    Orbital Energies [Eh]
    ---------------------

    Doubly Occupied:

       1A    -91.970314     2A    -20.554066     3A    -11.364426
       4A    -11.265584     5A    -11.244686     6A    -11.231436
       7A     -8.971556     8A     -6.652687     9A     -6.651526
      10A     -6.650935    11A     -1.389405    12A     -1.082777
      13A     -1.030898    14A     -0.956757    15A     -0.835335
      16A     -0.731962    17A     -0.653116    18A     -0.635135
      19A     -0.629934    20A     -0.608684    21A     -0.576875
      22A     -0.555373    23A     -0.526020    24A     -0.519754
      25A     -0.501579    26A     -0.458692    27A     -0.409632
      28A     -0.371584

  @DF-RHF Final Energy:  -628.63167857358644

   => Energetics <=

    Nuclear Repulsion Energy =            293.2667663537327485
    One-Electron Energy =               -1445.7354375934442032
    Two-Electron Energy =                 523.8369926661250702
    Total Energy =                       -628.6316785735864414
  Basis Set: (AUG-CC-PVTZ AUX)
    Blend: AUG-CC-PVTZ-RI
    Molecular point group: c1

    Geometry (in Angstrom), charge = 0, multiplicity = 1:

       Center              X                  Y                   Z               Mass
    ------------   -----------------  -----------------  -----------------  -----------------
         S            0.222604558070    -0.795992617934    -0.010090442217    31.972071174400
         O           -1.169975741930     1.469659782066    -0.016835042217    15.994914619570
         C            1.493241258070     0.544654782066     0.037088957783    12.000000000000
         C            2.887251258070    -0.068327217934    -0.005198042217    12.000000000000
         C           -1.220900741930     0.247092782066    -0.018222042217    12.000000000000
         C           -2.518430741930    -0.526325217934     0.018162957783    12.000000000000
         H            1.322192258070     1.206983782066    -0.813788042217     1.007825032230
         H            1.342738258070     1.130283782066     0.946396957783     1.007825032230
         H            3.058836258070    -0.728061217934     0.848972957783     1.007825032230
         H            3.039645258070    -0.645408217934    -0.920564042217     1.007825032230
         H            3.637565258070     0.726564782066     0.024268957783     1.007825032230
         H           -2.834890741930    -0.633465217934     1.060127957783     1.007825032230
         H           -2.415566741930    -1.521507217934    -0.419229042217     1.007825032230
         H           -3.278219741930     0.045199782066    -0.517910042217     1.007825032230

  Basis Set: AUG-CC-PVTZ
    Blend: AUG-CC-PVTZ
  Basis Set: (AUG-CC-PVTZ AUX)
    Blend: AUG-CC-PVTZ-JKFIT
	 Reference Energy          =    -628.6316785735864414 [Eh]
	 Singles Energy            =      -0.0000000000000000 [Eh]
	 Same-Spin Energy          =      -0.2907052781189906 [Eh]
	 Opposite-Spin Energy      =      -0.9536203424978417 [Eh]
	 Correlation Energy        =      -1.2443256206168323 [Eh]
	 Total Energy              =    -629.8760041942032331 [Eh]

	 ================> DF-SCS-MP2 Energies <==================
	-----------------------------------------------------------
	 SCS Same-Spin Scale       =       0.3333333333333333 [-]
	 SCS Opposite-Spin Scale   =       1.2000000000000000 [-]
	 SCS Same-Spin Energy      =      -0.0969017593729968 [Eh]
	 SCS Opposite-Spin Energy  =      -1.1443444109974099 [Eh]
	 SCS Correlation Energy    =      -1.2412461703704067 [Eh]
	 SCS Total Energy          =    -629.8729247439569008 [Eh]
	-----------------------------------------------------------

  Dipole Moment: [D]
     X:     0.5273      Y:    -1.2197      Z:     0.0997     Total:     1.3325

*** Psi4 exiting successfully. Buy a developer a beer!
