                               Psi4 1.3.2 release

  ==> Input File <==

--------------------------------------------------------------------------
#psi4
#
memory 32 gb

molecule  {
0 1
  S        0.2994952    -0.6157758    -0.0178616
  O       -1.2094190     1.4662670    -0.0184260
  C        1.4537980     0.5412620     0.0354980
  C        2.8478080    -0.0717200    -0.0067890
  C       -1.2603440     0.2437000    -0.0198130
  C       -2.5578740    -0.5297180     0.0165720
  H        1.2827490     1.2035910    -0.8153790
  H        1.3032950     1.1268910     0.9448060
  H        3.0193930    -0.7314540     0.8473820
  H        3.0002020    -0.6488010    -0.9221550
  H        3.5981220     0.7231720     0.0226780
  H       -2.8743340    -0.6368580     1.0585370
  H       -2.4550100    -1.5249000    -0.4208200
  H       -3.3176630     0.0418070    -0.5195010
units angstrom
no_reorient  #important for SAPT in psi4, default
symmetry c1  #important for SAPT in psi4, default
}

set PROPERTIES_ORIGIN ["COM"]
properties('MP2/aug-cc-pvtz', properties = ['dipole'])
--------------------------------------------------------------------------

    Molecular point group: c1
  Charge       = 0
  Multiplicity = 1
  Basis Set: AUG-CC-PVTZ
    Blend: AUG-CC-PVTZ
  Basis Set: (AUG-CC-PVTZ AUX)
    Blend: AUG-CC-PVTZ-JKFIT

    Orbital Energies [Eh]
    ---------------------

    Doubly Occupied:

       1A    -91.957120     2A    -20.550745     3A    -11.363695
       4A    -11.250338     5A    -11.248364     6A    -11.235054
       7A     -8.963173     8A     -6.644679     9A     -6.643468
      10A     -6.642529    11A     -1.390591    12A     -1.122116
      13A     -1.029448    14A     -0.963786    15A     -0.839045
      16A     -0.732872    17A     -0.667757    18A     -0.647965
      19A     -0.630874    20A     -0.610593    21A     -0.580623
      22A     -0.554347    23A     -0.532853    24A     -0.527879
      25A     -0.503193    26A     -0.476500    27A     -0.401076
      28A     -0.356164

  @DF-RHF Final Energy:  -628.61267671503458

   => Energetics <=

    Nuclear Repulsion Energy =            298.8102349154381159
    One-Electron Energy =               -1456.7121241140835082
    Two-Electron Energy =                 529.2892124836108678
    Total Energy =                       -628.6126767150345813
  Basis Set: (AUG-CC-PVTZ AUX)
    Blend: AUG-CC-PVTZ-RI
    Molecular point group: c1

    Geometry (in Angstrom), charge = 0, multiplicity = 1:

       Center              X                  Y                   Z               Mass
    ------------   -----------------  -----------------  -----------------  -----------------
         S            0.303184824206    -0.668812918526    -0.014371242231    31.972071174400
         O           -1.205729375794     1.413229881474    -0.014935642231    15.994914619570
         C            1.457487624206     0.488224881474     0.038988357769    12.000000000000
         C            2.851497624206    -0.124757118526    -0.003298642231    12.000000000000
         C           -1.256654375794     0.190662881474    -0.016322642231    12.000000000000
         C           -2.554184375794    -0.582755118526     0.020062357769    12.000000000000
         H            1.286438624206     1.150553881474    -0.811888642231     1.007825032230
         H            1.306984624206     1.073853881474     0.948296357769     1.007825032230
         H            3.023082624206    -0.784491118526     0.850872357769     1.007825032230
         H            3.003891624206    -0.701838118526    -0.918664642231     1.007825032230
         H            3.601811624206     0.670134881474     0.026168357769     1.007825032230
         H           -2.870644375794    -0.689895118526     1.062027357769     1.007825032230
         H           -2.451320375794    -1.577937118526    -0.417329642231     1.007825032230
         H           -3.313973375794    -0.011230118526    -0.516010642231     1.007825032230

  Basis Set: AUG-CC-PVTZ
    Blend: AUG-CC-PVTZ
  Basis Set: (AUG-CC-PVTZ AUX)
    Blend: AUG-CC-PVTZ-JKFIT
	 Reference Energy          =    -628.6126767150345813 [Eh]
	 Singles Energy            =      -0.0000000000000000 [Eh]
	 Same-Spin Energy          =      -0.2923618006951912 [Eh]
	 Opposite-Spin Energy      =      -0.9532933247283752 [Eh]
	 Correlation Energy        =      -1.2456551254235664 [Eh]
	 Total Energy              =    -629.8583318404581632 [Eh]

	 ================> DF-SCS-MP2 Energies <==================
	-----------------------------------------------------------
	 SCS Same-Spin Scale       =       0.3333333333333333 [-]
	 SCS Opposite-Spin Scale   =       1.2000000000000000 [-]
	 SCS Same-Spin Energy      =      -0.0974539335650637 [Eh]
	 SCS Opposite-Spin Energy  =      -1.1439519896740502 [Eh]
	 SCS Correlation Energy    =      -1.2414059232391139 [Eh]
	 SCS Total Energy          =    -629.8540826382736668 [Eh]
	-----------------------------------------------------------

  Dipole Moment: [D]
     X:     0.4988      Y:    -1.1981      Z:     0.1051     Total:     1.3020

*** Psi4 exiting successfully. Buy a developer a beer!
