                               Psi4 1.3.2 release

  ==> Input File <==

--------------------------------------------------------------------------
#psi4
#
memory 32 gb

molecule  {
0 1
  S        0.2011420    -0.7740460    -0.0125590
  O       -1.2094190     1.4662670    -0.0184260
  C        1.5425298     0.4506464     0.0353871
  C        2.8478080    -0.0717200    -0.0067890
  C       -1.2603440     0.2437000    -0.0198130
  C       -2.5578740    -0.5297180     0.0165720
  H        1.2827490     1.2035910    -0.8153790
  H        1.3032950     1.1268910     0.9448060
  H        3.0193930    -0.7314540     0.8473820
  H        3.0002020    -0.6488010    -0.9221550
  H        3.5981220     0.7231720     0.0226780
  H       -2.8743340    -0.6368580     1.0585370
  H       -2.4550100    -1.5249000    -0.4208200
  H       -3.3176630     0.0418070    -0.5195010
units angstrom
no_reorient  #important for SAPT in psi4, default
symmetry c1  #important for SAPT in psi4, default
}

set PROPERTIES_ORIGIN ["COM"]
properties('MP2/aug-cc-pvtz', properties = ['dipole'])
--------------------------------------------------------------------------

    Molecular point group: c1
  Charge       = 0
  Multiplicity = 1
  Basis Set: AUG-CC-PVTZ
    Blend: AUG-CC-PVTZ
  Basis Set: (AUG-CC-PVTZ AUX)
    Blend: AUG-CC-PVTZ-JKFIT

    Orbital Energies [Eh]
    ---------------------

    Doubly Occupied:

       1A    -91.968604     2A    -20.554513     3A    -11.366596
       4A    -11.270116     5A    -11.247154     6A    -11.227080
       7A     -8.970386     8A     -6.651529     9A     -6.650563
      10A     -6.649861    11A     -1.390209    12A     -1.100752
      13A     -1.037811    14A     -0.966483    15A     -0.823401
      16A     -0.731149    17A     -0.659588    18A     -0.633362
      19A     -0.631471    20A     -0.610484    21A     -0.590846
      22A     -0.562186    23A     -0.543787    24A     -0.520755
      25A     -0.483103    26A     -0.451710    27A     -0.409050
      28A     -0.364290

  @DF-RHF Final Energy:  -628.61420440068855

   => Energetics <=

    Nuclear Repulsion Energy =            294.2555362176315725
    One-Electron Energy =               -1447.6057978185945103
    Two-Electron Energy =                 524.7360572002744448
    Total Energy =                       -628.6142044006885499
  Basis Set: (AUG-CC-PVTZ AUX)
    Blend: AUG-CC-PVTZ-RI
    Molecular point group: c1

    Geometry (in Angstrom), charge = 0, multiplicity = 1:

       Center              X                  Y                   Z               Mass
    ------------   -----------------  -----------------  -----------------  -----------------
         S            0.224823762881    -0.767988263567    -0.010685531339    31.972071174400
         O           -1.185737237119     1.472324736433    -0.016552531339    15.994914619570
         C            1.566211562881     0.456704136433     0.037260568661    12.000000000000
         C            2.871489762881    -0.065662263567    -0.004915531339    12.000000000000
         C           -1.236662237119     0.249757736433    -0.017939531339    12.000000000000
         C           -2.534192237119    -0.523660263567     0.018445468661    12.000000000000
         H            1.306430762881     1.209648736433    -0.813505531339     1.007825032230
         H            1.326976762881     1.132948736433     0.946679468661     1.007825032230
         H            3.043074762881    -0.725396263567     0.849255468661     1.007825032230
         H            3.023883762881    -0.642743263567    -0.920281531339     1.007825032230
         H            3.621803762881     0.729229736433     0.024551468661     1.007825032230
         H           -2.850652237119    -0.630800263567     1.060410468661     1.007825032230
         H           -2.431328237119    -1.518842263567    -0.418946531339     1.007825032230
         H           -3.293981237119     0.047864736433    -0.517627531339     1.007825032230

  Basis Set: AUG-CC-PVTZ
    Blend: AUG-CC-PVTZ
  Basis Set: (AUG-CC-PVTZ AUX)
    Blend: AUG-CC-PVTZ-JKFIT
	 Reference Energy          =    -628.6142044006885499 [Eh]
	 Singles Energy            =      -0.0000000000000000 [Eh]
	 Same-Spin Energy          =      -0.2920382080731079 [Eh]
	 Opposite-Spin Energy      =      -0.9547494658881286 [Eh]
	 Correlation Energy        =      -1.2467876739612365 [Eh]
	 Total Energy              =    -629.8609920746497437 [Eh]

	 ================> DF-SCS-MP2 Energies <==================
	-----------------------------------------------------------
	 SCS Same-Spin Scale       =       0.3333333333333333 [-]
	 SCS Opposite-Spin Scale   =       1.2000000000000000 [-]
	 SCS Same-Spin Energy      =      -0.0973460693577026 [Eh]
	 SCS Opposite-Spin Energy  =      -1.1456993590657543 [Eh]
	 SCS Correlation Energy    =      -1.2430454284234569 [Eh]
	 SCS Total Energy          =    -629.8572498291119928 [Eh]
	-----------------------------------------------------------

  Dipole Moment: [D]
     X:     0.5695      Y:    -1.2083      Z:     0.0992     Total:     1.3395

*** Psi4 exiting successfully. Buy a developer a beer!
