                               Psi4 1.4a3.dev225

  ==> Input File <==

--------------------------------------------------------------------------
#psi4
#
memory 32 gb

molecule  {
0 1
  S        0.2011420    -0.7740460    -0.0125590
  O       -1.2094190     1.4662670    -0.0184260
  C        1.4537980     0.5412620     0.0354980
  C        2.8478080    -0.0717200    -0.0067890
  C       -1.2582631     0.2936566    -0.0197563
  C       -2.5578740    -0.5297180     0.0165720
  H        1.2827490     1.2035910    -0.8153790
  H        1.3032950     1.1268910     0.9448060
  H        3.0193930    -0.7314540     0.8473820
  H        3.0002020    -0.6488010    -0.9221550
  H        3.5981220     0.7231720     0.0226780
  H       -2.8743340    -0.6368580     1.0585370
  H       -2.4550100    -1.5249000    -0.4208200
  H       -3.3176630     0.0418070    -0.5195010
units angstrom
no_reorient  #important for SAPT in psi4, default
symmetry c1  #important for SAPT in psi4, default
}

set PROPERTIES_ORIGIN ["COM"]
properties('MP2/aug-cc-pvtz', properties = ['dipole'])
--------------------------------------------------------------------------

    Molecular point group: c1
  Charge       = 0
  Multiplicity = 1
  Basis Set: AUG-CC-PVTZ
    Blend: AUG-CC-PVTZ
  Basis Set: (AUG-CC-PVTZ AUX)
    Blend: AUG-CC-PVTZ-JKFIT

    Orbital Energies [Eh]
    ---------------------

    Doubly Occupied:

       1A    -91.963099     2A    -20.561608     3A    -11.362081
       4A    -11.260672     5A    -11.244908     6A    -11.229655
       7A     -8.964730     8A     -6.645846     9A     -6.644740
      10A     -6.644072    11A     -1.428403    12A     -1.082527
      13A     -1.023007    14A     -0.952576    15A     -0.831625
      16A     -0.734714    17A     -0.660304    18A     -0.641826
      19A     -0.635725    20A     -0.611396    21A     -0.574886
      22A     -0.558751    23A     -0.534749    24A     -0.522386
      25A     -0.509315    26A     -0.458952    27A     -0.401152
      28A     -0.367138

  @DF-RHF Final Energy:  -628.63360839393056

   => Energetics <=

    Nuclear Repulsion Energy =            294.1968793602353571
    One-Electron Energy =               -1447.5592844020652592
    Two-Electron Energy =                 524.7287966478992303
    Total Energy =                       -628.6336083939305581
  Basis Set: (AUG-CC-PVTZ AUX)
    Blend: AUG-CC-PVTZ-RI
    Molecular point group: c1

    Geometry (in Angstrom), charge = 0, multiplicity = 1:

       Center              X                  Y                   Z               Mass
    ------------   -----------------  -----------------  -----------------  -----------------
         S            0.234819100164    -0.784203519861    -0.010704864301    31.972071174400
         O           -1.175741899836     1.456109480139    -0.016571864301    15.994914619570
         C            1.487475100164     0.531104480139     0.037352135699    12.000000000000
         C            2.881485100164    -0.081877519861    -0.004934864301    12.000000000000
         C           -1.224585999836     0.283499080139    -0.017902164301    12.000000000000
         C           -2.524196899836    -0.539875519861     0.018426135699    12.000000000000
         H            1.316426100164     1.193433480139    -0.813524864301     1.007825032230
         H            1.336972100164     1.116733480139     0.946660135699     1.007825032230
         H            3.053070100164    -0.741611519861     0.849236135699     1.007825032230
         H            3.033879100164    -0.658958519861    -0.920300864301     1.007825032230
         H            3.631799100164     0.713014480139     0.024532135699     1.007825032230
         H           -2.840656899836    -0.647015519861     1.060391135699     1.007825032230
         H           -2.421332899836    -1.535057519861    -0.418965864301     1.007825032230
         H           -3.283985899836     0.031649480139    -0.517646864301     1.007825032230

  Basis Set: AUG-CC-PVTZ
    Blend: AUG-CC-PVTZ
  Basis Set: (AUG-CC-PVTZ AUX)
    Blend: AUG-CC-PVTZ-JKFIT
	 Reference Energy          =    -628.6336083939305581 [Eh]
	 Singles Energy            =      -0.0000000000000000 [Eh]
	 Same-Spin Energy          =      -0.2895316612475185 [Eh]
	 Opposite-Spin Energy      =      -0.9509436973996734 [Eh]
	 Correlation Energy        =      -1.2404753586471919 [Eh]
	 Total Energy              =    -629.8740837525778034 [Eh]

	 ================> DF-SCS-MP2 Energies <==================
	-----------------------------------------------------------
	 SCS Same-Spin Scale       =       0.3333333333333333 [-]
	 SCS Opposite-Spin Scale   =       1.2000000000000000 [-]
	 SCS Same-Spin Energy      =      -0.0965105537491728 [Eh]
	 SCS Opposite-Spin Energy  =      -1.1411324368796081 [Eh]
	 SCS Correlation Energy    =      -1.2376429906287809 [Eh]
	 SCS Total Energy          =    -629.8712513845592866 [Eh]
	-----------------------------------------------------------

  Dipole Moment: [D]
     X:     0.3264      Y:    -0.9307      Z:     0.0939     Total:     0.9907

*** Psi4 exiting successfully. Buy a developer a beer!
