                               Psi4 1.4a3.dev225

  ==> Input File <==

--------------------------------------------------------------------------
#psi4
#
memory 32 gb

molecule  {
0 1
  S        0.2011420    -0.7740460    -0.0125590
  O       -1.2094190     1.4662670    -0.0184260
  C        1.4537980     0.5412620     0.0354980
  C        2.8478080    -0.0717200    -0.0067890
  C       -1.2595116     0.2636827    -0.0197903
  C       -2.5578740    -0.5297180     0.0165720
  H        1.2827490     1.2035910    -0.8153790
  H        1.3032950     1.1268910     0.9448060
  H        3.0193930    -0.7314540     0.8473820
  H        3.0002020    -0.6488010    -0.9221550
  H        3.5981220     0.7231720     0.0226780
  H       -2.8743340    -0.6368580     1.0585370
  H       -2.4550100    -1.5249000    -0.4208200
  H       -3.3176630     0.0418070    -0.5195010
units angstrom
no_reorient  #important for SAPT in psi4, default
symmetry c1  #important for SAPT in psi4, default
}

set PROPERTIES_ORIGIN ["COM"]
properties('MP2/aug-cc-pvtz', properties = ['dipole'])
--------------------------------------------------------------------------

    Molecular point group: c1
  Charge       = 0
  Multiplicity = 1
  Basis Set: AUG-CC-PVTZ
    Blend: AUG-CC-PVTZ
  Basis Set: (AUG-CC-PVTZ AUX)
    Blend: AUG-CC-PVTZ-JKFIT

    Orbital Energies [Eh]
    ---------------------

    Doubly Occupied:

       1A    -91.966678     2A    -20.556861     3A    -11.363515
       4A    -11.262033     5A    -11.245330     6A    -11.230846
       7A     -8.968357     8A     -6.649499     9A     -6.648384
      10A     -6.647736    11A     -1.404704    12A     -1.085140
      13A     -1.027683    14A     -0.955717    15A     -0.834005
      16A     -0.732944    17A     -0.656975    18A     -0.636086
      19A     -0.634586    20A     -0.609610    21A     -0.576400
      22A     -0.556533    23A     -0.529051    24A     -0.520923
      25A     -0.505677    26A     -0.461024    27A     -0.406339
      28A     -0.368976

  @DF-RHF Final Energy:  -628.63395981512997

   => Energetics <=

    Nuclear Repulsion Energy =            294.0667456346029667
    One-Electron Energy =               -1447.3181890371620284
    Two-Electron Energy =                 524.6174835874290920
    Total Energy =                       -628.6339598151299697
  Basis Set: (AUG-CC-PVTZ AUX)
    Blend: AUG-CC-PVTZ-RI
    Molecular point group: c1

    Geometry (in Angstrom), charge = 0, multiplicity = 1:

       Center              X                  Y                   Z               Mass
    ------------   -----------------  -----------------  -----------------  -----------------
         S            0.234963116886    -0.780745976544    -0.010700942340    31.972071174400
         O           -1.175597883114     1.459567023456    -0.016567942340    15.994914619570
         C            1.487619116886     0.534562023456     0.037356057660    12.000000000000
         C            2.881629116886    -0.078419976544    -0.004930942340    12.000000000000
         C           -1.225690483114     0.256982723456    -0.017932242340    12.000000000000
         C           -2.524052883114    -0.536417976544     0.018430057660    12.000000000000
         H            1.316570116886     1.196891023456    -0.813520942340     1.007825032230
         H            1.337116116886     1.120191023456     0.946664057660     1.007825032230
         H            3.053214116886    -0.738153976544     0.849240057660     1.007825032230
         H            3.034023116886    -0.655500976544    -0.920296942340     1.007825032230
         H            3.631943116886     0.716472023456     0.024536057660     1.007825032230
         H           -2.840512883114    -0.643557976544     1.060395057660     1.007825032230
         H           -2.421188883114    -1.531599976544    -0.418961942340     1.007825032230
         H           -3.283841883114     0.035107023456    -0.517642942340     1.007825032230

  Basis Set: AUG-CC-PVTZ
    Blend: AUG-CC-PVTZ
  Basis Set: (AUG-CC-PVTZ AUX)
    Blend: AUG-CC-PVTZ-JKFIT
	 Reference Energy          =    -628.6339598151299697 [Eh]
	 Singles Energy            =      -0.0000000000000000 [Eh]
	 Same-Spin Energy          =      -0.2902882858678585 [Eh]
	 Opposite-Spin Energy      =      -0.9523788639856346 [Eh]
	 Correlation Energy        =      -1.2426671498534931 [Eh]
	 Total Energy              =    -629.8766269649834157 [Eh]

	 ================> DF-SCS-MP2 Energies <==================
	-----------------------------------------------------------
	 SCS Same-Spin Scale       =       0.3333333333333333 [-]
	 SCS Opposite-Spin Scale   =       1.2000000000000000 [-]
	 SCS Same-Spin Energy      =      -0.0967627619559528 [Eh]
	 SCS Opposite-Spin Energy  =      -1.1428546367827614 [Eh]
	 SCS Correlation Energy    =      -1.2396173987387142 [Eh]
	 SCS Total Energy          =    -629.8735772138686571 [Eh]
	-----------------------------------------------------------

  Dipole Moment: [D]
     X:     0.4373      Y:    -1.1097      Z:     0.0976     Total:     1.1967

*** Psi4 exiting successfully. Buy a developer a beer!
