                               Psi4 1.4a3.dev225

  ==> Input File <==

--------------------------------------------------------------------------
#psi4
#
memory 32 gb

molecule  {
0 1
  S        0.2011420    -0.7740460    -0.0125590
  O       -1.2094190     1.4662670    -0.0184260
  C        1.4537980     0.5412620     0.0354980
  C        2.8478080    -0.0717200    -0.0067890
  C       -1.3013750     0.2722730    -0.0200167
  C       -2.5578740    -0.5297180     0.0165720
  H        1.2827490     1.2035910    -0.8153790
  H        1.3032950     1.1268910     0.9448060
  H        3.0193930    -0.7314540     0.8473820
  H        3.0002020    -0.6488010    -0.9221550
  H        3.5981220     0.7231720     0.0226780
  H       -2.8743340    -0.6368580     1.0585370
  H       -2.4550100    -1.5249000    -0.4208200
  H       -3.3176630     0.0418070    -0.5195010
units angstrom
no_reorient  #important for SAPT in psi4, default
symmetry c1  #important for SAPT in psi4, default
}

set PROPERTIES_ORIGIN ["COM"]
properties('MP2/aug-cc-pvtz', properties = ['dipole'])
--------------------------------------------------------------------------

    Molecular point group: c1
  Charge       = 0
  Multiplicity = 1
  Basis Set: AUG-CC-PVTZ
    Blend: AUG-CC-PVTZ
  Basis Set: (AUG-CC-PVTZ AUX)
    Blend: AUG-CC-PVTZ-JKFIT

    Orbital Energies [Eh]
    ---------------------

    Doubly Occupied:

       1A    -91.961708     2A    -20.560977     3A    -11.366072
       4A    -11.259600     5A    -11.247684     6A    -11.228964
       7A     -8.962928     8A     -6.644015     9A     -6.642998
      10A     -6.642327    11A     -1.411975    12A     -1.080420
      13A     -1.035622    14A     -0.951126    15A     -0.830020
      16A     -0.735799    17A     -0.658819    18A     -0.641351
      19A     -0.634602    20A     -0.614924    21A     -0.577322
      22A     -0.557167    23A     -0.529311    24A     -0.520046
      25A     -0.506051    26A     -0.459143    27A     -0.402401
      28A     -0.364308

  @DF-RHF Final Energy:  -628.63289919487306

   => Energetics <=

    Nuclear Repulsion Energy =            293.6894843398022772
    One-Electron Energy =               -1446.5894045929999265
    Two-Electron Energy =                 524.2670210583246444
    Total Energy =                       -628.6328991948730618
  Basis Set: (AUG-CC-PVTZ AUX)
    Blend: AUG-CC-PVTZ-RI
    Molecular point group: c1

    Geometry (in Angstrom), charge = 0, multiplicity = 1:

       Center              X                  Y                   Z               Mass
    ------------   -----------------  -----------------  -----------------  -----------------
         S            0.239792135428    -0.781736883111    -0.010674826692    31.972071174400
         O           -1.170768864572     1.458576116889    -0.016541826692    15.994914619570
         C            1.492448135428     0.533571116889     0.037382173308    12.000000000000
         C            2.886458135428    -0.079410883111    -0.004904826692    12.000000000000
         C           -1.262724864572     0.264582116889    -0.018132526692    12.000000000000
         C           -2.519223864572    -0.537408883111     0.018456173308    12.000000000000
         H            1.321399135428     1.195900116889    -0.813494826692     1.007825032230
         H            1.341945135428     1.119200116889     0.946690173308     1.007825032230
         H            3.058043135428    -0.739144883111     0.849266173308     1.007825032230
         H            3.038852135428    -0.656491883111    -0.920270826692     1.007825032230
         H            3.636772135428     0.715481116889     0.024562173308     1.007825032230
         H           -2.835683864572    -0.644548883111     1.060421173308     1.007825032230
         H           -2.416359864572    -1.532590883111    -0.418935826692     1.007825032230
         H           -3.279012864572     0.034116116889    -0.517616826692     1.007825032230

  Basis Set: AUG-CC-PVTZ
    Blend: AUG-CC-PVTZ
  Basis Set: (AUG-CC-PVTZ AUX)
    Blend: AUG-CC-PVTZ-JKFIT
	 Reference Energy          =    -628.6328991948730618 [Eh]
	 Singles Energy            =      -0.0000000000000000 [Eh]
	 Same-Spin Energy          =      -0.2902752117919645 [Eh]
	 Opposite-Spin Energy      =      -0.9522763676737456 [Eh]
	 Correlation Energy        =      -1.2425515794657100 [Eh]
	 Total Energy              =    -629.8754507743387876 [Eh]

	 ================> DF-SCS-MP2 Energies <==================
	-----------------------------------------------------------
	 SCS Same-Spin Scale       =       0.3333333333333333 [-]
	 SCS Opposite-Spin Scale   =       1.2000000000000000 [-]
	 SCS Same-Spin Energy      =      -0.0967584039306548 [Eh]
	 SCS Opposite-Spin Energy  =      -1.1427316412084947 [Eh]
	 SCS Correlation Energy    =      -1.2394900451391495 [Eh]
	 SCS Total Energy          =    -629.8723892400122395 [Eh]
	-----------------------------------------------------------

  Dipole Moment: [D]
     X:     0.0822      Y:    -0.9973      Z:     0.1027     Total:     1.0060

*** Psi4 exiting successfully. Buy a developer a beer!
