                               Psi4 1.3.2 release

  ==> Input File <==

--------------------------------------------------------------------------
#psi4
#
memory 32 gb

molecule  {
0 1
  S        0.2011420    -0.7740460    -0.0125590
  O       -1.1242981     1.4597409    -0.0209482
  C        1.4537980     0.5412620     0.0354980
  C        2.8478080    -0.0717200    -0.0067890
  C       -1.2603440     0.2437000    -0.0198130
  C       -2.5578740    -0.5297180     0.0165720
  H        1.2827490     1.2035910    -0.8153790
  H        1.3032950     1.1268910     0.9448060
  H        3.0193930    -0.7314540     0.8473820
  H        3.0002020    -0.6488010    -0.9221550
  H        3.5981220     0.7231720     0.0226780
  H       -2.8743340    -0.6368580     1.0585370
  H       -2.4550100    -1.5249000    -0.4208200
  H       -3.3176630     0.0418070    -0.5195010
units angstrom
no_reorient  #important for SAPT in psi4, default
symmetry c1  #important for SAPT in psi4, default
}

set PROPERTIES_ORIGIN ["COM"]
properties('MP2/aug-cc-pvtz', properties = ['dipole'])
--------------------------------------------------------------------------

    Molecular point group: c1
  Charge       = 0
  Multiplicity = 1
  Basis Set: AUG-CC-PVTZ
    Blend: AUG-CC-PVTZ
  Basis Set: (AUG-CC-PVTZ AUX)
    Blend: AUG-CC-PVTZ-JKFIT

    Orbital Energies [Eh]
    ---------------------

    Doubly Occupied:

       1A    -91.964724     2A    -20.554231     3A    -11.365868
       4A    -11.260243     5A    -11.250046     6A    -11.229560
       7A     -8.966650     8A     -6.647793     9A     -6.646739
      10A     -6.646087    11A     -1.390987    12A     -1.084021
      13A     -1.033378    14A     -0.956432    15A     -0.834176
      16A     -0.731736    17A     -0.655153    18A     -0.634847
      19A     -0.633077    20A     -0.610443    21A     -0.577975
      22A     -0.556056    23A     -0.527436    24A     -0.517536
      25A     -0.500951    26A     -0.460773    27A     -0.406784
      28A     -0.366921

  @DF-RHF Final Energy:  -628.63100547195199

   => Energetics <=

    Nuclear Repulsion Energy =            294.7509694651039922
    One-Electron Energy =               -1448.7427075167399835
    Two-Electron Energy =                 525.3607325796840541
    Total Energy =                       -628.6310054719519940
  Basis Set: (AUG-CC-PVTZ AUX)
    Blend: AUG-CC-PVTZ-RI
    Molecular point group: c1

    Geometry (in Angstrom), charge = 0, multiplicity = 1:

       Center              X                  Y                   Z               Mass
    ------------   -----------------  -----------------  -----------------  -----------------
         S            0.221971498067    -0.777437525311    -0.010310526736    31.972071174400
         O           -1.103468601933     1.456349374689    -0.018699726736    15.994914619570
         C            1.474627498067     0.537870474689     0.037746473264    12.000000000000
         C            2.868637498067    -0.075111525311    -0.004540526736    12.000000000000
         C           -1.239514501933     0.240308474689    -0.017564526736    12.000000000000
         C           -2.537044501933    -0.533109525311     0.018820473264    12.000000000000
         H            1.303578498067     1.200199474689    -0.813130526736     1.007825032230
         H            1.324124498067     1.123499474689     0.947054473264     1.007825032230
         H            3.040222498067    -0.734845525311     0.849630473264     1.007825032230
         H            3.021031498067    -0.652192525311    -0.919906526736     1.007825032230
         H            3.618951498067     0.719780474689     0.024926473264     1.007825032230
         H           -2.853504501933    -0.640249525311     1.060785473264     1.007825032230
         H           -2.434180501933    -1.528291525311    -0.418571526736     1.007825032230
         H           -3.296833501933     0.038415474689    -0.517252526736     1.007825032230

  Basis Set: AUG-CC-PVTZ
    Blend: AUG-CC-PVTZ
  Basis Set: (AUG-CC-PVTZ AUX)
    Blend: AUG-CC-PVTZ-JKFIT
	 Reference Energy          =    -628.6310054719519940 [Eh]
	 Singles Energy            =      -0.0000000000000000 [Eh]
	 Same-Spin Energy          =      -0.2910532196981945 [Eh]
	 Opposite-Spin Energy      =      -0.9535466561682446 [Eh]
	 Correlation Energy        =      -1.2445998758664392 [Eh]
	 Total Energy              =    -629.8756053478184640 [Eh]

	 ================> DF-SCS-MP2 Energies <==================
	-----------------------------------------------------------
	 SCS Same-Spin Scale       =       0.3333333333333333 [-]
	 SCS Opposite-Spin Scale   =       1.2000000000000000 [-]
	 SCS Same-Spin Energy      =      -0.0970177398993982 [Eh]
	 SCS Opposite-Spin Energy  =      -1.1442559874018936 [Eh]
	 SCS Correlation Energy    =      -1.2412737273012917 [Eh]
	 SCS Total Energy          =    -629.8722791992532848 [Eh]
	-----------------------------------------------------------

  Dipole Moment: [D]
     X:     0.2295      Y:    -1.1761      Z:     0.1038     Total:     1.2028

*** Psi4 exiting successfully. Buy a developer a beer!
