                               Psi4 1.3.2 release

  ==> Input File <==

--------------------------------------------------------------------------
#psi4
#
memory 32 gb

molecule  {
0 1
  S        0.1647409    -0.8244071    -0.0108063
  O       -1.2094190     1.4662670    -0.0184260
  C        1.4537980     0.5412620     0.0354980
  C        2.8478080    -0.0717200    -0.0067890
  C       -1.2603440     0.2437000    -0.0198130
  C       -2.5578740    -0.5297180     0.0165720
  H        1.2827490     1.2035910    -0.8153790
  H        1.3032950     1.1268910     0.9448060
  H        3.0193930    -0.7314540     0.8473820
  H        3.0002020    -0.6488010    -0.9221550
  H        3.5981220     0.7231720     0.0226780
  H       -2.8743340    -0.6368580     1.0585370
  H       -2.4550100    -1.5249000    -0.4208200
  H       -3.3176630     0.0418070    -0.5195010
units angstrom
no_reorient  #important for SAPT in psi4, default
symmetry c1  #important for SAPT in psi4, default
}

set PROPERTIES_ORIGIN ["COM"]
properties('MP2/aug-cc-pvtz', properties = ['dipole'])
--------------------------------------------------------------------------

    Molecular point group: c1
  Charge       = 0
  Multiplicity = 1
  Basis Set: AUG-CC-PVTZ
    Blend: AUG-CC-PVTZ
  Basis Set: (AUG-CC-PVTZ AUX)
    Blend: AUG-CC-PVTZ-JKFIT

    Orbital Energies [Eh]
    ---------------------

    Doubly Occupied:

       1A    -91.971484     2A    -20.554348     3A    -11.364389
       4A    -11.268276     5A    -11.243758     6A    -11.231355
       7A     -8.972298     8A     -6.653401     9A     -6.652201
      10A     -6.651649    11A     -1.389177    12A     -1.079129
      13A     -1.031045    14A     -0.955604    15A     -0.835207
      16A     -0.731692    17A     -0.651140    18A     -0.634178
      19A     -0.629616    20A     -0.608403    21A     -0.576504
      22A     -0.555766    23A     -0.525421    24A     -0.519768
      25A     -0.501543    26A     -0.454806    27A     -0.409857
      28A     -0.372951

  @DF-RHF Final Energy:  -628.63000776006584

   => Energetics <=

    Nuclear Repulsion Energy =            292.5617454505795081
    One-Electron Energy =               -1444.3335777317224711
    Two-Electron Energy =                 523.1418245210770692
    Total Energy =                       -628.6300077600658369
  Basis Set: (AUG-CC-PVTZ AUX)
    Blend: AUG-CC-PVTZ-RI
    Molecular point group: c1

    Geometry (in Angstrom), charge = 0, multiplicity = 1:

       Center              X                  Y                   Z               Mass
    ------------   -----------------  -----------------  -----------------  -----------------
         S            0.209845416201    -0.813324240489    -0.009484292239    31.972071174400
         O           -1.164314483799     1.477349859511    -0.017103992239    15.994914619570
         C            1.498902516201     0.552344859511     0.036820007761    12.000000000000
         C            2.892912516201    -0.060637140489    -0.005466992239    12.000000000000
         C           -1.215239483799     0.254782859511    -0.018490992239    12.000000000000
         C           -2.512769483799    -0.518635140489     0.017894007761    12.000000000000
         H            1.327853516201     1.214673859511    -0.814056992239     1.007825032230
         H            1.348399516201     1.137973859511     0.946128007761     1.007825032230
         H            3.064497516201    -0.720371140489     0.848704007761     1.007825032230
         H            3.045306516201    -0.637718140489    -0.920832992239     1.007825032230
         H            3.643226516201     0.734254859511     0.024000007761     1.007825032230
         H           -2.829229483799    -0.625775140489     1.059859007761     1.007825032230
         H           -2.409905483799    -1.513817140489    -0.419497992239     1.007825032230
         H           -3.272558483799     0.052889859511    -0.518178992239     1.007825032230

  Basis Set: AUG-CC-PVTZ
    Blend: AUG-CC-PVTZ
  Basis Set: (AUG-CC-PVTZ AUX)
    Blend: AUG-CC-PVTZ-JKFIT
	 Reference Energy          =    -628.6300077600658369 [Eh]
	 Singles Energy            =      -0.0000000000000000 [Eh]
	 Same-Spin Energy          =      -0.2906172513454363 [Eh]
	 Opposite-Spin Energy      =      -0.9539060141736144 [Eh]
	 Correlation Energy        =      -1.2445232655190508 [Eh]
	 Total Energy              =    -629.8745310255849290 [Eh]

	 ================> DF-SCS-MP2 Energies <==================
	-----------------------------------------------------------
	 SCS Same-Spin Scale       =       0.3333333333333333 [-]
	 SCS Opposite-Spin Scale   =       1.2000000000000000 [-]
	 SCS Same-Spin Energy      =      -0.0968724171151454 [Eh]
	 SCS Opposite-Spin Energy  =      -1.1446872170083373 [Eh]
	 SCS Correlation Energy    =      -1.2415596341234827 [Eh]
	 SCS Total Energy          =    -629.8715673941893556 [Eh]
	-----------------------------------------------------------

  Dipole Moment: [D]
     X:     0.5492      Y:    -1.2162      Z:     0.0994     Total:     1.3382

*** Psi4 exiting successfully. Buy a developer a beer!
