                               Psi4 1.3.2 release

  ==> Input File <==

--------------------------------------------------------------------------
#psi4
#
memory 32 gb

molecule  {
0 1
  S        0.2959970    -0.8580920    -0.0173887
  O       -1.2094190     1.4662670    -0.0184260
  C        1.4537980     0.5412620     0.0354980
  C        2.8478080    -0.0717200    -0.0067890
  C       -1.2603440     0.2437000    -0.0198130
  C       -2.5578740    -0.5297180     0.0165720
  H        1.2827490     1.2035910    -0.8153790
  H        1.3032950     1.1268910     0.9448060
  H        3.0193930    -0.7314540     0.8473820
  H        3.0002020    -0.6488010    -0.9221550
  H        3.5981220     0.7231720     0.0226780
  H       -2.8743340    -0.6368580     1.0585370
  H       -2.4550100    -1.5249000    -0.4208200
  H       -3.3176630     0.0418070    -0.5195010
units angstrom
no_reorient  #important for SAPT in psi4, default
symmetry c1  #important for SAPT in psi4, default
}

set PROPERTIES_ORIGIN ["COM"]
properties('MP2/aug-cc-pvtz', properties = ['dipole'])
--------------------------------------------------------------------------

    Molecular point group: c1
  Charge       = 0
  Multiplicity = 1
  Basis Set: AUG-CC-PVTZ
    Blend: AUG-CC-PVTZ
  Basis Set: (AUG-CC-PVTZ AUX)
    Blend: AUG-CC-PVTZ-JKFIT

    Orbital Energies [Eh]
    ---------------------

    Doubly Occupied:

       1A    -91.969596     2A    -20.566693     3A    -11.376442
       4A    -11.259863     5A    -11.249520     6A    -11.227379
       7A     -8.969148     8A     -6.650138     9A     -6.649041
      10A     -6.648385    11A     -1.396304    12A     -1.079057
      13A     -1.027910    14A     -0.944418    15A     -0.825564
      16A     -0.739548    17A     -0.653464    18A     -0.633212
      19A     -0.632051    20A     -0.610470    21A     -0.578126
      22A     -0.554052    23A     -0.524576    24A     -0.515104
      25A     -0.503018    26A     -0.462797    27A     -0.402916
      28A     -0.367116

  @DF-RHF Final Energy:  -628.62312277341448

   => Energetics <=

    Nuclear Repulsion Energy =            290.7074879616677094
    One-Electron Energy =               -1440.6294011662421326
    Two-Electron Energy =                 521.2987904311598868
    Total Energy =                       -628.6231227734144795
  Basis Set: (AUG-CC-PVTZ AUX)
    Blend: AUG-CC-PVTZ-RI
    Molecular point group: c1

    Geometry (in Angstrom), charge = 0, multiplicity = 1:

       Center              X                  Y                   Z               Mass
    ------------   -----------------  -----------------  -----------------  -----------------
         S            0.300761748155    -0.836656546951    -0.014043681582    31.972071174400
         O           -1.204654251845     1.487702453049    -0.015080981582    15.994914619570
         C            1.458562748155     0.562697453049     0.038843018418    12.000000000000
         C            2.852572748155    -0.050284546951    -0.003443981582    12.000000000000
         C           -1.255579251845     0.265135453049    -0.016467981582    12.000000000000
         C           -2.553109251845    -0.508282546951     0.019917018418    12.000000000000
         H            1.287513748155     1.225026453049    -0.812033981582     1.007825032230
         H            1.308059748155     1.148326453049     0.948151018418     1.007825032230
         H            3.024157748155    -0.710018546951     0.850727018418     1.007825032230
         H            3.004966748155    -0.627365546951    -0.918809981582     1.007825032230
         H            3.602886748155     0.744607453049     0.026023018418     1.007825032230
         H           -2.869569251845    -0.615422546951     1.061882018418     1.007825032230
         H           -2.450245251845    -1.503464546951    -0.417474981582     1.007825032230
         H           -3.312898251845     0.063242453049    -0.516155981582     1.007825032230

  Basis Set: AUG-CC-PVTZ
    Blend: AUG-CC-PVTZ
  Basis Set: (AUG-CC-PVTZ AUX)
    Blend: AUG-CC-PVTZ-JKFIT
	 Reference Energy          =    -628.6231227734144795 [Eh]
	 Singles Energy            =      -0.0000000000000000 [Eh]
	 Same-Spin Energy          =      -0.2910529828148694 [Eh]
	 Opposite-Spin Energy      =      -0.9557145908384530 [Eh]
	 Correlation Energy        =      -1.2467675736533224 [Eh]
	 Total Energy              =    -629.8698903470677806 [Eh]

	 ================> DF-SCS-MP2 Energies <==================
	-----------------------------------------------------------
	 SCS Same-Spin Scale       =       0.3333333333333333 [-]
	 SCS Opposite-Spin Scale   =       1.2000000000000000 [-]
	 SCS Same-Spin Energy      =      -0.0970176609382898 [Eh]
	 SCS Opposite-Spin Energy  =      -1.1468575090061435 [Eh]
	 SCS Correlation Energy    =      -1.2438751699444333 [Eh]
	 SCS Total Energy          =    -629.8669979433589106 [Eh]
	-----------------------------------------------------------

  Dipole Moment: [D]
     X:    -0.0237      Y:    -0.9681      Z:     0.1053     Total:     0.9741

*** Psi4 exiting successfully. Buy a developer a beer!
