                               Psi4 1.3.2 release

  ==> Input File <==

--------------------------------------------------------------------------
#psi4
#
memory 32 gb

molecule  {
0 1
  S        0.0704386    -0.6360985    -0.0048831
  O       -1.2094190     1.4662670    -0.0184260
  C        1.4537980     0.5412620     0.0354980
  C        2.8478080    -0.0717200    -0.0067890
  C       -1.2603440     0.2437000    -0.0198130
  C       -2.5578740    -0.5297180     0.0165720
  H        1.2827490     1.2035910    -0.8153790
  H        1.3032950     1.1268910     0.9448060
  H        3.0193930    -0.7314540     0.8473820
  H        3.0002020    -0.6488010    -0.9221550
  H        3.5981220     0.7231720     0.0226780
  H       -2.8743340    -0.6368580     1.0585370
  H       -2.4550100    -1.5249000    -0.4208200
  H       -3.3176630     0.0418070    -0.5195010
units angstrom
no_reorient  #important for SAPT in psi4, default
symmetry c1  #important for SAPT in psi4, default
}

set PROPERTIES_ORIGIN ["COM"]
properties('MP2/aug-cc-pvtz', properties = ['dipole'])
--------------------------------------------------------------------------

    Molecular point group: c1
  Charge       = 0
  Multiplicity = 1
  Basis Set: AUG-CC-PVTZ
    Blend: AUG-CC-PVTZ
  Basis Set: (AUG-CC-PVTZ AUX)
    Blend: AUG-CC-PVTZ-JKFIT

    Orbital Energies [Eh]
    ---------------------

    Doubly Occupied:

       1A    -91.965034     2A    -20.531168     3A    -11.342155
       4A    -11.268124     5A    -11.240836     6A    -11.238642
       7A     -8.972401     8A     -6.654055     9A     -6.652324
      10A     -6.651752    11A     -1.381506    12A     -1.108114
      13A     -1.040430    14A     -0.973649    15A     -0.853660
      16A     -0.720838    17A     -0.655703    18A     -0.642841
      19A     -0.630112    20A     -0.609336    21A     -0.576485
      22A     -0.555471    23A     -0.533971    24A     -0.531006
      25A     -0.501527    26A     -0.454380    27A     -0.408473
      28A     -0.372086

  @DF-RHF Final Energy:  -628.61479824772596

   => Energetics <=

    Nuclear Repulsion Energy =            299.7520244849100663
    One-Electron Energy =               -1458.6014871589493396
    Two-Electron Energy =                 530.2346644263134294
    Total Energy =                       -628.6147982477259575
  Basis Set: (AUG-CC-PVTZ AUX)
    Blend: AUG-CC-PVTZ-RI
    Molecular point group: c1

    Geometry (in Angstrom), charge = 0, multiplicity = 1:

       Center              X                  Y                   Z               Mass
    ------------   -----------------  -----------------  -----------------  -----------------
         S            0.144525638981    -0.682889714495    -0.005381506788    31.972071174400
         O           -1.135331961019     1.419475785505    -0.018924406788    15.994914619570
         C            1.527885038981     0.494470785505     0.034999593212    12.000000000000
         C            2.921895038981    -0.118511214495    -0.007287406788    12.000000000000
         C           -1.186256961019     0.196908785505    -0.020311406788    12.000000000000
         C           -2.483786961019    -0.576509214495     0.016073593212    12.000000000000
         H            1.356836038981     1.156799785505    -0.815877406788     1.007825032230
         H            1.377382038981     1.080099785505     0.944307593212     1.007825032230
         H            3.093480038981    -0.778245214495     0.846883593212     1.007825032230
         H            3.074289038981    -0.695592214495    -0.922653406788     1.007825032230
         H            3.672209038981     0.676380785505     0.022179593212     1.007825032230
         H           -2.800246961019    -0.683649214495     1.058038593212     1.007825032230
         H           -2.380922961019    -1.571691214495    -0.421318406788     1.007825032230
         H           -3.243575961019    -0.004984214495    -0.519999406788     1.007825032230

  Basis Set: AUG-CC-PVTZ
    Blend: AUG-CC-PVTZ
  Basis Set: (AUG-CC-PVTZ AUX)
    Blend: AUG-CC-PVTZ-JKFIT
	 Reference Energy          =    -628.6147982477259575 [Eh]
	 Singles Energy            =      -0.0000000000000000 [Eh]
	 Same-Spin Energy          =      -0.2919178346516327 [Eh]
	 Opposite-Spin Energy      =      -0.9523453146406058 [Eh]
	 Correlation Energy        =      -1.2442631492922385 [Eh]
	 Total Energy              =    -629.8590613970181948 [Eh]

	 ================> DF-SCS-MP2 Energies <==================
	-----------------------------------------------------------
	 SCS Same-Spin Scale       =       0.3333333333333333 [-]
	 SCS Opposite-Spin Scale   =       1.2000000000000000 [-]
	 SCS Same-Spin Energy      =      -0.0973059448838776 [Eh]
	 SCS Opposite-Spin Energy  =      -1.1428143775687269 [Eh]
	 SCS Correlation Energy    =      -1.2401203224526045 [Eh]
	 SCS Total Energy          =    -629.8549185701785973 [Eh]
	-----------------------------------------------------------

  Dipole Moment: [D]
     X:     1.2300      Y:    -1.5594      Z:     0.0930     Total:     1.9883

*** Psi4 exiting successfully. Buy a developer a beer!
