                               Psi4 1.3.2 release

  ==> Input File <==

--------------------------------------------------------------------------
#psi4
#
memory 32 gb

molecule  {
0 1
  O        0.0109280     1.9504830    -1.2088660
  N        1.2104930     0.4628600     0.0596820
  C        3.6816010    -0.9509880     0.4072830
  C        3.5342200     0.1692850    -0.6230390
  C        2.3335540    -1.6180450     0.6838790
  C        2.4642000     1.1676880    -0.1911000
  C        1.2914730    -0.5760260     1.0805660
  C        0.0527250     0.9288280    -0.5097470
  C       -1.1605967     0.0484599    -0.3765597
  C       -2.2823960     0.6556420     0.3835130
  C       -1.2622800    -1.1716740    -0.8705440
  C       -3.4454200    -0.1153760     0.4879690
  C       -2.2065840     2.0368470     0.9809810
  C       -2.4366510    -1.9182050    -0.7675160
  C       -3.5304630    -1.3875060    -0.0828830
  H        4.4130950    -1.6928310     0.0671840
  H        4.0710030    -0.5292960     1.3442740
  H        4.4878230     0.6919580    -0.7653020
  H        3.2457620    -0.2529490    -1.5933530
  H        1.9831950    -2.1398170    -0.2152240
  H        2.4267450    -2.3652010     1.4815110
  H        2.7768740     1.6847790     0.7291870
  H        2.2671880     1.9220510    -0.9540200
  H        0.3069530    -1.0243470     1.2170770
  H        1.5834140    -0.1085280     2.0346680
  H       -0.4031770    -1.5700500    -1.4080150
  H       -4.3043690     0.2928860     1.0181070
  H       -2.0253310     2.7815300     0.2022010
  H       -3.1368610     2.2826280     1.5002420
  H       -1.3844770     2.1136550     1.7007310
  H       -2.4977120    -2.9041740    -1.2220500
  H       -4.4499260    -1.9612690     0.0072960
units angstrom
no_reorient  #important for SAPT in psi4, default
symmetry c1  #important for SAPT in psi4, default
}

set PROPERTIES_ORIGIN ["COM"]
properties('MP2/aug-cc-pvtz', properties = ['dipole'])
--------------------------------------------------------------------------

    Molecular point group: c1
  Charge       = 0
  Multiplicity = 1
  Basis Set: AUG-CC-PVTZ
    Blend: AUG-CC-PVTZ
  Basis Set: (AUG-CC-PVTZ AUX)
    Blend: AUG-CC-PVTZ-JKFIT

    Orbital Energies [Eh]
    ---------------------

    Doubly Occupied:

       1A    -20.511509     2A    -15.584244     3A    -11.350039
       4A    -11.267489     5A    -11.259085     6A    -11.254826
       7A    -11.244643     8A    -11.242134     9A    -11.238092
      10A    -11.235686    11A    -11.235309    12A    -11.230848
      13A    -11.228538    14A    -11.226014    15A    -11.222340
      16A     -1.367425    17A     -1.249944    18A     -1.161808
      19A     -1.083827    20A     -1.047068    21A     -1.041631
      22A     -1.026754    23A     -0.943228    24A     -0.919168
      25A     -0.867414    26A     -0.841397    27A     -0.810385
      28A     -0.794775    29A     -0.743608    30A     -0.714085
      31A     -0.666945    32A     -0.649998    33A     -0.647967
      34A     -0.628232    35A     -0.622299    36A     -0.614663
      37A     -0.598396    38A     -0.587909    39A     -0.574685
      40A     -0.571356    41A     -0.559401    42A     -0.548019
      43A     -0.545001    44A     -0.524818    45A     -0.507592
      46A     -0.503126    47A     -0.492945    48A     -0.483281
      49A     -0.478476    50A     -0.470037    51A     -0.461805
      52A     -0.416182    53A     -0.366825    54A     -0.351389
      55A     -0.320351

  @DF-RHF Final Energy:  -631.72107036216903

   => Energetics <=

    Nuclear Repulsion Energy =            999.8213505056841086
    One-Electron Energy =               -2842.8148197940140562
    Two-Electron Energy =                1211.2723989261608040
    Total Energy =                       -631.7210703621690300
  Basis Set: (AUG-CC-PVTZ AUX)
    Blend: AUG-CC-PVTZ-RI
    Molecular point group: c1

    Geometry (in Angstrom), charge = 0, multiplicity = 1:

       Center              X                  Y                   Z               Mass
    ------------   -----------------  -----------------  -----------------  -----------------
         O            0.055434025287     1.940116734045    -1.178926803218    15.994914619570
         N            1.254999025287     0.452493734045     0.089621196782    14.003074004430
         C            3.726107025287    -0.961354265955     0.437222196782    12.000000000000
         C            3.578726025287     0.158918734045    -0.593099803218    12.000000000000
         C            2.378060025287    -1.628411265955     0.713818196782    12.000000000000
         C            2.508706025287     1.157321734045    -0.161160803218    12.000000000000
         C            1.335979025287    -0.586392265955     1.110505196782    12.000000000000
         C            0.097231025287     0.918461734045    -0.479807803218    12.000000000000
         C           -1.116090674713     0.038093634045    -0.346620503218    12.000000000000
         C           -2.237889974713     0.645275734045     0.413452196782    12.000000000000
         C           -1.217773974713    -1.182040265955    -0.840604803218    12.000000000000
         C           -3.400913974713    -0.125742265955     0.517908196782    12.000000000000
         C           -2.162077974713     2.026480734045     1.010920196782    12.000000000000
         C           -2.392144974713    -1.928571265955    -0.737576803218    12.000000000000
         C           -3.485956974713    -1.397872265955    -0.052943803218    12.000000000000
         H            4.457601025287    -1.703197265955     0.097123196782     1.007825032230
         H            4.115509025287    -0.539662265955     1.374213196782     1.007825032230
         H            4.532329025287     0.681591734045    -0.735362803218     1.007825032230
         H            3.290268025287    -0.263315265955    -1.563413803218     1.007825032230
         H            2.027701025287    -2.150183265955    -0.185284803218     1.007825032230
         H            2.471251025287    -2.375567265955     1.511450196782     1.007825032230
         H            2.821380025287     1.674412734045     0.759126196782     1.007825032230
         H            2.311694025287     1.911684734045    -0.924080803218     1.007825032230
         H            0.351459025287    -1.034713265955     1.247016196782     1.007825032230
         H            1.627920025287    -0.118894265955     2.064607196782     1.007825032230
         H           -0.358670974713    -1.580416265955    -1.378075803218     1.007825032230
         H           -4.259862974713     0.282519734045     1.048046196782     1.007825032230
         H           -1.980824974713     2.771163734045     0.232140196782     1.007825032230
         H           -3.092354974713     2.272261734045     1.530181196782     1.007825032230
         H           -1.339970974713     2.103288734045     1.730670196782     1.007825032230
         H           -2.453205974713    -2.914540265955    -1.192110803218     1.007825032230
         H           -4.405419974713    -1.971635265955     0.037235196782     1.007825032230

  Basis Set: AUG-CC-PVTZ
    Blend: AUG-CC-PVTZ
  Basis Set: (AUG-CC-PVTZ AUX)
    Blend: AUG-CC-PVTZ-JKFIT
	 Reference Energy          =    -631.7210703621690300 [Eh]
	 Singles Energy            =      -0.0000000000000000 [Eh]
	 Same-Spin Energy          =      -0.6885514792255536 [Eh]
	 Opposite-Spin Energy      =      -2.2122585041034806 [Eh]
	 Correlation Energy        =      -2.9008099833290339 [Eh]
	 Total Energy              =    -634.6218803454980844 [Eh]

	 ================> DF-SCS-MP2 Energies <==================
	-----------------------------------------------------------
	 SCS Same-Spin Scale       =       0.3333333333333333 [-]
	 SCS Opposite-Spin Scale   =       1.2000000000000000 [-]
	 SCS Same-Spin Energy      =      -0.2295171597418512 [Eh]
	 SCS Opposite-Spin Energy  =      -2.6547102049241764 [Eh]
	 SCS Correlation Energy    =      -2.8842273646660277 [Eh]
	 SCS Total Energy          =    -634.6052977268350332 [Eh]
	-----------------------------------------------------------

  Dipole Moment: [D]
     X:     1.4390      Y:    -2.4784      Z:     2.3091     Total:     3.6804

*** Psi4 exiting successfully. Buy a developer a beer!
