                               Psi4 1.3.2 release

  ==> Input File <==

--------------------------------------------------------------------------
#psi4
#
memory 32 gb

molecule  {
0 1
  O        0.0109280     1.9504830    -1.2088660
  N        1.2104930     0.4628600     0.0596820
  C        3.6816010    -0.9509880     0.4072830
  C        3.5342200     0.1692850    -0.6230390
  C        2.3335540    -1.6180450     0.6838790
  C        2.4642000     1.1676880    -0.1911000
  C        1.2914730    -0.5760260     1.0805660
  C        0.0527250     0.9288280    -0.5097470
  C       -1.1808260     0.1020470    -0.2945890
  C       -2.2823960     0.6556420     0.3835130
  C       -1.2622800    -1.1716740    -0.8705440
  C       -3.4454200    -0.1153760     0.4879690
  C       -2.2065840     2.0368470     0.9809810
  C       -2.4366510    -1.9182050    -0.7675160
  C       -3.5304630    -1.3875060    -0.0828830
  H        4.4130950    -1.6928310     0.0671840
  H        4.0710030    -0.5292960     1.3442740
  H        4.4878230     0.6919580    -0.7653020
  H        3.2457620    -0.2529490    -1.5933530
  H        1.9831950    -2.1398170    -0.2152240
  H        2.4267450    -2.3652010     1.4815110
  H        2.7768740     1.6847790     0.7291870
  H        2.2671880     1.9220510    -0.9540200
  H        0.3069530    -1.0243470     1.2170770
  H        1.5834140    -0.1085280     2.0346680
  H       -0.4031770    -1.5700500    -1.4080150
  H       -4.3043690     0.2928860     1.0181070
  H       -2.0253310     2.7815300     0.2022010
  H       -3.1368610     2.2826280     1.5002420
  H       -1.3844770     2.1136550     1.7007310
  H       -2.4977120    -2.9041740    -1.2220500
  H       -4.4499260    -1.9612690     0.0072960
units angstrom
no_reorient  #important for SAPT in psi4, default
symmetry c1  #important for SAPT in psi4, default
}

set PROPERTIES_ORIGIN ["COM"]
properties('MP2/aug-cc-pvtz', properties = ['dipole'])
--------------------------------------------------------------------------

    Molecular point group: c1
  Charge       = 0
  Multiplicity = 1
  Basis Set: AUG-CC-PVTZ
    Blend: AUG-CC-PVTZ
  Basis Set: (AUG-CC-PVTZ AUX)
    Blend: AUG-CC-PVTZ-JKFIT

    Orbital Energies [Eh]
    ---------------------

    Doubly Occupied:

       1A    -20.510790     2A    -15.583907     3A    -11.349463
       4A    -11.267074     5A    -11.254636     6A    -11.251847
       7A    -11.246342     8A    -11.245016     9A    -11.242646
      10A    -11.239139    11A    -11.236977    12A    -11.230636
      13A    -11.228323    14A    -11.225680    15A    -11.220337
      16A     -1.367002    17A     -1.249595    18A     -1.161430
      19A     -1.083611    20A     -1.050801    21A     -1.037298
      22A     -1.023184    23A     -0.943168    24A     -0.918814
      25A     -0.867438    26A     -0.844116    27A     -0.815299
      28A     -0.791002    29A     -0.742691    30A     -0.712369
      31A     -0.666772    32A     -0.652899    33A     -0.648342
      34A     -0.627852    35A     -0.620435    36A     -0.615289
      37A     -0.596366    38A     -0.588072    39A     -0.575657
      40A     -0.571802    41A     -0.560254    42A     -0.547468
      43A     -0.541610    44A     -0.524811    45A     -0.508060
      46A     -0.502027    47A     -0.491511    48A     -0.489357
      49A     -0.478530    50A     -0.469627    51A     -0.461557
      52A     -0.416936    53A     -0.366231    54A     -0.339995
      55A     -0.329999

  @DF-RHF Final Energy:  -631.73068674711692

   => Energetics <=

    Nuclear Repulsion Energy =            999.9714417999848592
    One-Electron Energy =               -2843.1400792627682677
    Two-Electron Energy =                1211.4379507156663749
    Total Energy =                       -631.7306867471170335
  Basis Set: (AUG-CC-PVTZ AUX)
    Blend: AUG-CC-PVTZ-RI
    Molecular point group: c1

    Geometry (in Angstrom), charge = 0, multiplicity = 1:

       Center              X                  Y                   Z               Mass
    ------------   -----------------  -----------------  -----------------  -----------------
         O            0.056629074704     1.936951066790    -1.183769236580    15.994914619570
         N            1.256194074704     0.449328066790     0.084778763420    14.003074004430
         C            3.727302074704    -0.964519933210     0.432379763420    12.000000000000
         C            3.579921074704     0.155753066790    -0.597942236580    12.000000000000
         C            2.379255074704    -1.631576933210     0.708975763420    12.000000000000
         C            2.509901074704     1.154156066790    -0.166003236580    12.000000000000
         C            1.337174074704    -0.589557933210     1.105662763420    12.000000000000
         C            0.098426074704     0.915296066790    -0.484650236580    12.000000000000
         C           -1.135124925296     0.088515066790    -0.269492236580    12.000000000000
         C           -2.236694925296     0.642110066790     0.408609763420    12.000000000000
         C           -1.216578925296    -1.185205933210    -0.845447236580    12.000000000000
         C           -3.399718925296    -0.128907933210     0.513065763420    12.000000000000
         C           -2.160882925296     2.023315066790     1.006077763420    12.000000000000
         C           -2.390949925296    -1.931736933210    -0.742419236580    12.000000000000
         C           -3.484761925296    -1.401037933210    -0.057786236580    12.000000000000
         H            4.458796074704    -1.706362933210     0.092280763420     1.007825032230
         H            4.116704074704    -0.542827933210     1.369370763420     1.007825032230
         H            4.533524074704     0.678426066790    -0.740205236580     1.007825032230
         H            3.291463074704    -0.266480933210    -1.568256236580     1.007825032230
         H            2.028896074704    -2.153348933210    -0.190127236580     1.007825032230
         H            2.472446074704    -2.378732933210     1.506607763420     1.007825032230
         H            2.822575074704     1.671247066790     0.754283763420     1.007825032230
         H            2.312889074704     1.908519066790    -0.928923236580     1.007825032230
         H            0.352654074704    -1.037878933210     1.242173763420     1.007825032230
         H            1.629115074704    -0.122059933210     2.059764763420     1.007825032230
         H           -0.357475925296    -1.583581933210    -1.382918236580     1.007825032230
         H           -4.258667925296     0.279354066790     1.043203763420     1.007825032230
         H           -1.979629925296     2.767998066790     0.227297763420     1.007825032230
         H           -3.091159925296     2.269096066790     1.525338763420     1.007825032230
         H           -1.338775925296     2.100123066790     1.725827763420     1.007825032230
         H           -2.452010925296    -2.917705933210    -1.196953236580     1.007825032230
         H           -4.404224925296    -1.974800933210     0.032392763420     1.007825032230

  Basis Set: AUG-CC-PVTZ
    Blend: AUG-CC-PVTZ
  Basis Set: (AUG-CC-PVTZ AUX)
    Blend: AUG-CC-PVTZ-JKFIT
	 Reference Energy          =    -631.7306867471169198 [Eh]
	 Singles Energy            =      -0.0000000000000000 [Eh]
	 Same-Spin Energy          =      -0.6890176978649849 [Eh]
	 Opposite-Spin Energy      =      -2.2122646250264033 [Eh]
	 Correlation Energy        =      -2.9012823228913884 [Eh]
	 Total Energy              =    -634.6319690700082674 [Eh]

	 ================> DF-SCS-MP2 Energies <==================
	-----------------------------------------------------------
	 SCS Same-Spin Scale       =       0.3333333333333333 [-]
	 SCS Opposite-Spin Scale   =       1.2000000000000000 [-]
	 SCS Same-Spin Energy      =      -0.2296725659549950 [Eh]
	 SCS Opposite-Spin Energy  =      -2.6547175500316840 [Eh]
	 SCS Correlation Energy    =      -2.8843901159866787 [Eh]
	 SCS Total Energy          =    -634.6150768631035817 [Eh]
	-----------------------------------------------------------

  Dipole Moment: [D]
     X:     1.4047      Y:    -2.5198      Z:     2.3041     Total:     3.6920

*** Psi4 exiting successfully. Buy a developer a beer!
