                               Psi4 1.3.2 release

  ==> Input File <==

--------------------------------------------------------------------------
#psi4
#
memory 32 gb

molecule  {
0 1
  O        0.0109280     1.9504830    -1.2088660
  N        1.2104930     0.4628600     0.0596820
  C        3.6816010    -0.9509880     0.4072830
  C        3.5342200     0.1692850    -0.6230390
  C        2.3335540    -1.6180450     0.6838790
  C        2.4642000     1.1676880    -0.1911000
  C        1.2914730    -0.5760260     1.0805660
  C        0.0527250     0.9288280    -0.5097470
  C       -1.1707113     0.0752535    -0.3355744
  C       -2.2823960     0.6556420     0.3835130
  C       -1.2622800    -1.1716740    -0.8705440
  C       -3.4454200    -0.1153760     0.4879690
  C       -2.2065840     2.0368470     0.9809810
  C       -2.4366510    -1.9182050    -0.7675160
  C       -3.5304630    -1.3875060    -0.0828830
  H        4.4130950    -1.6928310     0.0671840
  H        4.0710030    -0.5292960     1.3442740
  H        4.4878230     0.6919580    -0.7653020
  H        3.2457620    -0.2529490    -1.5933530
  H        1.9831950    -2.1398170    -0.2152240
  H        2.4267450    -2.3652010     1.4815110
  H        2.7768740     1.6847790     0.7291870
  H        2.2671880     1.9220510    -0.9540200
  H        0.3069530    -1.0243470     1.2170770
  H        1.5834140    -0.1085280     2.0346680
  H       -0.4031770    -1.5700500    -1.4080150
  H       -4.3043690     0.2928860     1.0181070
  H       -2.0253310     2.7815300     0.2022010
  H       -3.1368610     2.2826280     1.5002420
  H       -1.3844770     2.1136550     1.7007310
  H       -2.4977120    -2.9041740    -1.2220500
  H       -4.4499260    -1.9612690     0.0072960
units angstrom
no_reorient  #important for SAPT in psi4, default
symmetry c1  #important for SAPT in psi4, default
}

set PROPERTIES_ORIGIN ["COM"]
properties('MP2/aug-cc-pvtz', properties = ['dipole'])
--------------------------------------------------------------------------

    Molecular point group: c1
  Charge       = 0
  Multiplicity = 1
  Basis Set: AUG-CC-PVTZ
    Blend: AUG-CC-PVTZ
  Basis Set: (AUG-CC-PVTZ AUX)
    Blend: AUG-CC-PVTZ-JKFIT

    Orbital Energies [Eh]
    ---------------------

    Doubly Occupied:

       1A    -20.511097     2A    -15.584054     3A    -11.349605
       4A    -11.267246     5A    -11.255732     6A    -11.254705
       7A    -11.245335     8A    -11.242371     9A    -11.241154
      10A    -11.238438    11A    -11.236169    12A    -11.230727
      13A    -11.228416    14A    -11.225832    15A    -11.221387
      16A     -1.367193    17A     -1.249746    18A     -1.161294
      19A     -1.083706    20A     -1.048031    21A     -1.039804
      22A     -1.025355    23A     -0.943281    24A     -0.918919
      25A     -0.867416    26A     -0.842745    27A     -0.812757
      28A     -0.792955    29A     -0.743209    30A     -0.713254
      31A     -0.666505    32A     -0.650713    33A     -0.649133
      34A     -0.627987    35A     -0.621465    36A     -0.614959
      37A     -0.597452    38A     -0.587962    39A     -0.575179
      40A     -0.571570    41A     -0.559843    42A     -0.547736
      43A     -0.543362    44A     -0.524829    45A     -0.507398
      46A     -0.502680    47A     -0.491622    48A     -0.487399
      49A     -0.478820    50A     -0.469836    51A     -0.461665
      52A     -0.416866    53A     -0.366485    54A     -0.345479
      55A     -0.324919

  @DF-RHF Final Energy:  -631.72847317678293

   => Energetics <=

    Nuclear Repulsion Energy =            999.8943101552927146
    One-Electron Energy =               -2842.9779771534258543
    Two-Electron Energy =                1211.3551938213502126
    Total Energy =                       -631.7284731767829271
  Basis Set: (AUG-CC-PVTZ AUX)
    Blend: AUG-CC-PVTZ-RI
    Molecular point group: c1

    Geometry (in Angstrom), charge = 0, multiplicity = 1:

       Center              X                  Y                   Z               Mass
    ------------   -----------------  -----------------  -----------------  -----------------
         O            0.056031547042     1.938533897464    -1.181348016945    15.994914619570
         N            1.255596547042     0.450910897464     0.087199983055    14.003074004430
         C            3.726704547042    -0.962937102536     0.434800983055    12.000000000000
         C            3.579323547042     0.157335897464    -0.595521016945    12.000000000000
         C            2.378657547042    -1.629994102536     0.711396983055    12.000000000000
         C            2.509303547042     1.155738897464    -0.163582016945    12.000000000000
         C            1.336576547042    -0.587975102536     1.108083983055    12.000000000000
         C            0.097828547042     0.916878897464    -0.482229016945    12.000000000000
         C           -1.125607752958     0.063304397464    -0.308056416945    12.000000000000
         C           -2.237292452958     0.643692897464     0.411030983055    12.000000000000
         C           -1.217176452958    -1.183623102536    -0.843026016945    12.000000000000
         C           -3.400316452958    -0.127325102536     0.515486983055    12.000000000000
         C           -2.161480452958     2.024897897464     1.008498983055    12.000000000000
         C           -2.391547452958    -1.930154102536    -0.739998016945    12.000000000000
         C           -3.485359452958    -1.399455102536    -0.055365016945    12.000000000000
         H            4.458198547042    -1.704780102536     0.094701983055     1.007825032230
         H            4.116106547042    -0.541245102536     1.371791983055     1.007825032230
         H            4.532926547042     0.680008897464    -0.737784016945     1.007825032230
         H            3.290865547042    -0.264898102536    -1.565835016945     1.007825032230
         H            2.028298547042    -2.151766102536    -0.187706016945     1.007825032230
         H            2.471848547042    -2.377150102536     1.509028983055     1.007825032230
         H            2.821977547042     1.672829897464     0.756704983055     1.007825032230
         H            2.312291547042     1.910101897464    -0.926502016945     1.007825032230
         H            0.352056547042    -1.036296102536     1.244594983055     1.007825032230
         H            1.628517547042    -0.120477102536     2.062185983055     1.007825032230
         H           -0.358073452958    -1.581999102536    -1.380497016945     1.007825032230
         H           -4.259265452958     0.280936897464     1.045624983055     1.007825032230
         H           -1.980227452958     2.769580897464     0.229718983055     1.007825032230
         H           -3.091757452958     2.270678897464     1.527759983055     1.007825032230
         H           -1.339373452958     2.101705897464     1.728248983055     1.007825032230
         H           -2.452608452958    -2.916123102536    -1.194532016945     1.007825032230
         H           -4.404822452958    -1.973218102536     0.034813983055     1.007825032230

  Basis Set: AUG-CC-PVTZ
    Blend: AUG-CC-PVTZ
  Basis Set: (AUG-CC-PVTZ AUX)
    Blend: AUG-CC-PVTZ-JKFIT
	 Reference Energy          =    -631.7284731767829271 [Eh]
	 Singles Energy            =      -0.0000000000000000 [Eh]
	 Same-Spin Energy          =      -0.6888498739870583 [Eh]
	 Opposite-Spin Energy      =      -2.2121771923495990 [Eh]
	 Correlation Energy        =      -2.9010270663366571 [Eh]
	 Total Energy              =    -634.6295002431195371 [Eh]

	 ================> DF-SCS-MP2 Energies <==================
	-----------------------------------------------------------
	 SCS Same-Spin Scale       =       0.3333333333333333 [-]
	 SCS Opposite-Spin Scale   =       1.2000000000000000 [-]
	 SCS Same-Spin Energy      =      -0.2296166246623528 [Eh]
	 SCS Opposite-Spin Energy  =      -2.6546126308195186 [Eh]
	 SCS Correlation Energy    =      -2.8842292554818716 [Eh]
	 SCS Total Energy          =    -634.6127024322647685 [Eh]
	-----------------------------------------------------------

  Dipole Moment: [D]
     X:     1.4204      Y:    -2.4984      Z:     2.3076     Total:     3.6858

*** Psi4 exiting successfully. Buy a developer a beer!
