                               Psi4 1.3.2 release

  ==> Input File <==

--------------------------------------------------------------------------
#psi4
#
memory 32 gb

molecule  {
0 1
  O        0.0109280     1.9504830    -1.2088660
  N        1.2104930     0.4628600     0.0596820
  C        3.6816010    -0.9509880     0.4072830
  C        3.5342200     0.1692850    -0.6230390
  C        2.3335540    -1.6180450     0.6838790
  C        2.4642000     1.1676880    -0.1911000
  C        1.2914730    -0.5760260     1.0805660
  C        0.0527250     0.9288280    -0.5097470
  C       -1.1504820     0.0216664    -0.4175451
  C       -2.2823960     0.6556420     0.3835130
  C       -1.2622800    -1.1716740    -0.8705440
  C       -3.4454200    -0.1153760     0.4879690
  C       -2.2065840     2.0368470     0.9809810
  C       -2.4366510    -1.9182050    -0.7675160
  C       -3.5304630    -1.3875060    -0.0828830
  H        4.4130950    -1.6928310     0.0671840
  H        4.0710030    -0.5292960     1.3442740
  H        4.4878230     0.6919580    -0.7653020
  H        3.2457620    -0.2529490    -1.5933530
  H        1.9831950    -2.1398170    -0.2152240
  H        2.4267450    -2.3652010     1.4815110
  H        2.7768740     1.6847790     0.7291870
  H        2.2671880     1.9220510    -0.9540200
  H        0.3069530    -1.0243470     1.2170770
  H        1.5834140    -0.1085280     2.0346680
  H       -0.4031770    -1.5700500    -1.4080150
  H       -4.3043690     0.2928860     1.0181070
  H       -2.0253310     2.7815300     0.2022010
  H       -3.1368610     2.2826280     1.5002420
  H       -1.3844770     2.1136550     1.7007310
  H       -2.4977120    -2.9041740    -1.2220500
  H       -4.4499260    -1.9612690     0.0072960
units angstrom
no_reorient  #important for SAPT in psi4, default
symmetry c1  #important for SAPT in psi4, default
}

set PROPERTIES_ORIGIN ["COM"]
properties('MP2/aug-cc-pvtz', properties = ['dipole'])
--------------------------------------------------------------------------

    Molecular point group: c1
  Charge       = 0
  Multiplicity = 1
  Basis Set: AUG-CC-PVTZ
    Blend: AUG-CC-PVTZ
  Basis Set: (AUG-CC-PVTZ AUX)
    Blend: AUG-CC-PVTZ-JKFIT

    Orbital Energies [Eh]
    ---------------------

    Doubly Occupied:

       1A    -20.512015     2A    -15.584479     3A    -11.350760
       4A    -11.267802     5A    -11.261851     6A    -11.255001
       7A    -11.243565     8A    -11.241963     9A    -11.237354
      10A    -11.234406    11A    -11.231000    12A    -11.230235
      13A    -11.228689    14A    -11.226227    15A    -11.223162
      16A     -1.367692    17A     -1.250188    18A     -1.163018
      19A     -1.083977    20A     -1.049935    21A     -1.040510
      22A     -1.027565    23A     -0.943007    24A     -0.919545
      25A     -0.867436    26A     -0.840037    27A     -0.808572
      28A     -0.796073    29A     -0.743859    30A     -0.714849
      31A     -0.667836    32A     -0.650727    33A     -0.645170
      34A     -0.628620    35A     -0.622895    36A     -0.614411
      37A     -0.599234    38A     -0.587918    39A     -0.574214
      40A     -0.571138    41A     -0.558963    42A     -0.548287
      43A     -0.546447    44A     -0.524798    45A     -0.508177
      46A     -0.503347    47A     -0.494610    48A     -0.481111
      49A     -0.475070    50A     -0.470198    51A     -0.461975
      52A     -0.414738    53A     -0.367337    54A     -0.357537
      55A     -0.316280

  @DF-RHF Final Energy:  -631.70820057253059

   => Energetics <=

    Nuclear Repulsion Energy =            999.7528924500012408
    One-Electron Energy =               -2842.6505650373183016
    Two-Electron Energy =                1211.1894720147865883
    Total Energy =                       -631.7082005725305862
  Basis Set: (AUG-CC-PVTZ AUX)
    Blend: AUG-CC-PVTZ-RI
    Molecular point group: c1

    Geometry (in Angstrom), charge = 0, multiplicity = 1:

       Center              X                  Y                   Z               Mass
    ------------   -----------------  -----------------  -----------------  -----------------
         O            0.054836497625     1.941699564718    -1.176505583583    15.994914619570
         N            1.254401497625     0.454076564718     0.092042416417    14.003074004430
         C            3.725509497625    -0.959771435282     0.439643416417    12.000000000000
         C            3.578128497625     0.160501564718    -0.590678583583    12.000000000000
         C            2.377462497625    -1.626828435282     0.716239416417    12.000000000000
         C            2.508108497625     1.158904564718    -0.158739583583    12.000000000000
         C            1.335381497625    -0.584809435282     1.112926416417    12.000000000000
         C            0.096633497625     0.920044564718    -0.477386583583    12.000000000000
         C           -1.106573502375     0.012882964718    -0.385184683583    12.000000000000
         C           -2.238487502375     0.646858564718     0.415873416417    12.000000000000
         C           -1.218371502375    -1.180457435282    -0.838183583583    12.000000000000
         C           -3.401511502375    -0.124159435282     0.520329416417    12.000000000000
         C           -2.162675502375     2.028063564718     1.013341416417    12.000000000000
         C           -2.392742502375    -1.926988435282    -0.735155583583    12.000000000000
         C           -3.486554502375    -1.396289435282    -0.050522583583    12.000000000000
         H            4.457003497625    -1.701614435282     0.099544416417     1.007825032230
         H            4.114911497625    -0.538079435282     1.376634416417     1.007825032230
         H            4.531731497625     0.683174564718    -0.732941583583     1.007825032230
         H            3.289670497625    -0.261732435282    -1.560992583583     1.007825032230
         H            2.027103497625    -2.148600435282    -0.182863583583     1.007825032230
         H            2.470653497625    -2.373984435282     1.513871416417     1.007825032230
         H            2.820782497625     1.675995564718     0.761547416417     1.007825032230
         H            2.311096497625     1.913267564718    -0.921659583583     1.007825032230
         H            0.350861497625    -1.033130435282     1.249437416417     1.007825032230
         H            1.627322497625    -0.117311435282     2.067028416417     1.007825032230
         H           -0.359268502375    -1.578833435282    -1.375654583583     1.007825032230
         H           -4.260460502375     0.284102564718     1.050467416417     1.007825032230
         H           -1.981422502375     2.772746564718     0.234561416417     1.007825032230
         H           -3.092952502375     2.273844564718     1.532602416417     1.007825032230
         H           -1.340568502375     2.104871564718     1.733091416417     1.007825032230
         H           -2.453803502375    -2.912957435282    -1.189689583583     1.007825032230
         H           -4.406017502375    -1.970052435282     0.039656416417     1.007825032230

  Basis Set: AUG-CC-PVTZ
    Blend: AUG-CC-PVTZ
  Basis Set: (AUG-CC-PVTZ AUX)
    Blend: AUG-CC-PVTZ-JKFIT
	 Reference Energy          =    -631.7082005725305862 [Eh]
	 Singles Energy            =      -0.0000000000000000 [Eh]
	 Same-Spin Energy          =      -0.6881737525474698 [Eh]
	 Opposite-Spin Energy      =      -2.2125139177088244 [Eh]
	 Correlation Energy        =      -2.9006876702562945 [Eh]
	 Total Energy              =    -634.6088882427868612 [Eh]

	 ================> DF-SCS-MP2 Energies <==================
	-----------------------------------------------------------
	 SCS Same-Spin Scale       =       0.3333333333333333 [-]
	 SCS Opposite-Spin Scale   =       1.2000000000000000 [-]
	 SCS Same-Spin Energy      =      -0.2293912508491566 [Eh]
	 SCS Opposite-Spin Energy  =      -2.6550167012505894 [Eh]
	 SCS Correlation Energy    =      -2.8844079520997461 [Eh]
	 SCS Total Energy          =    -634.5926085246303501 [Eh]
	-----------------------------------------------------------

  Dipole Moment: [D]
     X:     1.4612      Y:    -2.4604      Z:     2.3079     Total:     3.6763

*** Psi4 exiting successfully. Buy a developer a beer!
