                               Psi4 1.3.2 release

  ==> Input File <==

--------------------------------------------------------------------------
#psi4
#
memory 32 gb

molecule  {
0 1
  O        0.0109280     1.9504830    -1.2088660
  N        1.2104930     0.4628600     0.0596820
  C        3.6816010    -0.9509880     0.4072830
  C        3.5342200     0.1692850    -0.6230390
  C        2.3335540    -1.6180450     0.6838790
  C        2.4642000     1.1676880    -0.1911000
  C        1.2914730    -0.5760260     1.0805660
  C        0.0527250     0.9288280    -0.5097470
  C       -1.1403674    -0.0051272    -0.4585304
  C       -2.2823960     0.6556420     0.3835130
  C       -1.2622800    -1.1716740    -0.8705440
  C       -3.4454200    -0.1153760     0.4879690
  C       -2.2065840     2.0368470     0.9809810
  C       -2.4366510    -1.9182050    -0.7675160
  C       -3.5304630    -1.3875060    -0.0828830
  H        4.4130950    -1.6928310     0.0671840
  H        4.0710030    -0.5292960     1.3442740
  H        4.4878230     0.6919580    -0.7653020
  H        3.2457620    -0.2529490    -1.5933530
  H        1.9831950    -2.1398170    -0.2152240
  H        2.4267450    -2.3652010     1.4815110
  H        2.7768740     1.6847790     0.7291870
  H        2.2671880     1.9220510    -0.9540200
  H        0.3069530    -1.0243470     1.2170770
  H        1.5834140    -0.1085280     2.0346680
  H       -0.4031770    -1.5700500    -1.4080150
  H       -4.3043690     0.2928860     1.0181070
  H       -2.0253310     2.7815300     0.2022010
  H       -3.1368610     2.2826280     1.5002420
  H       -1.3844770     2.1136550     1.7007310
  H       -2.4977120    -2.9041740    -1.2220500
  H       -4.4499260    -1.9612690     0.0072960
units angstrom
no_reorient  #important for SAPT in psi4, default
symmetry c1  #important for SAPT in psi4, default
}

set PROPERTIES_ORIGIN ["COM"]
properties('MP2/aug-cc-pvtz', properties = ['dipole'])
--------------------------------------------------------------------------

    Molecular point group: c1
  Charge       = 0
  Multiplicity = 1
  Basis Set: AUG-CC-PVTZ
    Blend: AUG-CC-PVTZ
  Basis Set: (AUG-CC-PVTZ AUX)
    Blend: AUG-CC-PVTZ-JKFIT

    Orbital Energies [Eh]
    ---------------------

    Doubly Occupied:

       1A    -20.512606     2A    -15.584761     3A    -11.351769
       4A    -11.268180     5A    -11.263995     6A    -11.255231
       7A    -11.242183     8A    -11.241855     9A    -11.236715
      10A    -11.233456    11A    -11.231185    12A    -11.228872
      13A    -11.226474    14A    -11.224484    15A    -11.223824
      16A     -1.367994    17A     -1.250482    18A     -1.164979
      19A     -1.084160    20A     -1.054282    21A     -1.038547
      22A     -1.027936    23A     -0.942621    24A     -0.920025
      25A     -0.867486    26A     -0.838642    27A     -0.807845
      28A     -0.796273    29A     -0.743957    30A     -0.715542
      31A     -0.668991    32A     -0.651436    33A     -0.642427
      34A     -0.629159    35A     -0.623253    36A     -0.614209
      37A     -0.600013    38A     -0.587997    39A     -0.573794
      40A     -0.570904    41A     -0.558606    42A     -0.548497
      43A     -0.547633    44A     -0.524808    45A     -0.508783
      46A     -0.503494    47A     -0.496615    48A     -0.481019
      49A     -0.470924    50A     -0.468531    51A     -0.462157
      52A     -0.412287    53A     -0.368525    54A     -0.363286
      55A     -0.312664

  @DF-RHF Final Energy:  -631.68949307882701

   => Energetics <=

    Nuclear Repulsion Energy =            999.6891393065415059
    One-Electron Energy =               -2842.4845232774327997
    Two-Electron Energy =                1211.1058908920642807
    Total Energy =                       -631.6894930788268994
  Basis Set: (AUG-CC-PVTZ AUX)
    Blend: AUG-CC-PVTZ-RI
    Molecular point group: c1

    Geometry (in Angstrom), charge = 0, multiplicity = 1:

       Center              X                  Y                   Z               Mass
    ------------   -----------------  -----------------  -----------------  -----------------
         O            0.054238975870     1.943282401300    -1.174084369855    15.994914619570
         N            1.253803975870     0.455659401300     0.094463630145    14.003074004430
         C            3.724911975870    -0.958188598700     0.442064630145    12.000000000000
         C            3.577530975870     0.162084401300    -0.588257369855    12.000000000000
         C            2.376864975870    -1.625245598700     0.718660630145    12.000000000000
         C            2.507510975870     1.160487401300    -0.156318369855    12.000000000000
         C            1.334783975870    -0.583226598700     1.115347630145    12.000000000000
         C            0.096035975870     0.921627401300    -0.474965369855    12.000000000000
         C           -1.097056424130    -0.012327798700    -0.423748769855    12.000000000000
         C           -2.239085024130     0.648441401300     0.418294630145    12.000000000000
         C           -1.218969024130    -1.178874598700    -0.835762369855    12.000000000000
         C           -3.402109024130    -0.122576598700     0.522750630145    12.000000000000
         C           -2.163273024130     2.029646401300     1.015762630145    12.000000000000
         C           -2.393340024130    -1.925405598700    -0.732734369855    12.000000000000
         C           -3.487152024130    -1.394706598700    -0.048101369855    12.000000000000
         H            4.456405975870    -1.700031598700     0.101965630145     1.007825032230
         H            4.114313975870    -0.536496598700     1.379055630145     1.007825032230
         H            4.531133975870     0.684757401300    -0.730520369855     1.007825032230
         H            3.289072975870    -0.260149598700    -1.558571369855     1.007825032230
         H            2.026505975870    -2.147017598700    -0.180442369855     1.007825032230
         H            2.470055975870    -2.372401598700     1.516292630145     1.007825032230
         H            2.820184975870     1.677578401300     0.763968630145     1.007825032230
         H            2.310498975870     1.914850401300    -0.919238369855     1.007825032230
         H            0.350263975870    -1.031547598700     1.251858630145     1.007825032230
         H            1.626724975870    -0.115728598700     2.069449630145     1.007825032230
         H           -0.359866024130    -1.577250598700    -1.373233369855     1.007825032230
         H           -4.261058024130     0.285685401300     1.052888630145     1.007825032230
         H           -1.982020024130     2.774329401300     0.236982630145     1.007825032230
         H           -3.093550024130     2.275427401300     1.535023630145     1.007825032230
         H           -1.341166024130     2.106454401300     1.735512630145     1.007825032230
         H           -2.454401024130    -2.911374598700    -1.187268369855     1.007825032230
         H           -4.406615024130    -1.968469598700     0.042077630145     1.007825032230

  Basis Set: AUG-CC-PVTZ
    Blend: AUG-CC-PVTZ
  Basis Set: (AUG-CC-PVTZ AUX)
    Blend: AUG-CC-PVTZ-JKFIT
	 Reference Energy          =    -631.6894930788270131 [Eh]
	 Singles Energy            =      -0.0000000000000000 [Eh]
	 Same-Spin Energy          =      -0.6877845762993575 [Eh]
	 Opposite-Spin Energy      =      -2.2129518659091070 [Eh]
	 Correlation Energy        =      -2.9007364422084647 [Eh]
	 Total Energy              =    -634.5902295210354396 [Eh]

	 ================> DF-SCS-MP2 Energies <==================
	-----------------------------------------------------------
	 SCS Same-Spin Scale       =       0.3333333333333333 [-]
	 SCS Opposite-Spin Scale   =       1.2000000000000000 [-]
	 SCS Same-Spin Energy      =      -0.2292615254331192 [Eh]
	 SCS Opposite-Spin Energy  =      -2.6555422390909285 [Eh]
	 SCS Correlation Energy    =      -2.8848037645240474 [Eh]
	 SCS Total Energy          =    -634.5742968433510214 [Eh]
	-----------------------------------------------------------

  Dipole Moment: [D]
     X:     1.4881      Y:    -2.4451      Z:     2.3032     Total:     3.6740

*** Psi4 exiting successfully. Buy a developer a beer!
