                               Psi4 1.3.2 release

  ==> Input File <==

--------------------------------------------------------------------------
#psi4
#
memory 32 gb

molecule  {
0 1
  O        0.0109280     1.9504830    -1.2088660
  N        1.2104930     0.4628600     0.0596820
  C        3.6816010    -0.9509880     0.4072830
  C        3.5342200     0.1692850    -0.6230390
  C        2.3335540    -1.6180450     0.6838790
  C        2.4642000     1.1676880    -0.1911000
  C        1.2914730    -0.5760260     1.0805660
  C        0.0527250     0.9288280    -0.5097470
  C       -1.1302527    -0.0319207    -0.4995158
  C       -2.2823960     0.6556420     0.3835130
  C       -1.2622800    -1.1716740    -0.8705440
  C       -3.4454200    -0.1153760     0.4879690
  C       -2.2065840     2.0368470     0.9809810
  C       -2.4366510    -1.9182050    -0.7675160
  C       -3.5304630    -1.3875060    -0.0828830
  H        4.4130950    -1.6928310     0.0671840
  H        4.0710030    -0.5292960     1.3442740
  H        4.4878230     0.6919580    -0.7653020
  H        3.2457620    -0.2529490    -1.5933530
  H        1.9831950    -2.1398170    -0.2152240
  H        2.4267450    -2.3652010     1.4815110
  H        2.7768740     1.6847790     0.7291870
  H        2.2671880     1.9220510    -0.9540200
  H        0.3069530    -1.0243470     1.2170770
  H        1.5834140    -0.1085280     2.0346680
  H       -0.4031770    -1.5700500    -1.4080150
  H       -4.3043690     0.2928860     1.0181070
  H       -2.0253310     2.7815300     0.2022010
  H       -3.1368610     2.2826280     1.5002420
  H       -1.3844770     2.1136550     1.7007310
  H       -2.4977120    -2.9041740    -1.2220500
  H       -4.4499260    -1.9612690     0.0072960
units angstrom
no_reorient  #important for SAPT in psi4, default
symmetry c1  #important for SAPT in psi4, default
}

set PROPERTIES_ORIGIN ["COM"]
properties('MP2/aug-cc-pvtz', properties = ['dipole'])
--------------------------------------------------------------------------

    Molecular point group: c1
  Charge       = 0
  Multiplicity = 1
  Basis Set: AUG-CC-PVTZ
    Blend: AUG-CC-PVTZ
  Basis Set: (AUG-CC-PVTZ AUX)
    Blend: AUG-CC-PVTZ-JKFIT

    Orbital Energies [Eh]
    ---------------------

    Doubly Occupied:

       1A    -20.513278     2A    -15.585099     3A    -11.353072
       4A    -11.268621     5A    -11.265491     6A    -11.255521
       7A    -11.241813     8A    -11.240633     9A    -11.236108
      10A    -11.232445    11A    -11.231407    12A    -11.229089
      13A    -11.226757    14A    -11.224299    15A    -11.218662
      16A     -1.368332    17A     -1.250830    18A     -1.167740
      19A     -1.084383    20A     -1.058890    21A     -1.036795
      22A     -1.027903    23A     -0.942083    24A     -0.920579
      25A     -0.867568    26A     -0.837204    27A     -0.808355
      28A     -0.795148    29A     -0.743919    30A     -0.716172
      31A     -0.670290    32A     -0.652122    33A     -0.639883
      34A     -0.629824    35A     -0.623409    36A     -0.614064
      37A     -0.600779    38A     -0.588155    39A     -0.573443
      40A     -0.570642    41A     -0.558440    42A     -0.548884
      43A     -0.548220    44A     -0.524917    45A     -0.509248
      46A     -0.503658    47A     -0.498988    48A     -0.481290
      49A     -0.470966    50A     -0.463060    51A     -0.461687
      52A     -0.408486    53A     -0.372561    54A     -0.366299
      55A     -0.309444

  @DF-RHF Final Energy:  -631.66450576982800

   => Energetics <=

    Nuclear Repulsion Energy =            999.6301192196729062
    One-Electron Energy =               -2842.3153338543174868
    Two-Electron Energy =                1211.0207088648166973
    Total Energy =                       -631.6645057698278833
  Basis Set: (AUG-CC-PVTZ AUX)
    Blend: AUG-CC-PVTZ-RI
    Molecular point group: c1

    Geometry (in Angstrom), charge = 0, multiplicity = 1:

       Center              X                  Y                   Z               Mass
    ------------   -----------------  -----------------  -----------------  -----------------
         O            0.053641448208     1.944865231973    -1.171663150220    15.994914619570
         N            1.253206448208     0.457242231973     0.096884849780    14.003074004430
         C            3.724314448208    -0.956605768027     0.444485849780    12.000000000000
         C            3.576933448208     0.163667231973    -0.585836150220    12.000000000000
         C            2.376267448208    -1.623662768027     0.721081849780    12.000000000000
         C            2.506913448208     1.162070231973    -0.153897150220    12.000000000000
         C            1.334186448208    -0.581643768027     1.117768849780    12.000000000000
         C            0.095438448208     0.923210231973    -0.472544150220    12.000000000000
         C           -1.087539251792    -0.037538468027    -0.462312950220    12.000000000000
         C           -2.239682551792     0.650024231973     0.420715849780    12.000000000000
         C           -1.219566551792    -1.177291768027    -0.833341150220    12.000000000000
         C           -3.402706551792    -0.120993768027     0.525171849780    12.000000000000
         C           -2.163870551792     2.031229231973     1.018183849780    12.000000000000
         C           -2.393937551792    -1.923822768027    -0.730313150220    12.000000000000
         C           -3.487749551792    -1.393123768027    -0.045680150220    12.000000000000
         H            4.455808448208    -1.698448768027     0.104386849780     1.007825032230
         H            4.113716448208    -0.534913768027     1.381476849780     1.007825032230
         H            4.530536448208     0.686340231973    -0.728099150220     1.007825032230
         H            3.288475448208    -0.258566768027    -1.556150150220     1.007825032230
         H            2.025908448208    -2.145434768027    -0.178021150220     1.007825032230
         H            2.469458448208    -2.370818768027     1.518713849780     1.007825032230
         H            2.819587448208     1.679161231973     0.766389849780     1.007825032230
         H            2.309901448208     1.916433231973    -0.916817150220     1.007825032230
         H            0.349666448208    -1.029964768027     1.254279849780     1.007825032230
         H            1.626127448208    -0.114145768027     2.071870849780     1.007825032230
         H           -0.360463551792    -1.575667768027    -1.370812150220     1.007825032230
         H           -4.261655551792     0.287268231973     1.055309849780     1.007825032230
         H           -1.982617551792     2.775912231973     0.239403849780     1.007825032230
         H           -3.094147551792     2.277010231973     1.537444849780     1.007825032230
         H           -1.341763551792     2.108037231973     1.737933849780     1.007825032230
         H           -2.454998551792    -2.909791768027    -1.184847150220     1.007825032230
         H           -4.407212551792    -1.966886768027     0.044498849780     1.007825032230

  Basis Set: AUG-CC-PVTZ
    Blend: AUG-CC-PVTZ
  Basis Set: (AUG-CC-PVTZ AUX)
    Blend: AUG-CC-PVTZ-JKFIT
	 Reference Energy          =    -631.6645057698279970 [Eh]
	 Singles Energy            =      -0.0000000000000000 [Eh]
	 Same-Spin Energy          =      -0.6874545638167500 [Eh]
	 Opposite-Spin Energy      =      -2.2135854211136645 [Eh]
	 Correlation Energy        =      -2.9010399849304145 [Eh]
	 Total Energy              =    -634.5655457547584319 [Eh]

	 ================> DF-SCS-MP2 Energies <==================
	-----------------------------------------------------------
	 SCS Same-Spin Scale       =       0.3333333333333333 [-]
	 SCS Opposite-Spin Scale   =       1.2000000000000000 [-]
	 SCS Same-Spin Energy      =      -0.2291515212722500 [Eh]
	 SCS Opposite-Spin Energy  =      -2.6563025053363973 [Eh]
	 SCS Correlation Energy    =      -2.8854540266086475 [Eh]
	 SCS Total Energy          =    -634.5499597964366103 [Eh]
	-----------------------------------------------------------

  Dipole Moment: [D]
     X:     1.5206      Y:    -2.4334      Z:     2.2941     Total:     3.6738

*** Psi4 exiting successfully. Buy a developer a beer!
