                               Psi4 1.3.2 release

  ==> Input File <==

--------------------------------------------------------------------------
#psi4
#
memory 32 gb

molecule  {
0 1
  S        1.1915130     0.0000000    -0.0000490
  C       -1.2740110     0.7100150     0.0000760
  C       -1.2740120    -0.7100150     0.0000280
  C       -0.0019280     1.2352840     0.0000210
  C       -0.0019290    -1.2352840    -0.0000200
  H       -2.1689880     1.3232550     0.0001320
  H       -2.1689890    -1.3232540     0.0000440
  H        0.2925071     2.2768165    -0.2999730
  H        0.2925210    -2.2768120    -0.0000490
units angstrom
no_reorient  #important for SAPT in psi4, default
symmetry c1  #important for SAPT in psi4, default
}

set PROPERTIES_ORIGIN ["COM"]
properties('MP2/aug-cc-pvtz', properties = ['dipole'])
--------------------------------------------------------------------------

    Molecular point group: c1
  Charge       = 0
  Multiplicity = 1
  Basis Set: AUG-CC-PVTZ
    Blend: AUG-CC-PVTZ
  Basis Set: (AUG-CC-PVTZ AUX)
    Blend: AUG-CC-PVTZ-JKFIT

    Orbital Energies [Eh]
    ---------------------

    Doubly Occupied:

       1A    -91.986191     2A    -11.266845     3A    -11.265268
       4A    -11.242321     5A    -11.241014     6A     -8.986567
       7A     -6.667552     8A     -6.667036     9A     -6.666337
      10A     -1.170743    11A     -0.986560    12A     -0.979989
      13A     -0.763205    14A     -0.748283    15A     -0.694609
      16A     -0.571868    17A     -0.551954    18A     -0.531084
      19A     -0.515969    20A     -0.475952    21A     -0.347398
      22A     -0.326131

  @DF-RHF Final Energy:  -551.37441024371242

   => Energetics <=

    Nuclear Repulsion Energy =            202.3184900195429634
    One-Electron Energy =               -1158.0800472385169542
    Two-Electron Energy =                 404.3871469752614871
    Total Energy =                       -551.3744102437124184
  Basis Set: (AUG-CC-PVTZ AUX)
    Blend: AUG-CC-PVTZ-RI
    Molecular point group: c1

    Geometry (in Angstrom), charge = 0, multiplicity = 1:

       Center              X                  Y                   Z               Mass
    ------------   -----------------  -----------------  -----------------  -----------------
         S            1.147583065548    -0.000000065986     0.003552033285    31.972071174400
         C           -1.317940934452     0.710014934014     0.003677033285    12.000000000000
         C           -1.317941934452    -0.710015065986     0.003629033285    12.000000000000
         C           -0.045857934452     1.235283934014     0.003622033285    12.000000000000
         C           -0.045858934452    -1.235284065986     0.003581033285    12.000000000000
         H           -2.212917934452     1.323254934014     0.003733033285     1.007825032230
         H           -2.212918934452    -1.323254065986     0.003645033285     1.007825032230
         H            0.248577165548     2.276816434014    -0.296371966715     1.007825032230
         H            0.248591065548    -2.276812065986     0.003552033285     1.007825032230

  Basis Set: AUG-CC-PVTZ
    Blend: AUG-CC-PVTZ
  Basis Set: (AUG-CC-PVTZ AUX)
    Blend: AUG-CC-PVTZ-JKFIT
	 Reference Energy          =    -551.3744102437124184 [Eh]
	 Singles Energy            =      -0.0000000000000000 [Eh]
	 Same-Spin Energy          =      -0.2318552047430928 [Eh]
	 Opposite-Spin Energy      =      -0.7104917953315356 [Eh]
	 Correlation Energy        =      -0.9423470000746283 [Eh]
	 Total Energy              =    -552.3167572437870376 [Eh]

	 ================> DF-SCS-MP2 Energies <==================
	-----------------------------------------------------------
	 SCS Same-Spin Scale       =       0.3333333333333333 [-]
	 SCS Opposite-Spin Scale   =       1.2000000000000000 [-]
	 SCS Same-Spin Energy      =      -0.0772850682476976 [Eh]
	 SCS Opposite-Spin Energy  =      -0.8525901543978427 [Eh]
	 SCS Correlation Energy    =      -0.9298752226455402 [Eh]
	 SCS Total Energy          =    -552.3042854663580101 [Eh]
	-----------------------------------------------------------

  Dipole Moment: [D]
     X:    -0.4627      Y:    -0.0671      Z:    -0.2463     Total:     0.5285

*** Psi4 exiting successfully. Buy a developer a beer!
