                               Psi4 1.3.2 release

  ==> Input File <==

--------------------------------------------------------------------------
#psi4
#
memory 32 gb

molecule  {
0 1
  S        1.1915130     0.0000000    -0.0000490
  C       -1.2740110     0.7100150     0.0000760
  C       -1.2740120    -0.7100150     0.0000280
  C       -0.0019280     1.2352840     0.0000210
  C       -0.0019290    -1.2352840    -0.0000200
  H       -2.1689755     1.3232477     0.2501320
  H       -2.1689890    -1.3232540     0.0000440
  H        0.2925210     2.2768120     0.0000270
  H        0.2925210    -2.2768120    -0.0000490
units angstrom
no_reorient  #important for SAPT in psi4, default
symmetry c1  #important for SAPT in psi4, default
}

set PROPERTIES_ORIGIN ["COM"]
properties('MP2/aug-cc-pvtz', properties = ['dipole'])
--------------------------------------------------------------------------

    Molecular point group: c1
  Charge       = 0
  Multiplicity = 1
  Basis Set: AUG-CC-PVTZ
    Blend: AUG-CC-PVTZ
  Basis Set: (AUG-CC-PVTZ AUX)
    Blend: AUG-CC-PVTZ-JKFIT

    Orbital Energies [Eh]
    ---------------------

    Doubly Occupied:

       1A    -91.986693     2A    -11.265047     3A    -11.264293
       4A    -11.243312     5A    -11.240994     6A     -8.987041
       7A     -6.668026     8A     -6.667533     9A     -6.666826
      10A     -1.170735    11A     -0.985839    12A     -0.980994
      13A     -0.766492    14A     -0.748413    15A     -0.693210
      16A     -0.572718    17A     -0.551891    18A     -0.530623
      19A     -0.518854    20A     -0.475326    21A     -0.347012
      22A     -0.326224

  @DF-RHF Final Energy:  -551.37582213349253

   => Energetics <=

    Nuclear Repulsion Energy =            202.3689610374383676
    One-Electron Energy =               -1158.1733707828100250
    Two-Electron Energy =                 404.4285876118791521
    Total Energy =                       -551.3758221334925338
  Basis Set: (AUG-CC-PVTZ AUX)
    Blend: AUG-CC-PVTZ-RI
    Molecular point group: c1

    Geometry (in Angstrom), charge = 0, multiplicity = 1:

       Center              X                  Y                   Z               Mass
    ------------   -----------------  -----------------  -----------------  -----------------
         S            1.147582748815     0.000000075584    -0.003046556261    31.972071174400
         C           -1.317941251185     0.710015075584    -0.002921556261    12.000000000000
         C           -1.317942251185    -0.710014924416    -0.002969556261    12.000000000000
         C           -0.045858251185     1.235284075584    -0.002976556261    12.000000000000
         C           -0.045859251185    -1.235283924416    -0.003017556261    12.000000000000
         H           -2.212905751185     1.323247775584     0.247134443739     1.007825032230
         H           -2.212919251185    -1.323253924416    -0.002953556261     1.007825032230
         H            0.248590748815     2.276812075584    -0.002970556261     1.007825032230
         H            0.248590748815    -2.276811924416    -0.003046556261     1.007825032230

  Basis Set: AUG-CC-PVTZ
    Blend: AUG-CC-PVTZ
  Basis Set: (AUG-CC-PVTZ AUX)
    Blend: AUG-CC-PVTZ-JKFIT
	 Reference Energy          =    -551.3758221334925338 [Eh]
	 Singles Energy            =      -0.0000000000000000 [Eh]
	 Same-Spin Energy          =      -0.2317002566959468 [Eh]
	 Opposite-Spin Energy      =      -0.7101851884272046 [Eh]
	 Correlation Energy        =      -0.9418854451231513 [Eh]
	 Total Energy              =    -552.3177075786156820 [Eh]

	 ================> DF-SCS-MP2 Energies <==================
	-----------------------------------------------------------
	 SCS Same-Spin Scale       =       0.3333333333333333 [-]
	 SCS Opposite-Spin Scale   =       1.2000000000000000 [-]
	 SCS Same-Spin Energy      =      -0.0772334188986489 [Eh]
	 SCS Opposite-Spin Energy  =      -0.8522222261126454 [Eh]
	 SCS Correlation Energy    =      -0.9294556450112943 [Eh]
	 SCS Total Energy          =    -552.3052777785038643 [Eh]
	-----------------------------------------------------------

  Dipole Moment: [D]
     X:    -0.3935      Y:    -0.0283      Z:     0.2016     Total:     0.4431

*** Psi4 exiting successfully. Buy a developer a beer!
