                               Psi4 1.3.2 release

  ==> Input File <==

--------------------------------------------------------------------------
#psi4
#
memory 32 gb

molecule  {
0 1
  S        1.1915130     0.0000000    -0.0000490
  C       -1.2740110     0.7100150     0.0000760
  C       -1.2740120    -0.7100150     0.0000280
  C       -0.0019280     1.2352840     0.0000210
  C       -0.0019290    -1.2352840    -0.0000200
  H       -2.1689855     1.3232535     0.0501320
  H       -2.1689890    -1.3232540     0.0000440
  H        0.2925210     2.2768120     0.0000270
  H        0.2925210    -2.2768120    -0.0000490
units angstrom
no_reorient  #important for SAPT in psi4, default
symmetry c1  #important for SAPT in psi4, default
}

set PROPERTIES_ORIGIN ["COM"]
properties('MP2/aug-cc-pvtz', properties = ['dipole'])
--------------------------------------------------------------------------

    Molecular point group: c1
  Charge       = 0
  Multiplicity = 1
  Basis Set: AUG-CC-PVTZ
    Blend: AUG-CC-PVTZ
  Basis Set: (AUG-CC-PVTZ AUX)
    Blend: AUG-CC-PVTZ-JKFIT

    Orbital Energies [Eh]
    ---------------------

    Doubly Occupied:

       1A    -91.986201     2A    -11.264160     3A    -11.264117
       4A    -11.241414     5A    -11.240364     6A     -8.986550
       7A     -6.667540     8A     -6.667047     9A     -6.666340
      10A     -1.170448    11A     -0.986196    12A     -0.981181
      13A     -0.766344    14A     -0.750477    15A     -0.696257
      16A     -0.573777    17A     -0.552254    18A     -0.528326
      19A     -0.522764    20A     -0.475767    21A     -0.347102
      22A     -0.326011

  @DF-RHF Final Energy:  -551.37963638404926

   => Energetics <=

    Nuclear Repulsion Energy =            202.4682188006944443
    One-Electron Energy =               -1158.3744387720371378
    Two-Electron Energy =                 404.5265835872933735
    Total Energy =                       -551.3796363840492631
  Basis Set: (AUG-CC-PVTZ AUX)
    Blend: AUG-CC-PVTZ-RI
    Molecular point group: c1

    Geometry (in Angstrom), charge = 0, multiplicity = 1:

       Center              X                  Y                   Z               Mass
    ------------   -----------------  -----------------  -----------------  -----------------
         S            1.147582868790     0.000000005999    -0.000647069154    31.972071174400
         C           -1.317941131210     0.710015005999    -0.000522069154    12.000000000000
         C           -1.317942131210    -0.710014994001    -0.000570069154    12.000000000000
         C           -0.045858131210     1.235284005999    -0.000577069154    12.000000000000
         C           -0.045859131210    -1.235283994001    -0.000618069154    12.000000000000
         H           -2.212915631210     1.323253505999     0.049533930846     1.007825032230
         H           -2.212919131210    -1.323253994001    -0.000554069154     1.007825032230
         H            0.248590868790     2.276812005999    -0.000571069154     1.007825032230
         H            0.248590868790    -2.276811994001    -0.000647069154     1.007825032230

  Basis Set: AUG-CC-PVTZ
    Blend: AUG-CC-PVTZ
  Basis Set: (AUG-CC-PVTZ AUX)
    Blend: AUG-CC-PVTZ-JKFIT
	 Reference Energy          =    -551.3796363840492631 [Eh]
	 Singles Energy            =      -0.0000000000000000 [Eh]
	 Same-Spin Energy          =      -0.2315016538053867 [Eh]
	 Opposite-Spin Energy      =      -0.7096721439040556 [Eh]
	 Correlation Energy        =      -0.9411737977094423 [Eh]
	 Total Energy              =    -552.3208101817587021 [Eh]

	 ================> DF-SCS-MP2 Energies <==================
	-----------------------------------------------------------
	 SCS Same-Spin Scale       =       0.3333333333333333 [-]
	 SCS Opposite-Spin Scale   =       1.2000000000000000 [-]
	 SCS Same-Spin Energy      =      -0.0771672179351289 [Eh]
	 SCS Opposite-Spin Energy  =      -0.8516065726848667 [Eh]
	 SCS Correlation Energy    =      -0.9287737906199957 [Eh]
	 SCS Total Energy          =    -552.3084101746692340 [Eh]
	-----------------------------------------------------------

  Dipole Moment: [D]
     X:    -0.4366      Y:    -0.0012      Z:     0.0410     Total:     0.4385

*** Psi4 exiting successfully. Buy a developer a beer!
