                               Psi4 1.3.2 release

  ==> Input File <==

--------------------------------------------------------------------------
#psi4
#
memory 32 gb

molecule  {
0 1
  S        1.1915130     0.0000000    -0.0000490
  C       -1.2740110     0.7100150     0.0000760
  C       -1.2740120    -0.7100150     0.0000280
  C       -0.0019280     1.2352840     0.0000210
  C       -0.0019290    -1.2352840    -0.0000200
  H       -2.1689880     1.3232550     0.0001320
  H       -2.1689890    -1.3232540     0.0000440
  H        0.2925094     2.2768158    -0.2499730
  H        0.2925210    -2.2768120    -0.0000490
units angstrom
no_reorient  #important for SAPT in psi4, default
symmetry c1  #important for SAPT in psi4, default
}

set PROPERTIES_ORIGIN ["COM"]
properties('MP2/aug-cc-pvtz', properties = ['dipole'])
--------------------------------------------------------------------------

    Molecular point group: c1
  Charge       = 0
  Multiplicity = 1
  Basis Set: AUG-CC-PVTZ
    Blend: AUG-CC-PVTZ
  Basis Set: (AUG-CC-PVTZ AUX)
    Blend: AUG-CC-PVTZ-JKFIT

    Orbital Energies [Eh]
    ---------------------

    Doubly Occupied:

       1A    -91.986179     2A    -11.266028     3A    -11.264923
       4A    -11.242008     5A    -11.240825     6A     -8.986548
       7A     -6.667534     8A     -6.667025     9A     -6.666324
      10A     -1.170647    11A     -0.986446    12A     -0.980330
      13A     -0.763946    14A     -0.749049    15A     -0.695158
      16A     -0.572415    17A     -0.552091    18A     -0.530527
      19A     -0.517791    20A     -0.475899    21A     -0.347308
      22A     -0.326087

  @DF-RHF Final Energy:  -551.37620075619748

   => Energetics <=

    Nuclear Repulsion Energy =            202.3641933751515865
    One-Electron Energy =               -1158.1706112413664869
    Two-Electron Energy =                 404.4302171100174519
    Total Energy =                       -551.3762007561974769
  Basis Set: (AUG-CC-PVTZ AUX)
    Blend: AUG-CC-PVTZ-RI
    Molecular point group: c1

    Geometry (in Angstrom), charge = 0, multiplicity = 1:

       Center              X                  Y                   Z               Mass
    ------------   -----------------  -----------------  -----------------  -----------------
         S            1.147583037954    -0.000000057588     0.002952161508    31.972071174400
         C           -1.317940962046     0.710014942412     0.003077161508    12.000000000000
         C           -1.317941962046    -0.710015057588     0.003029161508    12.000000000000
         C           -0.045857962046     1.235283942412     0.003022161508    12.000000000000
         C           -0.045858962046    -1.235284057588     0.002981161508    12.000000000000
         H           -2.212917962046     1.323254942412     0.003133161508     1.007825032230
         H           -2.212918962046    -1.323254057588     0.003045161508     1.007825032230
         H            0.248579437954     2.276815742412    -0.246971838492     1.007825032230
         H            0.248591037954    -2.276812057588     0.002952161508     1.007825032230

  Basis Set: AUG-CC-PVTZ
    Blend: AUG-CC-PVTZ
  Basis Set: (AUG-CC-PVTZ AUX)
    Blend: AUG-CC-PVTZ-JKFIT
	 Reference Energy          =    -551.3762007561974769 [Eh]
	 Singles Energy            =      -0.0000000000000000 [Eh]
	 Same-Spin Energy          =      -0.2317481021324585 [Eh]
	 Opposite-Spin Energy      =      -0.7102361262053662 [Eh]
	 Correlation Energy        =      -0.9419842283378248 [Eh]
	 Total Energy              =    -552.3181849845352644 [Eh]

	 ================> DF-SCS-MP2 Energies <==================
	-----------------------------------------------------------
	 SCS Same-Spin Scale       =       0.3333333333333333 [-]
	 SCS Opposite-Spin Scale   =       1.2000000000000000 [-]
	 SCS Same-Spin Energy      =      -0.0772493673774862 [Eh]
	 SCS Opposite-Spin Energy  =      -0.8522833514464395 [Eh]
	 SCS Correlation Energy    =      -0.9295327188239257 [Eh]
	 SCS Total Energy          =    -552.3057334750213840 [Eh]
	-----------------------------------------------------------

  Dipole Moment: [D]
     X:    -0.4556      Y:    -0.0470      Z:    -0.2067     Total:     0.5025

*** Psi4 exiting successfully. Buy a developer a beer!
