                               Psi4 1.3.2 release

  ==> Input File <==

--------------------------------------------------------------------------
#psi4
#
memory 32 gb

molecule  {
0 1
  S        1.1915130     0.0000000    -0.0000490
  C       -1.2740110     0.7100150     0.0000760
  C       -1.2740120    -0.7100150     0.0000280
  C       -0.0019280     1.2352840     0.0000210
  C       -0.0019290    -1.2352840    -0.0000200
  H       -2.1689880     1.3232550     0.0001320
  H       -2.1689890    -1.3232540     0.0000440
  H        0.2925117     2.2768150    -0.1999730
  H        0.2925210    -2.2768120    -0.0000490
units angstrom
no_reorient  #important for SAPT in psi4, default
symmetry c1  #important for SAPT in psi4, default
}

set PROPERTIES_ORIGIN ["COM"]
properties('MP2/aug-cc-pvtz', properties = ['dipole'])
--------------------------------------------------------------------------

    Molecular point group: c1
  Charge       = 0
  Multiplicity = 1
  Basis Set: AUG-CC-PVTZ
    Blend: AUG-CC-PVTZ
  Basis Set: (AUG-CC-PVTZ AUX)
    Blend: AUG-CC-PVTZ-JKFIT

    Orbital Energies [Eh]
    ---------------------

    Doubly Occupied:

       1A    -91.986175     2A    -11.265349     3A    -11.264635
       4A    -11.241762     5A    -11.240656     6A     -8.986537
       7A     -6.667525     8A     -6.667021     9A     -6.666318
      10A     -1.170570    11A     -0.986357    12A     -0.980626
      13A     -0.764686    14A     -0.749639    15A     -0.695603
      16A     -0.572897    17A     -0.552177    18A     -0.529941
      19A     -0.519404    20A     -0.475856    21A     -0.347235
      22A     -0.326054

  @DF-RHF Final Energy:  -551.37757399624763

   => Energetics <=

    Nuclear Repulsion Energy =            202.4024480616311905
    One-Electron Energy =               -1158.2460011025871154
    Two-Electron Energy =                 404.4659790447083765
    Total Energy =                       -551.3775739962475200
  Basis Set: (AUG-CC-PVTZ AUX)
    Blend: AUG-CC-PVTZ-RI
    Molecular point group: c1

    Geometry (in Angstrom), charge = 0, multiplicity = 1:

       Center              X                  Y                   Z               Mass
    ------------   -----------------  -----------------  -----------------  -----------------
         S            1.147583010360    -0.000000047990     0.002352289731    31.972071174400
         C           -1.317940989640     0.710014952010     0.002477289731    12.000000000000
         C           -1.317941989640    -0.710015047990     0.002429289731    12.000000000000
         C           -0.045857989640     1.235283952010     0.002422289731    12.000000000000
         C           -0.045858989640    -1.235284047990     0.002381289731    12.000000000000
         H           -2.212917989640     1.323254952010     0.002533289731     1.007825032230
         H           -2.212918989640    -1.323254047990     0.002445289731     1.007825032230
         H            0.248581710360     2.276814952010    -0.197571710269     1.007825032230
         H            0.248591010360    -2.276812047990     0.002352289731     1.007825032230

  Basis Set: AUG-CC-PVTZ
    Blend: AUG-CC-PVTZ
  Basis Set: (AUG-CC-PVTZ AUX)
    Blend: AUG-CC-PVTZ-JKFIT
	 Reference Energy          =    -551.3775739962476337 [Eh]
	 Singles Energy            =      -0.0000000000000000 [Eh]
	 Same-Spin Energy          =      -0.2316582787729785 [Eh]
	 Opposite-Spin Energy      =      -0.7100261247604061 [Eh]
	 Correlation Energy        =      -0.9416844035333846 [Eh]
	 Total Energy              =    -552.3192583997810061 [Eh]

	 ================> DF-SCS-MP2 Energies <==================
	-----------------------------------------------------------
	 SCS Same-Spin Scale       =       0.3333333333333333 [-]
	 SCS Opposite-Spin Scale   =       1.2000000000000000 [-]
	 SCS Same-Spin Energy      =      -0.0772194262576595 [Eh]
	 SCS Opposite-Spin Energy  =      -0.8520313497124873 [Eh]
	 SCS Correlation Energy    =      -0.9292507759701467 [Eh]
	 SCS Total Energy          =    -552.3068247722177375 [Eh]
	-----------------------------------------------------------

  Dipole Moment: [D]
     X:    -0.4496      Y:    -0.0303      Z:    -0.1663     Total:     0.4804

*** Psi4 exiting successfully. Buy a developer a beer!
