                               Psi4 1.3.2 release

  ==> Input File <==

--------------------------------------------------------------------------
#psi4
#
memory 32 gb

molecule  {
0 1
  S        1.1915130     0.0000000    -0.0000490
  C       -1.2740110     0.7100150     0.0000760
  C       -1.2740120    -0.7100150     0.0000280
  C       -0.0019280     1.2352840     0.0000210
  C       -0.0019290    -1.2352840    -0.0000200
  H       -2.1689780     1.3232492     0.2001320
  H       -2.1689890    -1.3232540     0.0000440
  H        0.2925210     2.2768120     0.0000270
  H        0.2925210    -2.2768120    -0.0000490
units angstrom
no_reorient  #important for SAPT in psi4, default
symmetry c1  #important for SAPT in psi4, default
}

set PROPERTIES_ORIGIN ["COM"]
properties('MP2/aug-cc-pvtz', properties = ['dipole'])
--------------------------------------------------------------------------

    Molecular point group: c1
  Charge       = 0
  Multiplicity = 1
  Basis Set: AUG-CC-PVTZ
    Blend: AUG-CC-PVTZ
  Basis Set: (AUG-CC-PVTZ AUX)
    Blend: AUG-CC-PVTZ-JKFIT

    Orbital Energies [Eh]
    ---------------------

    Doubly Occupied:

       1A    -91.986509     2A    -11.264713     3A    -11.264226
       4A    -11.242530     5A    -11.240833     6A     -8.986856
       7A     -6.667843     8A     -6.667351     9A     -6.666643
      10A     -1.170626    11A     -0.985944    12A     -0.981074
      13A     -0.766428    14A     -0.749129    15A     -0.694340
      16A     -0.573096    17A     -0.552035    18A     -0.529976
      19A     -0.520104    20A     -0.475502    21A     -0.347042
      22A     -0.326142

  @DF-RHF Final Energy:  -551.37732588621338

   => Energetics <=

    Nuclear Repulsion Energy =            202.4055135942980996
    One-Electron Energy =               -1158.2477929948076962
    Two-Electron Energy =                 404.4649535142962122
    Total Energy =                       -551.3773258862133844
  Basis Set: (AUG-CC-PVTZ AUX)
    Blend: AUG-CC-PVTZ-RI
    Molecular point group: c1

    Geometry (in Angstrom), charge = 0, multiplicity = 1:

       Center              X                  Y                   Z               Mass
    ------------   -----------------  -----------------  -----------------  -----------------
         S            1.147582778809     0.000000057588    -0.002446684484    31.972071174400
         C           -1.317941221191     0.710015057588    -0.002321684484    12.000000000000
         C           -1.317942221191    -0.710014942412    -0.002369684484    12.000000000000
         C           -0.045858221191     1.235284057588    -0.002376684484    12.000000000000
         C           -0.045859221191    -1.235283942412    -0.002417684484    12.000000000000
         H           -2.212908221191     1.323249257588     0.197734315516     1.007825032230
         H           -2.212919221191    -1.323253942412    -0.002353684484     1.007825032230
         H            0.248590778809     2.276812057588    -0.002370684484     1.007825032230
         H            0.248590778809    -2.276811942412    -0.002446684484     1.007825032230

  Basis Set: AUG-CC-PVTZ
    Blend: AUG-CC-PVTZ
  Basis Set: (AUG-CC-PVTZ AUX)
    Blend: AUG-CC-PVTZ-JKFIT
	 Reference Energy          =    -551.3773258862133844 [Eh]
	 Singles Energy            =      -0.0000000000000000 [Eh]
	 Same-Spin Energy          =      -0.2316275290048405 [Eh]
	 Opposite-Spin Energy      =      -0.7099906760990773 [Eh]
	 Correlation Energy        =      -0.9416182051039177 [Eh]
	 Total Energy              =    -552.3189440913173485 [Eh]

	 ================> DF-SCS-MP2 Energies <==================
	-----------------------------------------------------------
	 SCS Same-Spin Scale       =       0.3333333333333333 [-]
	 SCS Opposite-Spin Scale   =       1.2000000000000000 [-]
	 SCS Same-Spin Energy      =      -0.0772091763349468 [Eh]
	 SCS Opposite-Spin Energy  =      -0.8519888113188927 [Eh]
	 SCS Correlation Energy    =      -0.9291979876538395 [Eh]
	 SCS Total Energy          =    -552.3065238738672633 [Eh]
	-----------------------------------------------------------

  Dipole Moment: [D]
     X:    -0.4095      Y:    -0.0182      Z:     0.1623     Total:     0.4408

*** Psi4 exiting successfully. Buy a developer a beer!
