                               Psi4 1.3.2 release

  ==> Input File <==

--------------------------------------------------------------------------
#psi4
#
memory 32 gb

molecule  {
0 1
  S        1.1915130     0.0000000    -0.0000490
  C       -1.2740110     0.7100150     0.0000760
  C       -1.2740120    -0.7100150     0.0000280
  C       -0.0019280     1.2352840     0.0000210
  C       -0.0019290    -1.2352840    -0.0000200
  H       -2.1689830     1.3232521     0.1001320
  H       -2.1689890    -1.3232540     0.0000440
  H        0.2925210     2.2768120     0.0000270
  H        0.2925210    -2.2768120    -0.0000490
units angstrom
no_reorient  #important for SAPT in psi4, default
symmetry c1  #important for SAPT in psi4, default
}

set PROPERTIES_ORIGIN ["COM"]
properties('MP2/aug-cc-pvtz', properties = ['dipole'])
--------------------------------------------------------------------------

    Molecular point group: c1
  Charge       = 0
  Multiplicity = 1
  Basis Set: AUG-CC-PVTZ
    Blend: AUG-CC-PVTZ
  Basis Set: (AUG-CC-PVTZ AUX)
    Blend: AUG-CC-PVTZ-JKFIT

    Orbital Energies [Eh]
    ---------------------

    Doubly Occupied:

       1A    -91.986263     2A    -11.264267     3A    -11.264141
       4A    -11.241598     5A    -11.240498     6A     -8.986611
       7A     -6.667600     8A     -6.667107     9A     -6.666400
      10A     -1.170483    11A     -0.986138    12A     -0.981162
      13A     -0.766358    14A     -0.750191    15A     -0.695870
      16A     -0.573636    17A     -0.552212    18A     -0.528762
      19A     -0.522125    20A     -0.475716    21A     -0.347088
      22A     -0.326036

  @DF-RHF Final Energy:  -551.37919565680966

   => Energetics <=

    Nuclear Repulsion Energy =            202.4554933745176868
    One-Electron Energy =               -1158.3488525483674039
    Two-Electron Energy =                 404.5141635170400605
    Total Energy =                       -551.3791956568096566
  Basis Set: (AUG-CC-PVTZ AUX)
    Blend: AUG-CC-PVTZ-RI
    Molecular point group: c1

    Geometry (in Angstrom), charge = 0, multiplicity = 1:

       Center              X                  Y                   Z               Mass
    ------------   -----------------  -----------------  -----------------  -----------------
         S            1.147582838796     0.000000022795    -0.001246940931    31.972071174400
         C           -1.317941161204     0.710015022795    -0.001121940931    12.000000000000
         C           -1.317942161204    -0.710014977205    -0.001169940931    12.000000000000
         C           -0.045858161204     1.235284022795    -0.001176940931    12.000000000000
         C           -0.045859161204    -1.235283977205    -0.001217940931    12.000000000000
         H           -2.212913161204     1.323252122795     0.098934059069     1.007825032230
         H           -2.212919161204    -1.323253977205    -0.001153940931     1.007825032230
         H            0.248590838796     2.276812022795    -0.001170940931     1.007825032230
         H            0.248590838796    -2.276811977205    -0.001246940931     1.007825032230

  Basis Set: AUG-CC-PVTZ
    Blend: AUG-CC-PVTZ
  Basis Set: (AUG-CC-PVTZ AUX)
    Blend: AUG-CC-PVTZ-JKFIT
	 Reference Energy          =    -551.3791956568096566 [Eh]
	 Singles Energy            =      -0.0000000000000000 [Eh]
	 Same-Spin Energy          =      -0.2315273794692775 [Eh]
	 Opposite-Spin Energy      =      -0.7097347857189036 [Eh]
	 Correlation Energy        =      -0.9412621651881811 [Eh]
	 Total Energy              =    -552.3204578219978202 [Eh]

	 ================> DF-SCS-MP2 Energies <==================
	-----------------------------------------------------------
	 SCS Same-Spin Scale       =       0.3333333333333333 [-]
	 SCS Opposite-Spin Scale   =       1.2000000000000000 [-]
	 SCS Same-Spin Energy      =      -0.0771757931564258 [Eh]
	 SCS Opposite-Spin Energy  =      -0.8516817428626843 [Eh]
	 SCS Correlation Energy    =      -0.9288575360191100 [Eh]
	 SCS Total Energy          =    -552.3080531928287655 [Eh]
	-----------------------------------------------------------

  Dipole Moment: [D]
     X:    -0.4311      Y:    -0.0046      Z:     0.0818     Total:     0.4388

*** Psi4 exiting successfully. Buy a developer a beer!
