                               Psi4 1.3.2 release

  ==> Input File <==

--------------------------------------------------------------------------
#psi4
#
memory 32 gb

molecule  {
0 1
  S        1.1915130     0.0000000    -0.0000490
  C       -1.2740110     0.7100150     0.0000760
  C       -1.2740120    -0.7100150     0.0000280
  C       -0.0019280     1.2352840     0.0000210
  C       -0.0019290    -1.2352840    -0.0000200
  H       -2.1689880     1.3232550     0.0001320
  H       -2.1689890    -1.3232540     0.0000440
  H        0.2925164     2.2768135    -0.0999730
  H        0.2925210    -2.2768120    -0.0000490
units angstrom
no_reorient  #important for SAPT in psi4, default
symmetry c1  #important for SAPT in psi4, default
}

set PROPERTIES_ORIGIN ["COM"]
properties('MP2/aug-cc-pvtz', properties = ['dipole'])
--------------------------------------------------------------------------

    Molecular point group: c1
  Charge       = 0
  Multiplicity = 1
  Basis Set: AUG-CC-PVTZ
    Blend: AUG-CC-PVTZ
  Basis Set: (AUG-CC-PVTZ AUX)
    Blend: AUG-CC-PVTZ-JKFIT

    Orbital Energies [Eh]
    ---------------------

    Doubly Occupied:

       1A    -91.986178     2A    -11.264428     3A    -11.264246
       4A    -11.241455     5A    -11.240404     6A     -8.986530
       7A     -6.667519     8A     -6.667024     9A     -6.666318
      10A     -1.170469    11A     -0.986250    12A     -0.981042
      13A     -0.765883    14A     -0.750356    15A     -0.696191
      16A     -0.573585    17A     -0.552252    18A     -0.528779
      19A     -0.521927    20A     -0.475801    21A     -0.347138
      22A     -0.326014

  @DF-RHF Final Energy:  -551.37925955066669

   => Energetics <=

    Nuclear Repulsion Energy =            202.4547216260209552
    One-Electron Energy =               -1158.3483841747645329
    Two-Electron Energy =                 404.5144029980769460
    Total Energy =                       -551.3792595506665748
  Basis Set: (AUG-CC-PVTZ AUX)
    Blend: AUG-CC-PVTZ-RI
    Molecular point group: c1

    Geometry (in Angstrom), charge = 0, multiplicity = 1:

       Center              X                  Y                   Z               Mass
    ------------   -----------------  -----------------  -----------------  -----------------
         S            1.147582953972    -0.000000029994     0.001152546177    31.972071174400
         C           -1.317941046028     0.710014970006     0.001277546177    12.000000000000
         C           -1.317942046028    -0.710015029994     0.001229546177    12.000000000000
         C           -0.045858046028     1.235283970006     0.001222546177    12.000000000000
         C           -0.045859046028    -1.235284029994     0.001181546177    12.000000000000
         H           -2.212918046028     1.323254970006     0.001333546177     1.007825032230
         H           -2.212919046028    -1.323254029994     0.001245546177     1.007825032230
         H            0.248586353972     2.276813470006    -0.098771453823     1.007825032230
         H            0.248590953972    -2.276812029994     0.001152546177     1.007825032230

  Basis Set: AUG-CC-PVTZ
    Blend: AUG-CC-PVTZ
  Basis Set: (AUG-CC-PVTZ AUX)
    Blend: AUG-CC-PVTZ-JKFIT
	 Reference Energy          =    -551.3792595506666885 [Eh]
	 Singles Energy            =      -0.0000000000000000 [Eh]
	 Same-Spin Energy          =      -0.2315350605720254 [Eh]
	 Opposite-Spin Energy      =      -0.7097452315934287 [Eh]
	 Correlation Energy        =      -0.9412802921654542 [Eh]
	 Total Energy              =    -552.3205398428320905 [Eh]

	 ================> DF-SCS-MP2 Energies <==================
	-----------------------------------------------------------
	 SCS Same-Spin Scale       =       0.3333333333333333 [-]
	 SCS Opposite-Spin Scale   =       1.2000000000000000 [-]
	 SCS Same-Spin Energy      =      -0.0771783535240085 [Eh]
	 SCS Opposite-Spin Energy  =      -0.8516942779121145 [Eh]
	 SCS Correlation Energy    =      -0.9288726314361230 [Eh]
	 SCS Total Energy          =    -552.3081321821027814 [Eh]
	-----------------------------------------------------------

  Dipole Moment: [D]
     X:    -0.4413      Y:    -0.0077      Z:    -0.0838     Total:     0.4493

*** Psi4 exiting successfully. Buy a developer a beer!
