                               Psi4 1.3.2 release

  ==> Input File <==

--------------------------------------------------------------------------
#psi4
#
memory 32 gb

molecule  {
0 1
  S        1.1915130     0.0000000    -0.0000490
  C       -1.2740110     0.7100150     0.0000760
  C       -1.2740120    -0.7100150     0.0000280
  C       -0.0019280     1.2352840     0.0000210
  C       -0.0019290    -1.2352840    -0.0000200
  H       -2.1689880     1.3232550     0.0001320
  H       -2.1689890    -1.3232540     0.0000440
  H        0.2925187     2.2768128    -0.0499730
  H        0.2925210    -2.2768120    -0.0000490
units angstrom
no_reorient  #important for SAPT in psi4, default
symmetry c1  #important for SAPT in psi4, default
}

set PROPERTIES_ORIGIN ["COM"]
properties('MP2/aug-cc-pvtz', properties = ['dipole'])
--------------------------------------------------------------------------

    Molecular point group: c1
  Charge       = 0
  Multiplicity = 1
  Basis Set: AUG-CC-PVTZ
    Blend: AUG-CC-PVTZ
  Basis Set: (AUG-CC-PVTZ AUX)
    Blend: AUG-CC-PVTZ-JKFIT

    Orbital Energies [Eh]
    ---------------------

    Doubly Occupied:

       1A    -91.986180     2A    -11.264199     3A    -11.264145
       4A    -11.241383     5A    -11.240336     6A     -8.986530
       7A     -6.667519     8A     -6.667026     9A     -6.666319
      10A     -1.170445    11A     -0.986225    12A     -0.981150
      13A     -0.766223    14A     -0.750521    15A     -0.696337
      16A     -0.573764    17A     -0.552264    18A     -0.528335
      19A     -0.522710    20A     -0.475788    21A     -0.347115
      22A     -0.326005

  @DF-RHF Final Energy:  -551.37965245947623

   => Energetics <=

    Nuclear Repulsion Energy =            202.4680249209975500
    One-Electron Energy =               -1158.3743183290030174
    Two-Electron Energy =                 404.5266409485292343
    Total Energy =                       -551.3796524594762332
  Basis Set: (AUG-CC-PVTZ AUX)
    Blend: AUG-CC-PVTZ-RI
    Molecular point group: c1

    Geometry (in Angstrom), charge = 0, multiplicity = 1:

       Center              X                  Y                   Z               Mass
    ------------   -----------------  -----------------  -----------------  -----------------
         S            1.147582926377    -0.000000021595     0.000552674400    31.972071174400
         C           -1.317941073623     0.710014978405     0.000677674400    12.000000000000
         C           -1.317942073623    -0.710015021595     0.000629674400    12.000000000000
         C           -0.045858073623     1.235283978405     0.000622674400    12.000000000000
         C           -0.045859073623    -1.235284021595     0.000581674400    12.000000000000
         H           -2.212918073623     1.323254978405     0.000733674400     1.007825032230
         H           -2.212919073623    -1.323254021595     0.000645674400     1.007825032230
         H            0.248588626377     2.276812778405    -0.049371325600     1.007825032230
         H            0.248590926377    -2.276812021595     0.000552674400     1.007825032230

  Basis Set: AUG-CC-PVTZ
    Blend: AUG-CC-PVTZ
  Basis Set: (AUG-CC-PVTZ AUX)
    Blend: AUG-CC-PVTZ-JKFIT
	 Reference Energy          =    -551.3796524594762332 [Eh]
	 Singles Energy            =      -0.0000000000000000 [Eh]
	 Same-Spin Energy          =      -0.2315035716782244 [Eh]
	 Opposite-Spin Energy      =      -0.7096749105864159 [Eh]
	 Correlation Energy        =      -0.9411784822646403 [Eh]
	 Total Energy              =    -552.3208309417408373 [Eh]

	 ================> DF-SCS-MP2 Energies <==================
	-----------------------------------------------------------
	 SCS Same-Spin Scale       =       0.3333333333333333 [-]
	 SCS Opposite-Spin Scale   =       1.2000000000000000 [-]
	 SCS Same-Spin Energy      =      -0.0771678572260748 [Eh]
	 SCS Opposite-Spin Energy  =      -0.8516098927036990 [Eh]
	 SCS Correlation Energy    =      -0.9287777499297738 [Eh]
	 SCS Total Energy          =    -552.3084302094059694 [Eh]
	-----------------------------------------------------------

  Dipole Moment: [D]
     X:    -0.4392      Y:    -0.0019      Z:    -0.0420     Total:     0.4412

*** Psi4 exiting successfully. Buy a developer a beer!
