                               Psi4 1.3.2 release

  ==> Input File <==

--------------------------------------------------------------------------
#psi4
#
memory 32 gb

molecule  {
0 1
  S        1.1915130     0.0000000    -0.0000490
  C       -1.2740110     0.7100150     0.0000760
  C       -1.2740120    -0.7100150     0.0000280
  C       -0.0019280     1.2352840     0.0000210
  C       -0.0019290    -1.2352840    -0.0000200
  H       -2.1689730     1.3232463     0.3001320
  H       -2.1689890    -1.3232540     0.0000440
  H        0.2925210     2.2768120     0.0000270
  H        0.2925210    -2.2768120    -0.0000490
units angstrom
no_reorient  #important for SAPT in psi4, default
symmetry c1  #important for SAPT in psi4, default
}

set PROPERTIES_ORIGIN ["COM"]
properties('MP2/aug-cc-pvtz', properties = ['dipole'])
--------------------------------------------------------------------------

    Molecular point group: c1
  Charge       = 0
  Multiplicity = 1
  Basis Set: AUG-CC-PVTZ
    Blend: AUG-CC-PVTZ
  Basis Set: (AUG-CC-PVTZ AUX)
    Blend: AUG-CC-PVTZ-JKFIT

    Orbital Energies [Eh]
    ---------------------

    Doubly Occupied:

       1A    -91.986918     2A    -11.265452     3A    -11.264377
       4A    -11.244285     5A    -11.241161     6A     -8.987266
       7A     -6.668249     8A     -6.667756     9A     -6.667049
      10A     -1.170872    11A     -0.985752    12A     -0.980882
      13A     -0.766579    14A     -0.747625    15A     -0.691852
      16A     -0.572286    17A     -0.551701    18A     -0.531258
      19A     -0.517481    20A     -0.475093    21A     -0.346983
      22A     -0.326325

  @DF-RHF Final Energy:  -551.37388081241841

   => Energetics <=

    Nuclear Repulsion Energy =            202.3253166405638979
    One-Electron Energy =               -1158.0839902302689097
    Two-Electron Energy =                 404.3847927772866342
    Total Energy =                       -551.3738808124184061
  Basis Set: (AUG-CC-PVTZ AUX)
    Blend: AUG-CC-PVTZ-RI
    Molecular point group: c1

    Geometry (in Angstrom), charge = 0, multiplicity = 1:

       Center              X                  Y                   Z               Mass
    ------------   -----------------  -----------------  -----------------  -----------------
         S            1.147582718822     0.000000092380    -0.003646428038    31.972071174400
         C           -1.317941281178     0.710015092380    -0.003521428038    12.000000000000
         C           -1.317942281178    -0.710014907620    -0.003569428038    12.000000000000
         C           -0.045858281178     1.235284092380    -0.003576428038    12.000000000000
         C           -0.045859281178    -1.235283907620    -0.003617428038    12.000000000000
         H           -2.212903281178     1.323246392380     0.296534571962     1.007825032230
         H           -2.212919281178    -1.323253907620    -0.003553428038     1.007825032230
         H            0.248590718822     2.276812092380    -0.003570428038     1.007825032230
         H            0.248590718822    -2.276811907620    -0.003646428038     1.007825032230

  Basis Set: AUG-CC-PVTZ
    Blend: AUG-CC-PVTZ
  Basis Set: (AUG-CC-PVTZ AUX)
    Blend: AUG-CC-PVTZ-JKFIT
	 Reference Energy          =    -551.3738808124184061 [Eh]
	 Singles Energy            =      -0.0000000000000000 [Eh]
	 Same-Spin Energy          =      -0.2317868503732522 [Eh]
	 Opposite-Spin Energy      =      -0.7104238920035704 [Eh]
	 Correlation Energy        =      -0.9422107423768226 [Eh]
	 Total Energy              =    -552.3160915547952072 [Eh]

	 ================> DF-SCS-MP2 Energies <==================
	-----------------------------------------------------------
	 SCS Same-Spin Scale       =       0.3333333333333333 [-]
	 SCS Opposite-Spin Scale   =       1.2000000000000000 [-]
	 SCS Same-Spin Energy      =      -0.0772622834577507 [Eh]
	 SCS Opposite-Spin Energy  =      -0.8525086704042845 [Eh]
	 SCS Correlation Energy    =      -0.9297709538620352 [Eh]
	 SCS Total Energy          =    -552.3036517662804954 [Eh]
	-----------------------------------------------------------

  Dipole Moment: [D]
     X:    -0.3744      Y:    -0.0404      Z:     0.2401     Total:     0.4466

*** Psi4 exiting successfully. Buy a developer a beer!
