                               Psi4 1.3.2 release

  ==> Input File <==

--------------------------------------------------------------------------
#psi4
#
memory 32 gb

molecule  {
0 1
  S        1.1915130     0.0000000    -0.0000490
  C       -1.2740110     0.7100150     0.0000760
  C       -1.2740120    -0.7100150     0.0000280
  C       -0.0019280     1.2352840     0.0000210
  C       -0.0019290    -1.2352840    -0.0000200
  H       -2.1689805     1.3232506     0.1501320
  H       -2.1689890    -1.3232540     0.0000440
  H        0.2925210     2.2768120     0.0000270
  H        0.2925210    -2.2768120    -0.0000490
units angstrom
no_reorient  #important for SAPT in psi4, default
symmetry c1  #important for SAPT in psi4, default
}

set PROPERTIES_ORIGIN ["COM"]
properties('MP2/aug-cc-pvtz', properties = ['dipole'])
--------------------------------------------------------------------------

    Molecular point group: c1
  Charge       = 0
  Multiplicity = 1
  Basis Set: AUG-CC-PVTZ
    Blend: AUG-CC-PVTZ
  Basis Set: (AUG-CC-PVTZ AUX)
    Blend: AUG-CC-PVTZ-JKFIT

    Orbital Energies [Eh]
    ---------------------

    Doubly Occupied:

       1A    -91.986365     2A    -11.264453     3A    -11.264176
       4A    -11.241958     5A    -11.240666     6A     -8.986713
       7A     -6.667701     8A     -6.667209     9A     -6.666501
      10A     -1.170542    11A     -0.986049    12A     -0.981128
      13A     -0.766384    14A     -0.749732    15A     -0.695230
      16A     -0.573406    17A     -0.552140    18A     -0.529341
      19A     -0.521210    20A     -0.475629    21A     -0.347068
      22A     -0.326080

  @DF-RHF Final Energy:  -551.37843665527623

   => Energetics <=

    Nuclear Repulsion Energy =            202.4344915399368006
    One-Electron Energy =               -1158.3064916710839043
    Two-Electron Energy =                 404.4935634758709853
    Total Energy =                       -551.3784366552761185
  Basis Set: (AUG-CC-PVTZ AUX)
    Blend: AUG-CC-PVTZ-RI
    Molecular point group: c1

    Geometry (in Angstrom), charge = 0, multiplicity = 1:

       Center              X                  Y                   Z               Mass
    ------------   -----------------  -----------------  -----------------  -----------------
         S            1.147582808803     0.000000040791    -0.001846812707    31.972071174400
         C           -1.317941191197     0.710015040791    -0.001721812707    12.000000000000
         C           -1.317942191197    -0.710014959209    -0.001769812707    12.000000000000
         C           -0.045858191197     1.235284040791    -0.001776812707    12.000000000000
         C           -0.045859191197    -1.235283959209    -0.001817812707    12.000000000000
         H           -2.212910691197     1.323250640791     0.148334187293     1.007825032230
         H           -2.212919191197    -1.323253959209    -0.001753812707     1.007825032230
         H            0.248590808803     2.276812040791    -0.001770812707     1.007825032230
         H            0.248590808803    -2.276811959209    -0.001846812707     1.007825032230

  Basis Set: AUG-CC-PVTZ
    Blend: AUG-CC-PVTZ
  Basis Set: (AUG-CC-PVTZ AUX)
    Blend: AUG-CC-PVTZ-JKFIT
	 Reference Energy          =    -551.3784366552762322 [Eh]
	 Singles Energy            =      -0.0000000000000000 [Eh]
	 Same-Spin Energy          =      -0.2315696048572109 [Eh]
	 Opposite-Spin Energy      =      -0.7098406414428863 [Eh]
	 Correlation Energy        =      -0.9414102463000972 [Eh]
	 Total Energy              =    -552.3198469015762839 [Eh]

	 ================> DF-SCS-MP2 Energies <==================
	-----------------------------------------------------------
	 SCS Same-Spin Scale       =       0.3333333333333333 [-]
	 SCS Opposite-Spin Scale   =       1.2000000000000000 [-]
	 SCS Same-Spin Energy      =      -0.0771898682857370 [Eh]
	 SCS Opposite-Spin Energy  =      -0.8518087697314635 [Eh]
	 SCS Correlation Energy    =      -0.9289986380172004 [Eh]
	 SCS Total Energy          =    -552.3074352932934517 [Eh]
	-----------------------------------------------------------

  Dipole Moment: [D]
     X:    -0.4220      Y:    -0.0103      Z:     0.1223     Total:     0.4395

*** Psi4 exiting successfully. Buy a developer a beer!
