                               Psi4 1.3.2 release

  ==> Input File <==

--------------------------------------------------------------------------
#psi4
#
memory 32 gb

molecule  {
0 1
  S        1.1915130     0.0000000    -0.0000490
  C       -1.2740110     0.7100150     0.0000760
  C       -1.2740120    -0.7100150     0.0000280
  C       -0.0019280     1.2352840     0.0000210
  C       -0.0019290    -1.2352840    -0.0000200
  H       -2.1689880     1.3232550     0.0001320
  H       -2.1689890    -1.3232540     0.0000440
  H        0.2925140     2.2768143    -0.1499730
  H        0.2925210    -2.2768120    -0.0000490
units angstrom
no_reorient  #important for SAPT in psi4, default
symmetry c1  #important for SAPT in psi4, default
}

set PROPERTIES_ORIGIN ["COM"]
properties('MP2/aug-cc-pvtz', properties = ['dipole'])
--------------------------------------------------------------------------

    Molecular point group: c1
  Charge       = 0
  Multiplicity = 1
  Basis Set: AUG-CC-PVTZ
    Blend: AUG-CC-PVTZ
  Basis Set: (AUG-CC-PVTZ AUX)
    Blend: AUG-CC-PVTZ-JKFIT

    Orbital Energies [Eh]
    ---------------------

    Doubly Occupied:

       1A    -91.986175     2A    -11.264814     3A    -11.264409
       4A    -11.241579     5A    -11.240513     6A     -8.986532
       7A     -6.667520     8A     -6.667021     9A     -6.666316
      10A     -1.170511    11A     -0.986293    12A     -0.980866
      13A     -0.765353    14A     -0.750067    15A     -0.695947
      16A     -0.573292    17A     -0.552226    18A     -0.529345
      19A     -0.520795    20A     -0.475824    21A     -0.347178
      22A     -0.326030

  @DF-RHF Final Energy:  -551.37857870522248

   => Energetics <=

    Nuclear Repulsion Energy =            202.4327601608037241
    One-Electron Energy =               -1158.3054617841489744
    Two-Electron Energy =                 404.4941229181227982
    Total Energy =                       -551.3785787052224805
  Basis Set: (AUG-CC-PVTZ AUX)
    Blend: AUG-CC-PVTZ-RI
    Molecular point group: c1

    Geometry (in Angstrom), charge = 0, multiplicity = 1:

       Center              X                  Y                   Z               Mass
    ------------   -----------------  -----------------  -----------------  -----------------
         S            1.147582982765    -0.000000039592     0.001752417954    31.972071174400
         C           -1.317941017235     0.710014960408     0.001877417954    12.000000000000
         C           -1.317942017235    -0.710015039592     0.001829417954    12.000000000000
         C           -0.045858017235     1.235283960408     0.001822417954    12.000000000000
         C           -0.045859017235    -1.235284039592     0.001781417954    12.000000000000
         H           -2.212918017235     1.323254960408     0.001933417954     1.007825032230
         H           -2.212919017235    -1.323254039592     0.001845417954     1.007825032230
         H            0.248583982765     2.276814260408    -0.148171582046     1.007825032230
         H            0.248590982765    -2.276812039592     0.001752417954     1.007825032230

  Basis Set: AUG-CC-PVTZ
    Blend: AUG-CC-PVTZ
  Basis Set: (AUG-CC-PVTZ AUX)
    Blend: AUG-CC-PVTZ-JKFIT
	 Reference Energy          =    -551.3785787052224805 [Eh]
	 Singles Energy            =      -0.0000000000000000 [Eh]
	 Same-Spin Energy          =      -0.2315869141896323 [Eh]
	 Opposite-Spin Energy      =      -0.7098623681392925 [Eh]
	 Correlation Energy        =      -0.9414492823289248 [Eh]
	 Total Energy              =    -552.3200279875513843 [Eh]

	 ================> DF-SCS-MP2 Energies <==================
	-----------------------------------------------------------
	 SCS Same-Spin Scale       =       0.3333333333333333 [-]
	 SCS Opposite-Spin Scale   =       1.2000000000000000 [-]
	 SCS Same-Spin Energy      =      -0.0771956380632108 [Eh]
	 SCS Opposite-Spin Energy  =      -0.8518348417671510 [Eh]
	 SCS Correlation Energy    =      -0.9290304798303617 [Eh]
	 SCS Total Energy          =    -552.3076091850527973 [Eh]
	-----------------------------------------------------------

  Dipole Moment: [D]
     X:    -0.4448      Y:    -0.0172      Z:    -0.1253     Total:     0.4625

*** Psi4 exiting successfully. Buy a developer a beer!
