                               Psi4 1.3.2 release

  ==> Input File <==

--------------------------------------------------------------------------
#psi4
#
memory 32 gb

molecule  {
0 1
  O        0.3230460    -2.1253490     1.5079080
  N       -0.6306448     1.5253368     0.6380153
  C       -1.5101070     0.5270120     0.0739100
  C       -1.1120170    -0.8273510     0.1383580
  C        0.2324970    -1.2445130     0.6442670
  C       -2.7501440     0.8314100    -0.5084570
  C       -1.9788880    -1.8396620    -0.2859000
  C        1.4532580    -0.6371760     0.0400320
  C       -0.8389350     2.8684560     0.1240380
  C       -0.4489260     1.4615960     2.0415610
  C       -3.5841120    -0.1847810    -0.9811260
  C       -3.2098970    -1.5236550    -0.8600480
  C        1.4176430     0.0124460    -1.2019210
  C        2.6723110    -0.7931220     0.7125120
  C        2.5954110     0.5075660    -1.7582080
  C        3.8444690    -0.2807100     0.1592420
  C        3.8091760     0.3684650    -1.0779380
  H       -3.0858280     1.8625520    -0.5683870
  H       -1.6562960    -2.8740610    -0.1894870
  H       -1.7397670     3.3469090     0.5447380
  H       -0.9091950     2.8760430    -0.9660740
  H        0.0285190     3.4658540     0.4190740
  H       -0.3000960     0.4345950     2.3759160
  H       -1.3175180     1.8790800     2.5775500
  H        0.4394970     2.0433230     2.3053650
  H       -4.5402610     0.0757380    -1.4297920
  H       -3.8695260    -2.3131570    -1.2108590
  H        0.4733260     0.1189110    -1.7296950
  H        2.6795660    -1.3181790     1.6641980
  H        2.5695640     1.0040610    -2.7255190
  H        4.7881850    -0.3931870     0.6878940
  H        4.7248240     0.7628080    -1.5127390
units angstrom
no_reorient  #important for SAPT in psi4, default
symmetry c1  #important for SAPT in psi4, default
}

set PROPERTIES_ORIGIN ["COM"]
properties('MP2/aug-cc-pvtz', properties = ['dipole'])
--------------------------------------------------------------------------

    Molecular point group: c1
  Charge       = 0
  Multiplicity = 1
  Basis Set: AUG-CC-PVTZ
    Blend: AUG-CC-PVTZ
  Basis Set: (AUG-CC-PVTZ AUX)
    Blend: AUG-CC-PVTZ-JKFIT

    Orbital Energies [Eh]
    ---------------------

    Doubly Occupied:

       1A    -20.541291     2A    -15.566254     3A    -11.336817
       4A    -11.288994     5A    -11.256879     6A    -11.250205
       7A    -11.249664     8A    -11.248856     9A    -11.248448
      10A    -11.247766    11A    -11.244925    12A    -11.244318
      13A    -11.243140    14A    -11.241198    15A    -11.240595
      16A    -11.239660    17A    -11.237902    18A     -1.371873
      19A     -1.258626    20A     -1.159400    21A     -1.150451
      22A     -1.053475    23A     -1.025012    24A     -1.020706
      25A     -1.016801    26A     -0.968139    27A     -0.899997
      28A     -0.879602    29A     -0.839697    30A     -0.825009
      31A     -0.801990    32A     -0.762778    33A     -0.719233
      34A     -0.694093    35A     -0.666660    36A     -0.663313
      37A     -0.641270    38A     -0.638251    39A     -0.635796
      40A     -0.616593    41A     -0.612682    42A     -0.597346
      43A     -0.595747    44A     -0.591812    45A     -0.555264
      46A     -0.548115    47A     -0.543192    48A     -0.527336
      49A     -0.521976    50A     -0.517768    51A     -0.508141
      52A     -0.501351    53A     -0.496155    54A     -0.482004
      55A     -0.422514    56A     -0.398105    57A     -0.346187
      58A     -0.340749    59A     -0.340469    60A     -0.312929

  @DF-RHF Final Energy:  -706.28536977737667

   => Energetics <=

    Nuclear Repulsion Energy =           1159.9629416452530677
    One-Electron Energy =               -3262.5055834407598923
    Two-Electron Energy =                1396.2572720181301520
    Total Energy =                       -706.2853697773766726
  Basis Set: (AUG-CC-PVTZ AUX)
    Blend: AUG-CC-PVTZ-RI
    Molecular point group: c1

    Geometry (in Angstrom), charge = 0, multiplicity = 1:

       Center              X                  Y                   Z               Mass
    ------------   -----------------  -----------------  -----------------  -----------------
         O            0.315456249683    -2.078144496460     1.506037948760    15.994914619570
         N           -0.638234550317     1.572541303540     0.636145248760    14.003074004430
         C           -1.517696750317     0.574216503540     0.072039948760    12.000000000000
         C           -1.119606750317    -0.780146496460     0.136487948760    12.000000000000
         C            0.224907249683    -1.197308496460     0.642396948760    12.000000000000
         C           -2.757733750317     0.878614503540    -0.510327051240    12.000000000000
         C           -1.986477750317    -1.792457496460    -0.287770051240    12.000000000000
         C            1.445668249683    -0.589971496460     0.038161948760    12.000000000000
         C           -0.846524750317     2.915660503540     0.122167948760    12.000000000000
         C           -0.456515750317     1.508800503540     2.039690948760    12.000000000000
         C           -3.591701750317    -0.137576496460    -0.982996051240    12.000000000000
         C           -3.217486750317    -1.476450496460    -0.861918051240    12.000000000000
         C            1.410053249683     0.059650503540    -1.203791051240    12.000000000000
         C            2.664721249683    -0.745917496460     0.710641948760    12.000000000000
         C            2.587821249683     0.554770503540    -1.760078051240    12.000000000000
         C            3.836879249683    -0.233505496460     0.157371948760    12.000000000000
         C            3.801586249683     0.415669503540    -1.079808051240    12.000000000000
         H           -3.093417750317     1.909756503540    -0.570257051240     1.007825032230
         H           -1.663885750317    -2.826856496460    -0.191357051240     1.007825032230
         H           -1.747356750317     3.394113503540     0.542867948760     1.007825032230
         H           -0.916784750317     2.923247503540    -0.967944051240     1.007825032230
         H            0.020929249683     3.513058503540     0.417203948760     1.007825032230
         H           -0.307685750317     0.481799503540     2.374045948760     1.007825032230
         H           -1.325107750317     1.926284503540     2.575679948760     1.007825032230
         H            0.431907249683     2.090527503540     2.303494948760     1.007825032230
         H           -4.547850750317     0.122942503540    -1.431662051240     1.007825032230
         H           -3.877115750317    -2.265952496460    -1.212729051240     1.007825032230
         H            0.465736249683     0.166115503540    -1.731565051240     1.007825032230
         H            2.671976249683    -1.270974496460     1.662327948760     1.007825032230
         H            2.561974249683     1.051265503540    -2.727389051240     1.007825032230
         H            4.780595249683    -0.345982496460     0.686023948760     1.007825032230
         H            4.717234249683     0.810012503540    -1.514609051240     1.007825032230

  Basis Set: AUG-CC-PVTZ
    Blend: AUG-CC-PVTZ
  Basis Set: (AUG-CC-PVTZ AUX)
    Blend: AUG-CC-PVTZ-JKFIT
	 Reference Energy          =    -706.2853697773766726 [Eh]
	 Singles Energy            =      -0.0000000000000000 [Eh]
	 Same-Spin Energy          =      -0.7792298758544913 [Eh]
	 Opposite-Spin Energy      =      -2.4268113305915016 [Eh]
	 Correlation Energy        =      -3.2060412064459927 [Eh]
	 Total Energy              =    -709.4914109838226750 [Eh]

	 ================> DF-SCS-MP2 Energies <==================
	-----------------------------------------------------------
	 SCS Same-Spin Scale       =       0.3333333333333333 [-]
	 SCS Opposite-Spin Scale   =       1.2000000000000000 [-]
	 SCS Same-Spin Energy      =      -0.2597432919514971 [Eh]
	 SCS Opposite-Spin Energy  =      -2.9121735967098017 [Eh]
	 SCS Correlation Energy    =      -3.1719168886612987 [Eh]
	 SCS Total Energy          =    -709.4572866660379304 [Eh]
	-----------------------------------------------------------

  Dipole Moment: [D]
     X:    -0.2610      Y:     2.9822      Z:    -1.6262     Total:     3.4068

*** Psi4 exiting successfully. Buy a developer a beer!
