                               Psi4 1.3.2 release

  ==> Input File <==

--------------------------------------------------------------------------
#psi4
#
memory 32 gb

molecule  {
0 1
  O        0.3230460    -2.1253490     1.5079080
  N       -0.6313980     1.5079470     0.5903750
  C       -1.4865367     0.4929747     0.1008159
  C       -1.1120170    -0.8273510     0.1383580
  C        0.2324970    -1.2445130     0.6442670
  C       -2.7501440     0.8314100    -0.5084570
  C       -1.9788880    -1.8396620    -0.2859000
  C        1.4532580    -0.6371760     0.0400320
  C       -0.8389350     2.8684560     0.1240380
  C       -0.4489260     1.4615960     2.0415610
  C       -3.5841120    -0.1847810    -0.9811260
  C       -3.2098970    -1.5236550    -0.8600480
  C        1.4176430     0.0124460    -1.2019210
  C        2.6723110    -0.7931220     0.7125120
  C        2.5954110     0.5075660    -1.7582080
  C        3.8444690    -0.2807100     0.1592420
  C        3.8091760     0.3684650    -1.0779380
  H       -3.0858280     1.8625520    -0.5683870
  H       -1.6562960    -2.8740610    -0.1894870
  H       -1.7397670     3.3469090     0.5447380
  H       -0.9091950     2.8760430    -0.9660740
  H        0.0285190     3.4658540     0.4190740
  H       -0.3000960     0.4345950     2.3759160
  H       -1.3175180     1.8790800     2.5775500
  H        0.4394970     2.0433230     2.3053650
  H       -4.5402610     0.0757380    -1.4297920
  H       -3.8695260    -2.3131570    -1.2108590
  H        0.4733260     0.1189110    -1.7296950
  H        2.6795660    -1.3181790     1.6641980
  H        2.5695640     1.0040610    -2.7255190
  H        4.7881850    -0.3931870     0.6878940
  H        4.7248240     0.7628080    -1.5127390
units angstrom
no_reorient  #important for SAPT in psi4, default
symmetry c1  #important for SAPT in psi4, default
}

set PROPERTIES_ORIGIN ["COM"]
properties('MP2/aug-cc-pvtz', properties = ['dipole'])
--------------------------------------------------------------------------

    Molecular point group: c1
  Charge       = 0
  Multiplicity = 1
  Basis Set: AUG-CC-PVTZ
    Blend: AUG-CC-PVTZ
  Basis Set: (AUG-CC-PVTZ AUX)
    Blend: AUG-CC-PVTZ-JKFIT

    Orbital Energies [Eh]
    ---------------------

    Doubly Occupied:

       1A    -20.541178     2A    -15.568350     3A    -11.336061
       4A    -11.287002     5A    -11.258416     6A    -11.253818
       7A    -11.248477     8A    -11.248296     9A    -11.247960
      10A    -11.247584    11A    -11.244067    12A    -11.242901
      13A    -11.242831    14A    -11.240338    15A    -11.239581
      16A    -11.239446    17A    -11.236067    18A     -1.371787
      19A     -1.258505    20A     -1.159103    21A     -1.148661
      22A     -1.054991    23A     -1.024870    24A     -1.019417
      25A     -1.013616    26A     -0.964458    27A     -0.902945
      28A     -0.881453    29A     -0.838890    30A     -0.825311
      31A     -0.804682    32A     -0.761187    33A     -0.718549
      34A     -0.692706    35A     -0.665330    36A     -0.663890
      37A     -0.640780    38A     -0.638486    39A     -0.634348
      40A     -0.615574    41A     -0.611658    42A     -0.596903
      43A     -0.593752    44A     -0.589257    45A     -0.556251
      46A     -0.549801    47A     -0.545025    48A     -0.523480
      49A     -0.520480    50A     -0.517518    51A     -0.507704
      52A     -0.503494    53A     -0.496488    54A     -0.483138
      55A     -0.422908    56A     -0.401979    57A     -0.346134
      58A     -0.340375    59A     -0.339101    60A     -0.311087

  @DF-RHF Final Energy:  -706.28481887039618

   => Energetics <=

    Nuclear Repulsion Energy =           1160.7120229154202207
    One-Electron Energy =               -3264.0367975729873251
    Two-Electron Energy =                1397.0399557871710385
    Total Energy =                       -706.2848188703960659
  Basis Set: (AUG-CC-PVTZ AUX)
    Blend: AUG-CC-PVTZ-RI
    Molecular point group: c1

    Geometry (in Angstrom), charge = 0, multiplicity = 1:

       Center              X                  Y                   Z               Mass
    ------------   -----------------  -----------------  -----------------  -----------------
         O            0.314246663275    -2.075248389129     1.507567119582    15.994914619570
         N           -0.640197336725     1.558047610871     0.590034119582    14.003074004430
         C           -1.495336036725     0.543075310871     0.100475019582    12.000000000000
         C           -1.120816336725    -0.777250389129     0.138017119582    12.000000000000
         C            0.223697663275    -1.194412389129     0.643926119582    12.000000000000
         C           -2.758943336725     0.881510610871    -0.508797880418    12.000000000000
         C           -1.987687336725    -1.789561389129    -0.286240880418    12.000000000000
         C            1.444458663275    -0.587075389129     0.039691119582    12.000000000000
         C           -0.847734336725     2.918556610871     0.123697119582    12.000000000000
         C           -0.457725336725     1.511696610871     2.041220119582    12.000000000000
         C           -3.592911336725    -0.134680389129    -0.981466880418    12.000000000000
         C           -3.218696336725    -1.473554389129    -0.860388880418    12.000000000000
         C            1.408843663275     0.062546610871    -1.202261880418    12.000000000000
         C            2.663511663275    -0.743021389129     0.712171119582    12.000000000000
         C            2.586611663275     0.557666610871    -1.758548880418    12.000000000000
         C            3.835669663275    -0.230609389129     0.158901119582    12.000000000000
         C            3.800376663275     0.418565610871    -1.078278880418    12.000000000000
         H           -3.094627336725     1.912652610871    -0.568727880418     1.007825032230
         H           -1.665095336725    -2.823960389129    -0.189827880418     1.007825032230
         H           -1.748566336725     3.397009610871     0.544397119582     1.007825032230
         H           -0.917994336725     2.926143610871    -0.966414880418     1.007825032230
         H            0.019719663275     3.515954610871     0.418733119582     1.007825032230
         H           -0.308895336725     0.484695610871     2.375575119582     1.007825032230
         H           -1.326317336725     1.929180610871     2.577209119582     1.007825032230
         H            0.430697663275     2.093423610871     2.305024119582     1.007825032230
         H           -4.549060336725     0.125838610871    -1.430132880418     1.007825032230
         H           -3.878325336725    -2.263056389129    -1.211199880418     1.007825032230
         H            0.464526663275     0.169011610871    -1.730035880418     1.007825032230
         H            2.670766663275    -1.268078389129     1.663857119582     1.007825032230
         H            2.560764663275     1.054161610871    -2.725859880418     1.007825032230
         H            4.779385663275    -0.343086389129     0.687553119582     1.007825032230
         H            4.716024663275     0.812908610871    -1.513079880418     1.007825032230

  Basis Set: AUG-CC-PVTZ
    Blend: AUG-CC-PVTZ
  Basis Set: (AUG-CC-PVTZ AUX)
    Blend: AUG-CC-PVTZ-JKFIT
	 Reference Energy          =    -706.2848188703961796 [Eh]
	 Singles Energy            =      -0.0000000000000000 [Eh]
	 Same-Spin Energy          =      -0.7792121928026043 [Eh]
	 Opposite-Spin Energy      =      -2.4271109430905087 [Eh]
	 Correlation Energy        =      -3.2063231358931130 [Eh]
	 Total Energy              =    -709.4911420062892375 [Eh]

	 ================> DF-SCS-MP2 Energies <==================
	-----------------------------------------------------------
	 SCS Same-Spin Scale       =       0.3333333333333333 [-]
	 SCS Opposite-Spin Scale   =       1.2000000000000000 [-]
	 SCS Same-Spin Energy      =      -0.2597373976008681 [Eh]
	 SCS Opposite-Spin Energy  =      -2.9125331317086105 [Eh]
	 SCS Correlation Energy    =      -3.1722705293094786 [Eh]
	 SCS Total Energy          =    -709.4570893997056373 [Eh]
	-----------------------------------------------------------

  Dipole Moment: [D]
     X:    -0.1998      Y:     3.1140      Z:    -1.4748     Total:     3.4514

*** Psi4 exiting successfully. Buy a developer a beer!
