                               Psi4 1.4a3.dev225

  ==> Input File <==

--------------------------------------------------------------------------
#psi4
#
memory 32 gb

molecule  {
0 1
  O        0.3230460    -2.1253490     1.5079080
  N       -0.6313980     1.5079470     0.5903750
  C       -1.5225304     0.5131433     0.0666081
  C       -1.1120170    -0.8273510     0.1383580
  C        0.2324970    -1.2445130     0.6442670
  C       -2.7501440     0.8314100    -0.5084570
  C       -1.9788880    -1.8396620    -0.2859000
  C        1.4532580    -0.6371760     0.0400320
  C       -0.8389350     2.8684560     0.1240380
  C       -0.4489260     1.4615960     2.0415610
  C       -3.5841120    -0.1847810    -0.9811260
  C       -3.2098970    -1.5236550    -0.8600480
  C        1.4176430     0.0124460    -1.2019210
  C        2.6723110    -0.7931220     0.7125120
  C        2.5954110     0.5075660    -1.7582080
  C        3.8444690    -0.2807100     0.1592420
  C        3.8091760     0.3684650    -1.0779380
  H       -3.0858280     1.8625520    -0.5683870
  H       -1.6562960    -2.8740610    -0.1894870
  H       -1.7397670     3.3469090     0.5447380
  H       -0.9091950     2.8760430    -0.9660740
  H        0.0285190     3.4658540     0.4190740
  H       -0.3000960     0.4345950     2.3759160
  H       -1.3175180     1.8790800     2.5775500
  H        0.4394970     2.0433230     2.3053650
  H       -4.5402610     0.0757380    -1.4297920
  H       -3.8695260    -2.3131570    -1.2108590
  H        0.4733260     0.1189110    -1.7296950
  H        2.6795660    -1.3181790     1.6641980
  H        2.5695640     1.0040610    -2.7255190
  H        4.7881850    -0.3931870     0.6878940
  H        4.7248240     0.7628080    -1.5127390
units angstrom
no_reorient  #important for SAPT in psi4, default
symmetry c1  #important for SAPT in psi4, default
}

set PROPERTIES_ORIGIN ["COM"]
properties('MP2/aug-cc-pvtz', properties = ['dipole'])
--------------------------------------------------------------------------

    Molecular point group: c1
  Charge       = 0
  Multiplicity = 1
  Basis Set: AUG-CC-PVTZ
    Blend: AUG-CC-PVTZ
  Basis Set: (AUG-CC-PVTZ AUX)
    Blend: AUG-CC-PVTZ-JKFIT

    Orbital Energies [Eh]
    ---------------------

    Doubly Occupied:

       1A    -20.541373     2A    -15.567289     3A    -11.337064
       4A    -11.285588     5A    -11.256005     6A    -11.253233
       7A    -11.249835     8A    -11.248550     9A    -11.248012
      10A    -11.247323    11A    -11.243855    12A    -11.243316
      13A    -11.242688    14A    -11.240045    15A    -11.239173
      16A    -11.239085    17A    -11.237100    18A     -1.371922
      19A     -1.253336    20A     -1.158763    21A     -1.150041
      22A     -1.053574    23A     -1.024965    24A     -1.020230
      25A     -1.016743    26A     -0.962770    27A     -0.901164
      28A     -0.881340    29A     -0.839696    30A     -0.825148
      31A     -0.802207    32A     -0.762878    33A     -0.718634
      34A     -0.693137    35A     -0.665883    36A     -0.661532
      37A     -0.640210    38A     -0.636383    39A     -0.633587
      40A     -0.616740    41A     -0.612207    42A     -0.597926
      43A     -0.593665    44A     -0.588867    45A     -0.555376
      46A     -0.549070    47A     -0.544450    48A     -0.523099
      49A     -0.520576    50A     -0.517573    51A     -0.507688
      52A     -0.501932    53A     -0.496040    54A     -0.482555
      55A     -0.423154    56A     -0.401720    57A     -0.346198
      58A     -0.340436    59A     -0.340086    60A     -0.313423

  @DF-RHF Final Energy:  -706.28727055677280

   => Energetics <=

    Nuclear Repulsion Energy =           1160.2764655320549991
    One-Electron Energy =               -3263.1945518909460588
    Two-Electron Energy =                1396.6308158021181498
    Total Energy =                       -706.2872705567726825
  Basis Set: (AUG-CC-PVTZ AUX)
    Blend: AUG-CC-PVTZ-RI
    Molecular point group: c1

    Geometry (in Angstrom), charge = 0, multiplicity = 1:

       Center              X                  Y                   Z               Mass
    ------------   -----------------  -----------------  -----------------  -----------------
         O            0.316165343511    -2.076323496557     1.509390600630    15.994914619570
         N           -0.638278656489     1.556972503443     0.591857600630    14.003074004430
         C           -1.529411056489     0.562168803443     0.068090700630    12.000000000000
         C           -1.118897656489    -0.778325496557     0.139840600630    12.000000000000
         C            0.225616343511    -1.195487496557     0.645749600630    12.000000000000
         C           -2.757024656489     0.880435503443    -0.506974399370    12.000000000000
         C           -1.985768656489    -1.790636496557    -0.284417399370    12.000000000000
         C            1.446377343511    -0.588150496557     0.041514600630    12.000000000000
         C           -0.845815656489     2.917481503443     0.125520600630    12.000000000000
         C           -0.455806656489     1.510621503443     2.043043600630    12.000000000000
         C           -3.590992656489    -0.135755496557    -0.979643399370    12.000000000000
         C           -3.216777656489    -1.474629496557    -0.858565399370    12.000000000000
         C            1.410762343511     0.061471503443    -1.200438399370    12.000000000000
         C            2.665430343511    -0.744096496557     0.713994600630    12.000000000000
         C            2.588530343511     0.556591503443    -1.756725399370    12.000000000000
         C            3.837588343511    -0.231684496557     0.160724600630    12.000000000000
         C            3.802295343511     0.417490503443    -1.076455399370    12.000000000000
         H           -3.092708656489     1.911577503443    -0.566904399370     1.007825032230
         H           -1.663176656489    -2.825035496557    -0.188004399370     1.007825032230
         H           -1.746647656489     3.395934503443     0.546220600630     1.007825032230
         H           -0.916075656489     2.925068503443    -0.964591399370     1.007825032230
         H            0.021638343511     3.514879503443     0.420556600630     1.007825032230
         H           -0.306976656489     0.483620503443     2.377398600630     1.007825032230
         H           -1.324398656489     1.928105503443     2.579032600630     1.007825032230
         H            0.432616343511     2.092348503443     2.306847600630     1.007825032230
         H           -4.547141656489     0.124763503443    -1.428309399370     1.007825032230
         H           -3.876406656489    -2.264131496557    -1.209376399370     1.007825032230
         H            0.466445343511     0.167936503443    -1.728212399370     1.007825032230
         H            2.672685343511    -1.269153496557     1.665680600630     1.007825032230
         H            2.562683343511     1.053086503443    -2.724036399370     1.007825032230
         H            4.781304343511    -0.344161496557     0.689376600630     1.007825032230
         H            4.717943343511     0.811833503443    -1.511256399370     1.007825032230

  Basis Set: AUG-CC-PVTZ
    Blend: AUG-CC-PVTZ
  Basis Set: (AUG-CC-PVTZ AUX)
    Blend: AUG-CC-PVTZ-JKFIT
	 Reference Energy          =    -706.2872705567727962 [Eh]
	 Singles Energy            =      -0.0000000000000000 [Eh]
	 Same-Spin Energy          =      -0.7791003851496956 [Eh]
	 Opposite-Spin Energy      =      -2.4269085022500989 [Eh]
	 Correlation Energy        =      -3.2060088873997943 [Eh]
	 Total Energy              =    -709.4932794441725719 [Eh]

	 ================> DF-SCS-MP2 Energies <==================
	-----------------------------------------------------------
	 SCS Same-Spin Scale       =       0.3333333333333333 [-]
	 SCS Opposite-Spin Scale   =       1.2000000000000000 [-]
	 SCS Same-Spin Energy      =      -0.2597001283832319 [Eh]
	 SCS Opposite-Spin Energy  =      -2.9122902027001185 [Eh]
	 SCS Correlation Energy    =      -3.1719903310833502 [Eh]
	 SCS Total Energy          =    -709.4592608878560895 [Eh]
	-----------------------------------------------------------

  Dipole Moment: [D]
     X:    -0.2904      Y:     3.0275      Z:    -1.5058     Total:     3.3938

*** Psi4 exiting successfully. Buy a developer a beer!
