                               Psi4 1.3.2 release

  ==> Input File <==

--------------------------------------------------------------------------
#psi4
#
memory 32 gb

molecule  {
0 1
  O        0.3230460    -2.1253490     1.5079080
  N       -0.6313980     1.5079470     0.5903750
  C       -1.5101070     0.5270120     0.0739100
  C       -1.1120170    -0.8273510     0.1383580
  C        0.2324970    -1.2445130     0.6442670
  C       -2.7501440     0.8314100    -0.5084570
  C       -1.9788880    -1.8396620    -0.2859000
  C        1.4532580    -0.6371760     0.0400320
  C       -0.8259726     2.9117150     0.2692790
  C       -0.4489260     1.4615960     2.0415610
  C       -3.5841120    -0.1847810    -0.9811260
  C       -3.2098970    -1.5236550    -0.8600480
  C        1.4176430     0.0124460    -1.2019210
  C        2.6723110    -0.7931220     0.7125120
  C        2.5954110     0.5075660    -1.7582080
  C        3.8444690    -0.2807100     0.1592420
  C        3.8091760     0.3684650    -1.0779380
  H       -3.0858280     1.8625520    -0.5683870
  H       -1.6562960    -2.8740610    -0.1894870
  H       -1.7397670     3.3469090     0.5447380
  H       -0.9091950     2.8760430    -0.9660740
  H        0.0285190     3.4658540     0.4190740
  H       -0.3000960     0.4345950     2.3759160
  H       -1.3175180     1.8790800     2.5775500
  H        0.4394970     2.0433230     2.3053650
  H       -4.5402610     0.0757380    -1.4297920
  H       -3.8695260    -2.3131570    -1.2108590
  H        0.4733260     0.1189110    -1.7296950
  H        2.6795660    -1.3181790     1.6641980
  H        2.5695640     1.0040610    -2.7255190
  H        4.7881850    -0.3931870     0.6878940
  H        4.7248240     0.7628080    -1.5127390
units angstrom
no_reorient  #important for SAPT in psi4, default
symmetry c1  #important for SAPT in psi4, default
}

set PROPERTIES_ORIGIN ["COM"]
properties('MP2/aug-cc-pvtz', properties = ['dipole'])
--------------------------------------------------------------------------

    Molecular point group: c1
  Charge       = 0
  Multiplicity = 1
  Basis Set: AUG-CC-PVTZ
    Blend: AUG-CC-PVTZ
  Basis Set: (AUG-CC-PVTZ AUX)
    Blend: AUG-CC-PVTZ-JKFIT

    Orbital Energies [Eh]
    ---------------------

    Doubly Occupied:

       1A    -20.540932     2A    -15.570687     3A    -11.336486
       4A    -11.289435     5A    -11.260635     6A    -11.252990
       7A    -11.249742     8A    -11.248733     9A    -11.247950
      10A    -11.247066    11A    -11.244586    12A    -11.243725
      13A    -11.242557    14A    -11.240352    15A    -11.239822
      16A    -11.239087    17A    -11.236941    18A     -1.371532
      19A     -1.260565    20A     -1.158742    21A     -1.149532
      22A     -1.053319    23A     -1.024365    24A     -1.020645
      25A     -1.017740    26A     -0.959773    27A     -0.906844
      28A     -0.883448    29A     -0.839303    30A     -0.824740
      31A     -0.803669    32A     -0.762233    33A     -0.719252
      34A     -0.694054    35A     -0.669251    36A     -0.666719
      37A     -0.641127    38A     -0.639569    39A     -0.632238
      40A     -0.615398    41A     -0.613243    42A     -0.596967
      43A     -0.594650    44A     -0.590033    45A     -0.570925
      46A     -0.555386    47A     -0.546115    48A     -0.523086
      49A     -0.517479    50A     -0.507979    51A     -0.504841
      52A     -0.496252    53A     -0.486346    54A     -0.472599
      55A     -0.423613    56A     -0.406972    57A     -0.345842
      58A     -0.340197    59A     -0.339975    60A     -0.313115

  @DF-RHF Final Energy:  -706.26422335952202

   => Energetics <=

    Nuclear Repulsion Energy =           1159.7937196159041378
    One-Electron Energy =               -3262.1330897644602373
    Two-Electron Energy =                1396.0751467890340791
    Total Energy =                       -706.2642233595220205
  Basis Set: (AUG-CC-PVTZ AUX)
    Blend: AUG-CC-PVTZ-RI
    Molecular point group: c1

    Geometry (in Angstrom), charge = 0, multiplicity = 1:

       Center              X                  Y                   Z               Mass
    ------------   -----------------  -----------------  -----------------  -----------------
         O            0.314812128011    -2.079368745835     1.501259148531    15.994914619570
         N           -0.639631871989     1.553927254165     0.583726148531    14.003074004430
         C           -1.518340871989     0.572992254165     0.067261148531    12.000000000000
         C           -1.120250871989    -0.781370745835     0.131709148531    12.000000000000
         C            0.224263128011    -1.198532745835     0.637618148531    12.000000000000
         C           -2.758377871989     0.877390254165    -0.515105851469    12.000000000000
         C           -1.987121871989    -1.793681745835    -0.292548851469    12.000000000000
         C            1.445024128011    -0.591195745835     0.033383148531    12.000000000000
         C           -0.834206471989     2.957695254165     0.262630148531    12.000000000000
         C           -0.457159871989     1.507576254165     2.034912148531    12.000000000000
         C           -3.592345871989    -0.138800745835    -0.987774851469    12.000000000000
         C           -3.218130871989    -1.477674745835    -0.866696851469    12.000000000000
         C            1.409409128011     0.058426254165    -1.208569851469    12.000000000000
         C            2.664077128011    -0.747141745835     0.705863148531    12.000000000000
         C            2.587177128011     0.553546254165    -1.764856851469    12.000000000000
         C            3.836235128011    -0.234729745835     0.152593148531    12.000000000000
         C            3.800942128011     0.414445254165    -1.084586851469    12.000000000000
         H           -3.094061871989     1.908532254165    -0.575035851469     1.007825032230
         H           -1.664529871989    -2.828080745835    -0.196135851469     1.007825032230
         H           -1.748000871989     3.392889254165     0.538089148531     1.007825032230
         H           -0.917428871989     2.922023254165    -0.972722851469     1.007825032230
         H            0.020285128011     3.511834254165     0.412425148531     1.007825032230
         H           -0.308329871989     0.480575254165     2.369267148531     1.007825032230
         H           -1.325751871989     1.925060254165     2.570901148531     1.007825032230
         H            0.431263128011     2.089303254165     2.298716148531     1.007825032230
         H           -4.548494871989     0.121718254165    -1.436440851469     1.007825032230
         H           -3.877759871989    -2.267176745835    -1.217507851469     1.007825032230
         H            0.465092128011     0.164891254165    -1.736343851469     1.007825032230
         H            2.671332128011    -1.272198745835     1.657549148531     1.007825032230
         H            2.561330128011     1.050041254165    -2.732167851469     1.007825032230
         H            4.779951128011    -0.347206745835     0.681245148531     1.007825032230
         H            4.716590128011     0.808788254165    -1.519387851469     1.007825032230

  Basis Set: AUG-CC-PVTZ
    Blend: AUG-CC-PVTZ
  Basis Set: (AUG-CC-PVTZ AUX)
    Blend: AUG-CC-PVTZ-JKFIT
	 Reference Energy          =    -706.2642233595220205 [Eh]
	 Singles Energy            =      -0.0000000000000000 [Eh]
	 Same-Spin Energy          =      -0.7798238911538760 [Eh]
	 Opposite-Spin Energy      =      -2.4285252555822776 [Eh]
	 Correlation Energy        =      -3.2083491467361536 [Eh]
	 Total Energy              =    -709.4725725062581887 [Eh]

	 ================> DF-SCS-MP2 Energies <==================
	-----------------------------------------------------------
	 SCS Same-Spin Scale       =       0.3333333333333333 [-]
	 SCS Opposite-Spin Scale   =       1.2000000000000000 [-]
	 SCS Same-Spin Energy      =      -0.2599412970512920 [Eh]
	 SCS Opposite-Spin Energy  =      -2.9142303066987330 [Eh]
	 SCS Correlation Energy    =      -3.1741716037500249 [Eh]
	 SCS Total Energy          =    -709.4383949632720032 [Eh]
	-----------------------------------------------------------

  Dipole Moment: [D]
     X:    -0.2881      Y:     3.0994      Z:    -1.3621     Total:     3.3977

*** Psi4 exiting successfully. Buy a developer a beer!
