                               Psi4 1.3.2 release

  ==> Input File <==

--------------------------------------------------------------------------
#psi4
#
memory 32 gb

molecule  {
0 1
  O        0.3230460    -2.1253490     1.5079080
  N       -0.6318695     1.4998724     0.5663381
  C       -1.5101070     0.5270120     0.0739100
  C       -1.1120170    -0.8273510     0.1383580
  C        0.2324970    -1.2445130     0.6442670
  C       -2.7501440     0.8314100    -0.5084570
  C       -1.9788880    -1.8396620    -0.2859000
  C        1.4532580    -0.6371760     0.0400320
  C       -0.8389350     2.8684560     0.1240380
  C       -0.4489260     1.4615960     2.0415610
  C       -3.5841120    -0.1847810    -0.9811260
  C       -3.2098970    -1.5236550    -0.8600480
  C        1.4176430     0.0124460    -1.2019210
  C        2.6723110    -0.7931220     0.7125120
  C        2.5954110     0.5075660    -1.7582080
  C        3.8444690    -0.2807100     0.1592420
  C        3.8091760     0.3684650    -1.0779380
  H       -3.0858280     1.8625520    -0.5683870
  H       -1.6562960    -2.8740610    -0.1894870
  H       -1.7397670     3.3469090     0.5447380
  H       -0.9091950     2.8760430    -0.9660740
  H        0.0285190     3.4658540     0.4190740
  H       -0.3000960     0.4345950     2.3759160
  H       -1.3175180     1.8790800     2.5775500
  H        0.4394970     2.0433230     2.3053650
  H       -4.5402610     0.0757380    -1.4297920
  H       -3.8695260    -2.3131570    -1.2108590
  H        0.4733260     0.1189110    -1.7296950
  H        2.6795660    -1.3181790     1.6641980
  H        2.5695640     1.0040610    -2.7255190
  H        4.7881850    -0.3931870     0.6878940
  H        4.7248240     0.7628080    -1.5127390
units angstrom
no_reorient  #important for SAPT in psi4, default
symmetry c1  #important for SAPT in psi4, default
}

set PROPERTIES_ORIGIN ["COM"]
properties('MP2/aug-cc-pvtz', properties = ['dipole'])
--------------------------------------------------------------------------

    Molecular point group: c1
  Charge       = 0
  Multiplicity = 1
  Basis Set: AUG-CC-PVTZ
    Blend: AUG-CC-PVTZ
  Basis Set: (AUG-CC-PVTZ AUX)
    Blend: AUG-CC-PVTZ-JKFIT

    Orbital Energies [Eh]
    ---------------------

    Doubly Occupied:

       1A    -20.540557     2A    -15.569936     3A    -11.335919
       4A    -11.285914     5A    -11.257493     6A    -11.257120
       7A    -11.248854     8A    -11.247876     9A    -11.247609
      10A    -11.247078    11A    -11.243596    12A    -11.242426
      13A    -11.242366    14A    -11.239892    15A    -11.239038
      16A    -11.238385    17A    -11.235527    18A     -1.371159
      19A     -1.259302    20A     -1.158434    21A     -1.147001
      22A     -1.052567    23A     -1.023846    24A     -1.019408
      25A     -1.015550    26A     -0.962673    27A     -0.905259
      28A     -0.883217    29A     -0.839089    30A     -0.824325
      31A     -0.801075    32A     -0.761679    33A     -0.718105
      34A     -0.693116    35A     -0.665988    36A     -0.662526
      37A     -0.639998    38A     -0.637182    39A     -0.633868
      40A     -0.615958    41A     -0.611525    42A     -0.596306
      43A     -0.593251    44A     -0.587594    45A     -0.557928
      46A     -0.551086    47A     -0.545040    48A     -0.523153
      49A     -0.519971    50A     -0.517067    51A     -0.504491
      52A     -0.503386    53A     -0.495889    54A     -0.482244
      55A     -0.423333    56A     -0.405096    57A     -0.345034
      58A     -0.340038    59A     -0.339848    60A     -0.310454

  @DF-RHF Final Energy:  -706.28652672097257

   => Energetics <=

    Nuclear Repulsion Energy =           1160.4972526125156946
    One-Electron Energy =               -3263.6402678727072271
    Two-Electron Energy =                1396.8564885392188444
    Total Energy =                       -706.2865267209726881
  Basis Set: (AUG-CC-PVTZ AUX)
    Blend: AUG-CC-PVTZ-RI
    Molecular point group: c1

    Geometry (in Angstrom), charge = 0, multiplicity = 1:

       Center              X                  Y                   Z               Mass
    ------------   -----------------  -----------------  -----------------  -----------------
         O            0.315532430911    -2.076560509161     1.510496556639    15.994914619570
         N           -0.639383069089     1.548660890839     0.568926656639    14.003074004430
         C           -1.517620569089     0.575800490839     0.076498556639    12.000000000000
         C           -1.119530569089    -0.778562509161     0.140946556639    12.000000000000
         C            0.224983430911    -1.195724509161     0.646855556639    12.000000000000
         C           -2.757657569089     0.880198490839    -0.505868443361    12.000000000000
         C           -1.986401569089    -1.790873509161    -0.283311443361    12.000000000000
         C            1.445744430911    -0.588387509161     0.042620556639    12.000000000000
         C           -0.846448569089     2.917244490839     0.126626556639    12.000000000000
         C           -0.456439569089     1.510384490839     2.044149556639    12.000000000000
         C           -3.591625569089    -0.135992509161    -0.978537443361    12.000000000000
         C           -3.217410569089    -1.474866509161    -0.857459443361    12.000000000000
         C            1.410129430911     0.061234490839    -1.199332443361    12.000000000000
         C            2.664797430911    -0.744333509161     0.715100556639    12.000000000000
         C            2.587897430911     0.556354490839    -1.755619443361    12.000000000000
         C            3.836955430911    -0.231921509161     0.161830556639    12.000000000000
         C            3.801662430911     0.417253490839    -1.075349443361    12.000000000000
         H           -3.093341569089     1.911340490839    -0.565798443361     1.007825032230
         H           -1.663809569089    -2.825272509161    -0.186898443361     1.007825032230
         H           -1.747280569089     3.395697490839     0.547326556639     1.007825032230
         H           -0.916708569089     2.924831490839    -0.963485443361     1.007825032230
         H            0.021005430911     3.514642490839     0.421662556639     1.007825032230
         H           -0.307609569089     0.483383490839     2.378504556639     1.007825032230
         H           -1.325031569089     1.927868490839     2.580138556639     1.007825032230
         H            0.431983430911     2.092111490839     2.307953556639     1.007825032230
         H           -4.547774569089     0.124526490839    -1.427203443361     1.007825032230
         H           -3.877039569089    -2.264368509161    -1.208270443361     1.007825032230
         H            0.465812430911     0.167699490839    -1.727106443361     1.007825032230
         H            2.672052430911    -1.269390509161     1.666786556639     1.007825032230
         H            2.562050430911     1.052849490839    -2.722930443361     1.007825032230
         H            4.780671430911    -0.344398509161     0.690482556639     1.007825032230
         H            4.717310430911     0.811596490839    -1.510150443361     1.007825032230

  Basis Set: AUG-CC-PVTZ
    Blend: AUG-CC-PVTZ
  Basis Set: (AUG-CC-PVTZ AUX)
    Blend: AUG-CC-PVTZ-JKFIT
	 Reference Energy          =    -706.2865267209725744 [Eh]
	 Singles Energy            =      -0.0000000000000000 [Eh]
	 Same-Spin Energy          =      -0.7794046476222087 [Eh]
	 Opposite-Spin Energy      =      -2.4273700070652593 [Eh]
	 Correlation Energy        =      -3.2067746546874680 [Eh]
	 Total Energy              =    -709.4933013756600531 [Eh]

	 ================> DF-SCS-MP2 Energies <==================
	-----------------------------------------------------------
	 SCS Same-Spin Scale       =       0.3333333333333333 [-]
	 SCS Opposite-Spin Scale   =       1.2000000000000000 [-]
	 SCS Same-Spin Energy      =      -0.2598015492074029 [Eh]
	 SCS Opposite-Spin Energy  =      -2.9128440084783112 [Eh]
	 SCS Correlation Energy    =      -3.1726455576857142 [Eh]
	 SCS Total Energy          =    -709.4591722786583432 [Eh]
	-----------------------------------------------------------

  Dipole Moment: [D]
     X:    -0.2230      Y:     3.1698      Z:    -1.3826     Total:     3.4654

*** Psi4 exiting successfully. Buy a developer a beer!
*** Psi4 exiting successfully. Buy a developer a beer!
