                               Psi4 1.3.2 release

  ==> Input File <==

--------------------------------------------------------------------------
#psi4
#
memory 32 gb

molecule  {
0 1
  O        0.3230460    -2.1253490     1.5079080
  N       -0.6299003     1.5650025     0.7313600
  C       -1.5101070     0.5270120     0.0739100
  C       -1.1120170    -0.8273510     0.1383580
  C        0.2324970    -1.2445130     0.6442670
  C       -2.7501440     0.8314100    -0.5084570
  C       -1.9788880    -1.8396620    -0.2859000
  C        1.4532580    -0.6371760     0.0400320
  C       -0.8389350     2.8684560     0.1240380
  C       -0.4489260     1.4615960     2.0415610
  C       -3.5841120    -0.1847810    -0.9811260
  C       -3.2098970    -1.5236550    -0.8600480
  C        1.4176430     0.0124460    -1.2019210
  C        2.6723110    -0.7931220     0.7125120
  C        2.5954110     0.5075660    -1.7582080
  C        3.8444690    -0.2807100     0.1592420
  C        3.8091760     0.3684650    -1.0779380
  H       -3.0858280     1.8625520    -0.5683870
  H       -1.6562960    -2.8740610    -0.1894870
  H       -1.7397670     3.3469090     0.5447380
  H       -0.9091950     2.8760430    -0.9660740
  H        0.0285190     3.4658540     0.4190740
  H       -0.3000960     0.4345950     2.3759160
  H       -1.3175180     1.8790800     2.5775500
  H        0.4394970     2.0433230     2.3053650
  H       -4.5402610     0.0757380    -1.4297920
  H       -3.8695260    -2.3131570    -1.2108590
  H        0.4733260     0.1189110    -1.7296950
  H        2.6795660    -1.3181790     1.6641980
  H        2.5695640     1.0040610    -2.7255190
  H        4.7881850    -0.3931870     0.6878940
  H        4.7248240     0.7628080    -1.5127390
units angstrom
no_reorient  #important for SAPT in psi4, default
symmetry c1  #important for SAPT in psi4, default
}

set PROPERTIES_ORIGIN ["COM"]
properties('MP2/aug-cc-pvtz', properties = ['dipole'])
--------------------------------------------------------------------------

    Molecular point group: c1
  Charge       = 0
  Multiplicity = 1
  Basis Set: AUG-CC-PVTZ
    Blend: AUG-CC-PVTZ
  Basis Set: (AUG-CC-PVTZ AUX)
    Blend: AUG-CC-PVTZ-JKFIT

    Orbital Energies [Eh]
    ---------------------

    Doubly Occupied:

       1A    -20.542331     2A    -15.561277     3A    -11.338074
       4A    -11.292879     5A    -11.257439     6A    -11.251992
       7A    -11.250643     8A    -11.249383     9A    -11.248880
      10A    -11.248314    11A    -11.245459    12A    -11.244813
      13A    -11.244191    14A    -11.241655    15A    -11.240920
      16A    -11.240604    17A    -11.239981    18A     -1.372883
      19A     -1.264392    20A     -1.161353    21A     -1.154793
      22A     -1.054817    23A     -1.027092    24A     -1.022664
      25A     -1.018470    26A     -0.976617    27A     -0.896879
      28A     -0.870710    29A     -0.840648    30A     -0.826082
      31A     -0.802127    32A     -0.764310    33A     -0.720909
      34A     -0.695616    35A     -0.668333    36A     -0.665268
      37A     -0.643847    38A     -0.641173    39A     -0.638460
      40A     -0.618097    41A     -0.615094    42A     -0.604729
      43A     -0.598785    44A     -0.593956    45A     -0.556949
      46A     -0.549087    47A     -0.538038    48A     -0.535572
      49A     -0.520353    50A     -0.518745    51A     -0.509937
      52A     -0.498467    53A     -0.494305    54A     -0.476615
      55A     -0.422657    56A     -0.386503    57A     -0.347785
      58A     -0.341746    59A     -0.341360    60A     -0.314473

  @DF-RHF Final Energy:  -706.26394631417861

   => Energetics <=

    Nuclear Repulsion Energy =           1159.2223706178840530
    One-Electron Energy =               -3260.8735745778994897
    Two-Electron Energy =                1395.3872576458370531
    Total Energy =                       -706.2639463141786109
  Basis Set: (AUG-CC-PVTZ AUX)
    Blend: AUG-CC-PVTZ-RI
    Molecular point group: c1

    Geometry (in Angstrom), charge = 0, multiplicity = 1:

       Center              X                  Y                   Z               Mass
    ------------   -----------------  -----------------  -----------------  -----------------
         O            0.315409938812    -2.080611861292     1.500231535914    15.994914619570
         N           -0.637536361188     1.609739638708     0.723683535914    14.003074004430
         C           -1.517743061188     0.571749138708     0.066233535914    12.000000000000
         C           -1.119653061188    -0.782613861292     0.130681535914    12.000000000000
         C            0.224860938812    -1.199775861292     0.636590535914    12.000000000000
         C           -2.757780061188     0.876147138708    -0.516133464086    12.000000000000
         C           -1.986524061188    -1.794924861292    -0.293576464086    12.000000000000
         C            1.445621938812    -0.592438861292     0.032355535914    12.000000000000
         C           -0.846571061188     2.913193138708     0.116361535914    12.000000000000
         C           -0.456562061188     1.506333138708     2.033884535914    12.000000000000
         C           -3.591748061188    -0.140043861292    -0.988802464086    12.000000000000
         C           -3.217533061188    -1.478917861292    -0.867724464086    12.000000000000
         C            1.410006938812     0.057183138708    -1.209597464086    12.000000000000
         C            2.664674938812    -0.748384861292     0.704835535914    12.000000000000
         C            2.587774938812     0.552303138708    -1.765884464086    12.000000000000
         C            3.836832938812    -0.235972861292     0.151565535914    12.000000000000
         C            3.801539938812     0.413202138708    -1.085614464086    12.000000000000
         H           -3.093464061188     1.907289138708    -0.576063464086     1.007825032230
         H           -1.663932061188    -2.829323861292    -0.197163464086     1.007825032230
         H           -1.747403061188     3.391646138708     0.537061535914     1.007825032230
         H           -0.916831061188     2.920780138708    -0.973750464086     1.007825032230
         H            0.020882938812     3.510591138708     0.411397535914     1.007825032230
         H           -0.307732061188     0.479332138708     2.368239535914     1.007825032230
         H           -1.325154061188     1.923817138708     2.569873535914     1.007825032230
         H            0.431860938812     2.088060138708     2.297688535914     1.007825032230
         H           -4.547897061188     0.120475138708    -1.437468464086     1.007825032230
         H           -3.877162061188    -2.268419861292    -1.218535464086     1.007825032230
         H            0.465689938812     0.163648138708    -1.737371464086     1.007825032230
         H            2.671929938812    -1.273441861292     1.656521535914     1.007825032230
         H            2.561927938812     1.048798138708    -2.733195464086     1.007825032230
         H            4.780548938812    -0.348449861292     0.680217535914     1.007825032230
         H            4.717187938812     0.807545138708    -1.520415464086     1.007825032230

  Basis Set: AUG-CC-PVTZ
    Blend: AUG-CC-PVTZ
  Basis Set: (AUG-CC-PVTZ AUX)
    Blend: AUG-CC-PVTZ-JKFIT
	 Reference Energy          =    -706.2639463141786109 [Eh]
	 Singles Energy            =      -0.0000000000000000 [Eh]
	 Same-Spin Energy          =      -0.7796857979505100 [Eh]
	 Opposite-Spin Energy      =      -2.4273161026273642 [Eh]
	 Correlation Energy        =      -3.2070019005778740 [Eh]
	 Total Energy              =    -709.4709482147565041 [Eh]

	 ================> DF-SCS-MP2 Energies <==================
	-----------------------------------------------------------
	 SCS Same-Spin Scale       =       0.3333333333333333 [-]
	 SCS Opposite-Spin Scale   =       1.2000000000000000 [-]
	 SCS Same-Spin Energy      =      -0.2598952659835033 [Eh]
	 SCS Opposite-Spin Energy  =      -2.9127793231528369 [Eh]
	 SCS Correlation Energy    =      -3.1726745891363404 [Eh]
	 SCS Total Energy          =    -709.4366209033149744 [Eh]
	-----------------------------------------------------------

  Dipole Moment: [D]
     X:    -0.2909      Y:     2.7181      Z:    -1.9919     Total:     3.3823

*** Psi4 exiting successfully. Buy a developer a beer!
