                               Psi4 1.3.2 release

  ==> Input File <==

--------------------------------------------------------------------------
#psi4
#
memory 32 gb

molecule  {
0 1
  O        0.3230460    -2.1253490     1.5079080
  N       -0.6313980     1.5079470     0.5903750
  C       -1.5101070     0.5270120     0.0739100
  C       -1.1120170    -0.8273510     0.1383580
  C        0.2324970    -1.2445130     0.6442670
  C       -2.7501440     0.8314100    -0.5084570
  C       -1.9788880    -1.8396620    -0.2859000
  C        1.4532580    -0.6371760     0.0400320
  C       -0.8369290     2.8767158     0.1479324
  C       -0.4489260     1.4615960     2.0415610
  C       -3.5841120    -0.1847810    -0.9811260
  C       -3.2098970    -1.5236550    -0.8600480
  C        1.4176430     0.0124460    -1.2019210
  C        2.6723110    -0.7931220     0.7125120
  C        2.5954110     0.5075660    -1.7582080
  C        3.8444690    -0.2807100     0.1592420
  C        3.8091760     0.3684650    -1.0779380
  H       -3.0858280     1.8625520    -0.5683870
  H       -1.6562960    -2.8740610    -0.1894870
  H       -1.7397670     3.3469090     0.5447380
  H       -0.9091950     2.8760430    -0.9660740
  H        0.0285190     3.4658540     0.4190740
  H       -0.3000960     0.4345950     2.3759160
  H       -1.3175180     1.8790800     2.5775500
  H        0.4394970     2.0433230     2.3053650
  H       -4.5402610     0.0757380    -1.4297920
  H       -3.8695260    -2.3131570    -1.2108590
  H        0.4733260     0.1189110    -1.7296950
  H        2.6795660    -1.3181790     1.6641980
  H        2.5695640     1.0040610    -2.7255190
  H        4.7881850    -0.3931870     0.6878940
  H        4.7248240     0.7628080    -1.5127390
units angstrom
no_reorient  #important for SAPT in psi4, default
symmetry c1  #important for SAPT in psi4, default
}

set PROPERTIES_ORIGIN ["COM"]
properties('MP2/aug-cc-pvtz', properties = ['dipole'])
--------------------------------------------------------------------------

    Molecular point group: c1
  Charge       = 0
  Multiplicity = 1
  Basis Set: AUG-CC-PVTZ
    Blend: AUG-CC-PVTZ
  Basis Set: (AUG-CC-PVTZ AUX)
    Blend: AUG-CC-PVTZ-JKFIT

    Orbital Energies [Eh]
    ---------------------

    Doubly Occupied:

       1A    -20.540787     2A    -15.568844     3A    -11.336227
       4A    -11.287308     5A    -11.257199     6A    -11.254206
       7A    -11.249353     8A    -11.248104     9A    -11.248023
      10A    -11.247238    11A    -11.243786    12A    -11.243399
      13A    -11.242621    14A    -11.240055    15A    -11.239471
      16A    -11.239196    17A    -11.236390    18A     -1.371383
      19A     -1.258800    20A     -1.158700    21A     -1.148316
      22A     -1.052899    23A     -1.024199    24A     -1.019851
      25A     -1.016270    26A     -0.963342    27A     -0.903730
      28A     -0.882461    29A     -0.839260    30A     -0.824548
      31A     -0.801612    32A     -0.762021    33A     -0.718460
      34A     -0.693181    35A     -0.666066    36A     -0.663318
      37A     -0.640085    38A     -0.636963    39A     -0.634944
      40A     -0.616083    41A     -0.612123    42A     -0.596672
      43A     -0.593747    44A     -0.589224    45A     -0.557035
      46A     -0.551113    47A     -0.546885    48A     -0.522784
      49A     -0.517752    50A     -0.516358    51A     -0.505847
      52A     -0.503035    53A     -0.495945    54A     -0.482239
      55A     -0.423045    56A     -0.403783    57A     -0.345460
      58A     -0.340228    59A     -0.340035    60A     -0.311642

  @DF-RHF Final Energy:  -706.28665953750885

   => Energetics <=

    Nuclear Repulsion Energy =           1160.2212928715739508
    One-Electron Energy =               -3263.0686034736995680
    Two-Electron Energy =                1396.5606510646166498
    Total Energy =                       -706.2866595375089673
  Basis Set: (AUG-CC-PVTZ AUX)
    Blend: AUG-CC-PVTZ-RI
    Molecular point group: c1

    Geometry (in Angstrom), charge = 0, multiplicity = 1:

       Center              X                  Y                   Z               Mass
    ------------   -----------------  -----------------  -----------------  -----------------
         O            0.315396169889    -2.077503078417     1.507727650607    15.994914619570
         N           -0.639047830111     1.555792921583     0.590194650607    14.003074004430
         C           -1.517756830111     0.574857921583     0.073729650607    12.000000000000
         C           -1.119666830111    -0.779505078417     0.138177650607    12.000000000000
         C            0.224847169889    -1.196667078417     0.644086650607    12.000000000000
         C           -2.757793830111     0.879255921583    -0.508637349393    12.000000000000
         C           -1.986537830111    -1.791816078417    -0.286080349393    12.000000000000
         C            1.445608169889    -0.589330078417     0.039851650607    12.000000000000
         C           -0.844578830111     2.924561721583     0.147752050607    12.000000000000
         C           -0.456575830111     1.509441921583     2.041380650607    12.000000000000
         C           -3.591761830111    -0.136935078417    -0.981306349393    12.000000000000
         C           -3.217546830111    -1.475809078417    -0.860228349393    12.000000000000
         C            1.409993169889     0.060291921583    -1.202101349393    12.000000000000
         C            2.664661169889    -0.745276078417     0.712331650607    12.000000000000
         C            2.587761169889     0.555411921583    -1.758388349393    12.000000000000
         C            3.836819169889    -0.232864078417     0.159061650607    12.000000000000
         C            3.801526169889     0.416310921583    -1.078118349393    12.000000000000
         H           -3.093477830111     1.910397921583    -0.568567349393     1.007825032230
         H           -1.663945830111    -2.826215078417    -0.189667349393     1.007825032230
         H           -1.747416830111     3.394754921583     0.544557650607     1.007825032230
         H           -0.916844830111     2.923888921583    -0.966254349393     1.007825032230
         H            0.020869169889     3.513699921583     0.418893650607     1.007825032230
         H           -0.307745830111     0.482440921583     2.375735650607     1.007825032230
         H           -1.325167830111     1.926925921583     2.577369650607     1.007825032230
         H            0.431847169889     2.091168921583     2.305184650607     1.007825032230
         H           -4.547910830111     0.123583921583    -1.429972349393     1.007825032230
         H           -3.877175830111    -2.265311078417    -1.211039349393     1.007825032230
         H            0.465676169889     0.166756921583    -1.729875349393     1.007825032230
         H            2.671916169889    -1.270333078417     1.664017650607     1.007825032230
         H            2.561914169889     1.051906921583    -2.725699349393     1.007825032230
         H            4.780535169889    -0.345341078417     0.687713650607     1.007825032230
         H            4.717174169889     0.810653921583    -1.512919349393     1.007825032230

  Basis Set: AUG-CC-PVTZ
    Blend: AUG-CC-PVTZ
  Basis Set: (AUG-CC-PVTZ AUX)
    Blend: AUG-CC-PVTZ-JKFIT
	 Reference Energy          =    -706.2866595375088536 [Eh]
	 Singles Energy            =      -0.0000000000000000 [Eh]
	 Same-Spin Energy          =      -0.7793137474834783 [Eh]
	 Opposite-Spin Energy      =      -2.4271562241062252 [Eh]
	 Correlation Energy        =      -3.2064699715897036 [Eh]
	 Total Energy              =    -709.4931295090985941 [Eh]

	 ================> DF-SCS-MP2 Energies <==================
	-----------------------------------------------------------
	 SCS Same-Spin Scale       =       0.3333333333333333 [-]
	 SCS Opposite-Spin Scale   =       1.2000000000000000 [-]
	 SCS Same-Spin Energy      =      -0.2597712491611594 [Eh]
	 SCS Opposite-Spin Energy  =      -2.9125874689274700 [Eh]
	 SCS Correlation Energy    =      -3.1723587180886295 [Eh]
	 SCS Total Energy          =    -709.4590182555974707 [Eh]
	-----------------------------------------------------------

  Dipole Moment: [D]
     X:    -0.2461      Y:     3.1151      Z:    -1.4481     Total:     3.4440

*** Psi4 exiting successfully. Buy a developer a beer!
