                               Psi4 1.4a2.dev612

  ==> Input File <==

--------------------------------------------------------------------------
#psi4
#
memory 32 gb

molecule  {
0 1
  O        0.3230460    -2.1253490     1.5079080
  N       -0.6313980     1.5079470     0.5903750
  C       -1.4479900     0.5963555     0.1104196
  C       -1.1120170    -0.8273510     0.1383580
  C        0.2324970    -1.2445130     0.6442670
  C       -2.7501440     0.8314100    -0.5084570
  C       -1.9788880    -1.8396620    -0.2859000
  C        1.4532580    -0.6371760     0.0400320
  C       -0.8389350     2.8684560     0.1240380
  C       -0.4489260     1.4615960     2.0415610
  C       -3.5841120    -0.1847810    -0.9811260
  C       -3.2098970    -1.5236550    -0.8600480
  C        1.4176430     0.0124460    -1.2019210
  C        2.6723110    -0.7931220     0.7125120
  C        2.5954110     0.5075660    -1.7582080
  C        3.8444690    -0.2807100     0.1592420
  C        3.8091760     0.3684650    -1.0779380
  H       -3.0858280     1.8625520    -0.5683870
  H       -1.6562960    -2.8740610    -0.1894870
  H       -1.7397670     3.3469090     0.5447380
  H       -0.9091950     2.8760430    -0.9660740
  H        0.0285190     3.4658540     0.4190740
  H       -0.3000960     0.4345950     2.3759160
  H       -1.3175180     1.8790800     2.5775500
  H        0.4394970     2.0433230     2.3053650
  H       -4.5402610     0.0757380    -1.4297920
  H       -3.8695260    -2.3131570    -1.2108590
  H        0.4733260     0.1189110    -1.7296950
  H        2.6795660    -1.3181790     1.6641980
  H        2.5695640     1.0040610    -2.7255190
  H        4.7881850    -0.3931870     0.6878940
  H        4.7248240     0.7628080    -1.5127390
units angstrom
no_reorient  #important for SAPT in psi4, default
symmetry c1  #important for SAPT in psi4, default
}

set PROPERTIES_ORIGIN ["COM"]
properties('MP2/aug-cc-pvtz', properties = ['dipole'])
--------------------------------------------------------------------------

    Molecular point group: c1
  Charge       = 0
  Multiplicity = 1
  Basis Set: AUG-CC-PVTZ
    Blend: AUG-CC-PVTZ
  Basis Set: (AUG-CC-PVTZ AUX)
    Blend: AUG-CC-PVTZ-JKFIT

    Orbital Energies [Eh]
    ---------------------

    Doubly Occupied:

       1A    -20.537604     2A    -15.576600     3A    -11.331744
       4A    -11.294414     5A    -11.264143     6A    -11.262945
       7A    -11.248340     8A    -11.247169     9A    -11.246435
      10A    -11.245113    11A    -11.243736    12A    -11.242503
      13A    -11.241892    14A    -11.240567    15A    -11.239761
      16A    -11.239644    17A    -11.231120    18A     -1.368499
      19A     -1.292159    20A     -1.158766    21A     -1.137883
      22A     -1.049818    23A     -1.022089    24A     -1.017352
      25A     -1.011245    26A     -0.973740    27A     -0.919236
      28A     -0.882402    29A     -0.837605    30A     -0.821315
      31A     -0.796720    32A     -0.757698    33A     -0.718409
      34A     -0.697300    35A     -0.669453    36A     -0.669145
      37A     -0.649328    38A     -0.639504    39A     -0.635668
      40A     -0.614053    41A     -0.609136    42A     -0.594607
      43A     -0.591777    44A     -0.585872    45A     -0.564082
      46A     -0.556750    47A     -0.546382    48A     -0.529416
      49A     -0.523081    50A     -0.516260    51A     -0.504264
      52A     -0.497946    53A     -0.495513    54A     -0.479273
      55A     -0.425633    56A     -0.404323    57A     -0.342281
      58A     -0.340063    59A     -0.339184    60A     -0.298648

  @DF-RHF Final Energy:  -706.27195567566957

   => Energetics <=

    Nuclear Repulsion Energy =           1160.6708258168712291
    One-Electron Energy =               -3263.8503456815215031
    Two-Electron Energy =                1396.9075641889808139
    Total Energy =                       -706.2719556756696875
  Basis Set: (AUG-CC-PVTZ AUX)
    Blend: AUG-CC-PVTZ-RI
    Molecular point group: c1

    Geometry (in Angstrom), charge = 0, multiplicity = 1:

       Center              X                  Y                   Z               Mass
    ------------   -----------------  -----------------  -----------------  -----------------
         O            0.312191892816    -2.080759206238     1.507055184733    15.994914619570
         N           -0.642252107184     1.552536793762     0.589522184733    14.003074004430
         C           -1.458844107184     0.640945293762     0.109566784733    12.000000000000
         C           -1.122871107184    -0.782761206238     0.137505184733    12.000000000000
         C            0.221642892816    -1.199923206238     0.643414184733    12.000000000000
         C           -2.760998107184     0.875999793762    -0.509309815267    12.000000000000
         C           -1.989742107184    -1.795072206238    -0.286752815267    12.000000000000
         C            1.442403892816    -0.592586206238     0.039179184733    12.000000000000
         C           -0.849789107184     2.913045793762     0.123185184733    12.000000000000
         C           -0.459780107184     1.506185793762     2.040708184733    12.000000000000
         C           -3.594966107184    -0.140191206238    -0.981978815267    12.000000000000
         C           -3.220751107184    -1.479065206238    -0.860900815267    12.000000000000
         C            1.406788892816     0.057035793762    -1.202773815267    12.000000000000
         C            2.661456892816    -0.748532206238     0.711659184733    12.000000000000
         C            2.584556892816     0.552155793762    -1.759060815267    12.000000000000
         C            3.833614892816    -0.236120206238     0.158389184733    12.000000000000
         C            3.798321892816     0.413054793762    -1.078790815267    12.000000000000
         H           -3.096682107184     1.907141793762    -0.569239815267     1.007825032230
         H           -1.667150107184    -2.829471206238    -0.190339815267     1.007825032230
         H           -1.750621107184     3.391498793762     0.543885184733     1.007825032230
         H           -0.920049107184     2.920632793762    -0.966926815267     1.007825032230
         H            0.017664892816     3.510443793762     0.418221184733     1.007825032230
         H           -0.310950107184     0.479184793762     2.375063184733     1.007825032230
         H           -1.328372107184     1.923669793762     2.576697184733     1.007825032230
         H            0.428642892816     2.087912793762     2.304512184733     1.007825032230
         H           -4.551115107184     0.120327793762    -1.430644815267     1.007825032230
         H           -3.880380107184    -2.268567206238    -1.211711815267     1.007825032230
         H            0.462471892816     0.163500793762    -1.730547815267     1.007825032230
         H            2.668711892816    -1.273589206238     1.663345184733     1.007825032230
         H            2.558709892816     1.048650793762    -2.726371815267     1.007825032230
         H            4.777330892816    -0.348597206238     0.687041184733     1.007825032230
         H            4.713969892816     0.807397793762    -1.513591815267     1.007825032230

  Basis Set: AUG-CC-PVTZ
    Blend: AUG-CC-PVTZ
  Basis Set: (AUG-CC-PVTZ AUX)
    Blend: AUG-CC-PVTZ-JKFIT
	 Reference Energy          =    -706.2719556756695738 [Eh]
	 Singles Energy            =      -0.0000000000000000 [Eh]
	 Same-Spin Energy          =      -0.7809195766445740 [Eh]
	 Opposite-Spin Energy      =      -2.4290576485907378 [Eh]
	 Correlation Energy        =      -3.2099772252353116 [Eh]
	 Total Energy              =    -709.4819329009048943 [Eh]

	 ================> DF-SCS-MP2 Energies <==================
	-----------------------------------------------------------
	 SCS Same-Spin Scale       =       0.3333333333333333 [-]
	 SCS Opposite-Spin Scale   =       1.2000000000000000 [-]
	 SCS Same-Spin Energy      =      -0.2603065255481913 [Eh]
	 SCS Opposite-Spin Energy  =      -2.9148691783088854 [Eh]
	 SCS Correlation Energy    =      -3.1751757038570769 [Eh]
	 SCS Total Energy          =    -709.4471313795266951 [Eh]
	-----------------------------------------------------------

  Dipole Moment: [D]
     X:     0.0715      Y:     3.5660      Z:    -1.2067     Total:     3.7653

*** Psi4 exiting successfully. Buy a developer a beer!
