                               Psi4 1.4a3.dev225

  ==> Input File <==

--------------------------------------------------------------------------
#psi4
#
memory 32 gb

molecule  {
0 1
  O        0.3230460    -2.1253490     1.5079080
  N       -0.6313980     1.5079470     0.5903750
  C       -1.4790485     0.5616838     0.0921648
  C       -1.1120170    -0.8273510     0.1383580
  C        0.2324970    -1.2445130     0.6442670
  C       -2.7501440     0.8314100    -0.5084570
  C       -1.9788880    -1.8396620    -0.2859000
  C        1.4532580    -0.6371760     0.0400320
  C       -0.8389350     2.8684560     0.1240380
  C       -0.4489260     1.4615960     2.0415610
  C       -3.5841120    -0.1847810    -0.9811260
  C       -3.2098970    -1.5236550    -0.8600480
  C        1.4176430     0.0124460    -1.2019210
  C        2.6723110    -0.7931220     0.7125120
  C        2.5954110     0.5075660    -1.7582080
  C        3.8444690    -0.2807100     0.1592420
  C        3.8091760     0.3684650    -1.0779380
  H       -3.0858280     1.8625520    -0.5683870
  H       -1.6562960    -2.8740610    -0.1894870
  H       -1.7397670     3.3469090     0.5447380
  H       -0.9091950     2.8760430    -0.9660740
  H        0.0285190     3.4658540     0.4190740
  H       -0.3000960     0.4345950     2.3759160
  H       -1.3175180     1.8790800     2.5775500
  H        0.4394970     2.0433230     2.3053650
  H       -4.5402610     0.0757380    -1.4297920
  H       -3.8695260    -2.3131570    -1.2108590
  H        0.4733260     0.1189110    -1.7296950
  H        2.6795660    -1.3181790     1.6641980
  H        2.5695640     1.0040610    -2.7255190
  H        4.7881850    -0.3931870     0.6878940
  H        4.7248240     0.7628080    -1.5127390
units angstrom
no_reorient  #important for SAPT in psi4, default
symmetry c1  #important for SAPT in psi4, default
}

set PROPERTIES_ORIGIN ["COM"]
properties('MP2/aug-cc-pvtz', properties = ['dipole'])
--------------------------------------------------------------------------

    Molecular point group: c1
  Charge       = 0
  Multiplicity = 1
  Basis Set: AUG-CC-PVTZ
    Blend: AUG-CC-PVTZ
  Basis Set: (AUG-CC-PVTZ AUX)
    Blend: AUG-CC-PVTZ-JKFIT

    Orbital Energies [Eh]
    ---------------------

    Doubly Occupied:

       1A    -20.539270     2A    -15.572473     3A    -11.334029
       4A    -11.290562     5A    -11.260455     6A    -11.258502
       7A    -11.248182     8A    -11.247925     9A    -11.247226
      10A    -11.246625    11A    -11.243762    12A    -11.242757
      13A    -11.242581    14A    -11.240323    15A    -11.239735
      16A    -11.239422    17A    -11.234025    18A     -1.370000
      19A     -1.273955    20A     -1.158708    21A     -1.143124
      22A     -1.051241    23A     -1.022799    24A     -1.018714
      25A     -1.013608    26A     -0.968788    27A     -0.910469
      28A     -0.883110    29A     -0.838365    30A     -0.822972
      31A     -0.799248    32A     -0.759895    33A     -0.718219
      34A     -0.694874    35A     -0.667541    36A     -0.665855
      37A     -0.643112    38A     -0.639445    39A     -0.635528
      40A     -0.614859    41A     -0.610726    42A     -0.594602
      43A     -0.592834    44A     -0.588888    45A     -0.559530
      46A     -0.552921    47A     -0.545873    48A     -0.526046
      49A     -0.522787    50A     -0.516702    51A     -0.504214
      52A     -0.501811    53A     -0.495872    54A     -0.481265
      55A     -0.423375    56A     -0.404936    57A     -0.343578
      58A     -0.340119    59A     -0.339821    60A     -0.305484

  @DF-RHF Final Energy:  -706.28323729356237

   => Energetics <=

    Nuclear Repulsion Energy =           1160.4703876346388824
    One-Electron Energy =               -3263.5199162414428429
    Two-Electron Energy =                1396.7662913132417088
    Total Energy =                       -706.2832372935622516
  Basis Set: (AUG-CC-PVTZ AUX)
    Blend: AUG-CC-PVTZ-RI
    Molecular point group: c1

    Geometry (in Angstrom), charge = 0, multiplicity = 1:

       Center              X                  Y                   Z               Mass
    ------------   -----------------  -----------------  -----------------  -----------------
         O            0.313847497273    -2.078910996536     1.508028275134    15.994914619570
         N           -0.640596502727     1.554385003464     0.590495275134    14.003074004430
         C           -1.488247002727     0.608121803464     0.092285075134    12.000000000000
         C           -1.121215502727    -0.780912996536     0.138478275134    12.000000000000
         C            0.223298497273    -1.198074996536     0.644387275134    12.000000000000
         C           -2.759342502727     0.877848003464    -0.508336724866    12.000000000000
         C           -1.988086502727    -1.793223996536    -0.285779724866    12.000000000000
         C            1.444059497273    -0.590737996536     0.040152275134    12.000000000000
         C           -0.848133502727     2.914894003464     0.124158275134    12.000000000000
         C           -0.458124502727     1.508034003464     2.041681275134    12.000000000000
         C           -3.593310502727    -0.138342996536    -0.981005724866    12.000000000000
         C           -3.219095502727    -1.477216996536    -0.859927724866    12.000000000000
         C            1.408444497273     0.058884003464    -1.201800724866    12.000000000000
         C            2.663112497273    -0.746683996536     0.712632275134    12.000000000000
         C            2.586212497273     0.554004003464    -1.758087724866    12.000000000000
         C            3.835270497273    -0.234271996536     0.159362275134    12.000000000000
         C            3.799977497273     0.414903003464    -1.077817724866    12.000000000000
         H           -3.095026502727     1.908990003464    -0.568266724866     1.007825032230
         H           -1.665494502727    -2.827622996536    -0.189366724866     1.007825032230
         H           -1.748965502727     3.393347003464     0.544858275134     1.007825032230
         H           -0.918393502727     2.922481003464    -0.965953724866     1.007825032230
         H            0.019320497273     3.512292003464     0.419194275134     1.007825032230
         H           -0.309294502727     0.481033003464     2.376036275134     1.007825032230
         H           -1.326716502727     1.925518003464     2.577670275134     1.007825032230
         H            0.430298497273     2.089761003464     2.305485275134     1.007825032230
         H           -4.549459502727     0.122176003464    -1.429671724866     1.007825032230
         H           -3.878724502727    -2.266718996536    -1.210738724866     1.007825032230
         H            0.464127497273     0.165349003464    -1.729574724866     1.007825032230
         H            2.670367497273    -1.271740996536     1.664318275134     1.007825032230
         H            2.560365497273     1.050499003464    -2.725398724866     1.007825032230
         H            4.778986497273    -0.346748996536     0.688014275134     1.007825032230
         H            4.715625497273     0.809246003464    -1.512618724866     1.007825032230

  Basis Set: AUG-CC-PVTZ
    Blend: AUG-CC-PVTZ
  Basis Set: (AUG-CC-PVTZ AUX)
    Blend: AUG-CC-PVTZ-JKFIT
	 Reference Energy          =    -706.2832372935623653 [Eh]
	 Singles Energy            =      -0.0000000000000000 [Eh]
	 Same-Spin Energy          =      -0.7799896722744291 [Eh]
	 Opposite-Spin Energy      =      -2.4278821882564432 [Eh]
	 Correlation Energy        =      -3.2078718605308723 [Eh]
	 Total Energy              =    -709.4911091540932375 [Eh]

	 ================> DF-SCS-MP2 Energies <==================
	-----------------------------------------------------------
	 SCS Same-Spin Scale       =       0.3333333333333333 [-]
	 SCS Opposite-Spin Scale   =       1.2000000000000000 [-]
	 SCS Same-Spin Energy      =      -0.2599965574248096 [Eh]
	 SCS Opposite-Spin Energy  =      -2.9134586259077317 [Eh]
	 SCS Correlation Energy    =      -3.1734551833325413 [Eh]
	 SCS Total Energy          =    -709.4566924768948866 [Eh]
	-----------------------------------------------------------

  Dipole Moment: [D]
     X:    -0.0910      Y:     3.3267      Z:    -1.3394     Total:     3.5873

*** Psi4 exiting successfully. Buy a developer a beer!
