                               Psi4 1.4a2.dev612

  ==> Input File <==

--------------------------------------------------------------------------
#psi4
#
memory 32 gb

molecule  {
0 1
  O        0.3230460    -2.1253490     1.5079080
  N       -0.6313980     1.5079470     0.5903750
  C       -1.3858729     0.6656991     0.1469291
  C       -1.1120170    -0.8273510     0.1383580
  C        0.2324970    -1.2445130     0.6442670
  C       -2.7501440     0.8314100    -0.5084570
  C       -1.9788880    -1.8396620    -0.2859000
  C        1.4532580    -0.6371760     0.0400320
  C       -0.8389350     2.8684560     0.1240380
  C       -0.4489260     1.4615960     2.0415610
  C       -3.5841120    -0.1847810    -0.9811260
  C       -3.2098970    -1.5236550    -0.8600480
  C        1.4176430     0.0124460    -1.2019210
  C        2.6723110    -0.7931220     0.7125120
  C        2.5954110     0.5075660    -1.7582080
  C        3.8444690    -0.2807100     0.1592420
  C        3.8091760     0.3684650    -1.0779380
  H       -3.0858280     1.8625520    -0.5683870
  H       -1.6562960    -2.8740610    -0.1894870
  H       -1.7397670     3.3469090     0.5447380
  H       -0.9091950     2.8760430    -0.9660740
  H        0.0285190     3.4658540     0.4190740
  H       -0.3000960     0.4345950     2.3759160
  H       -1.3175180     1.8790800     2.5775500
  H        0.4394970     2.0433230     2.3053650
  H       -4.5402610     0.0757380    -1.4297920
  H       -3.8695260    -2.3131570    -1.2108590
  H        0.4733260     0.1189110    -1.7296950
  H        2.6795660    -1.3181790     1.6641980
  H        2.5695640     1.0040610    -2.7255190
  H        4.7881850    -0.3931870     0.6878940
  H        4.7248240     0.7628080    -1.5127390
units angstrom
no_reorient  #important for SAPT in psi4, default
symmetry c1  #important for SAPT in psi4, default
}

set PROPERTIES_ORIGIN ["COM"]
properties('MP2/aug-cc-pvtz', properties = ['dipole'])
--------------------------------------------------------------------------

    Molecular point group: c1
  Charge       = 0
  Multiplicity = 1
  Basis Set: AUG-CC-PVTZ
    Blend: AUG-CC-PVTZ
  Basis Set: (AUG-CC-PVTZ AUX)
    Blend: AUG-CC-PVTZ-JKFIT

    Orbital Energies [Eh]
    ---------------------

    Doubly Occupied:

       1A    -20.533756     2A    -15.586687     3A    -11.326788
       4A    -11.302047     5A    -11.274003     6A    -11.273148
       7A    -11.248777     8A    -11.247107     9A    -11.243804
      10A    -11.242926    11A    -11.242344    12A    -11.241494
      13A    -11.241202    14A    -11.240227    15A    -11.238452
      16A    -11.238204    17A    -11.223085    18A     -1.365291
      19A     -1.337740    20A     -1.159036    21A     -1.126834
      22A     -1.047482    23A     -1.021872    24A     -1.015132
      25A     -1.009233    26A     -0.985289    27A     -0.935434
      28A     -0.879065    29A     -0.836498    30A     -0.817665
      31A     -0.791030    32A     -0.753296    33A     -0.721754
      34A     -0.702970    35A     -0.679622    36A     -0.671348
      37A     -0.666148    38A     -0.638828    39A     -0.634384
      40A     -0.613204    41A     -0.605564    42A     -0.594624
      43A     -0.591697    44A     -0.576646    45A     -0.575873
      46A     -0.564773    47A     -0.550177    48A     -0.533015
      49A     -0.523054    50A     -0.515798    51A     -0.505130
      52A     -0.496733    53A     -0.490648    54A     -0.472102
      55A     -0.431562    56A     -0.396558    57A     -0.342083
      58A     -0.340393    59A     -0.335269    60A     -0.282846

  @DF-RHF Final Energy:  -706.22390309555260

   => Energetics <=

    Nuclear Repulsion Energy =           1161.2592954179585831
    One-Electron Energy =               -3264.8108918657653703
    Two-Electron Energy =                1397.3276933522540730
    Total Energy =                       -706.2239030955527141
  Basis Set: (AUG-CC-PVTZ AUX)
    Blend: AUG-CC-PVTZ-RI
    Molecular point group: c1

    Geometry (in Angstrom), charge = 0, multiplicity = 1:

       Center              X                  Y                   Z               Mass
    ------------   -----------------  -----------------  -----------------  -----------------
         O            0.308880678573    -2.084455636303     1.505109009261    15.994914619570
         N           -0.645563321427     1.548840363697     0.587576009261    14.003074004430
         C           -1.400038221427     0.706592463697     0.144130109261    12.000000000000
         C           -1.126182321427    -0.786457636303     0.135559009261    12.000000000000
         C            0.218331678573    -1.203619636303     0.641468009261    12.000000000000
         C           -2.764309321427     0.872303363697    -0.511255990739    12.000000000000
         C           -1.993053321427    -1.798768636303    -0.288698990739    12.000000000000
         C            1.439092678573    -0.596282636303     0.037233009261    12.000000000000
         C           -0.853100321427     2.909349363697     0.121239009261    12.000000000000
         C           -0.463091321427     1.502489363697     2.038762009261    12.000000000000
         C           -3.598277321427    -0.143887636303    -0.983924990739    12.000000000000
         C           -3.224062321427    -1.482761636303    -0.862846990739    12.000000000000
         C            1.403477678573     0.053339363697    -1.204719990739    12.000000000000
         C            2.658145678573    -0.752228636303     0.709713009261    12.000000000000
         C            2.581245678573     0.548459363697    -1.761006990739    12.000000000000
         C            3.830303678573    -0.239816636303     0.156443009261    12.000000000000
         C            3.795010678573     0.409358363697    -1.080736990739    12.000000000000
         H           -3.099993321427     1.903445363697    -0.571185990739     1.007825032230
         H           -1.670461321427    -2.833167636303    -0.192285990739     1.007825032230
         H           -1.753932321427     3.387802363697     0.541939009261     1.007825032230
         H           -0.923360321427     2.916936363697    -0.968872990739     1.007825032230
         H            0.014353678573     3.506747363697     0.416275009261     1.007825032230
         H           -0.314261321427     0.475488363697     2.373117009261     1.007825032230
         H           -1.331683321427     1.919973363697     2.574751009261     1.007825032230
         H            0.425331678573     2.084216363697     2.302566009261     1.007825032230
         H           -4.554426321427     0.116631363697    -1.432590990739     1.007825032230
         H           -3.883691321427    -2.272263636303    -1.213657990739     1.007825032230
         H            0.459160678573     0.159804363697    -1.732493990739     1.007825032230
         H            2.665400678573    -1.277285636303     1.661399009261     1.007825032230
         H            2.555398678573     1.044954363697    -2.728317990739     1.007825032230
         H            4.774019678573    -0.352293636303     0.685095009261     1.007825032230
         H            4.710658678573     0.803701363697    -1.515537990739     1.007825032230

  Basis Set: AUG-CC-PVTZ
    Blend: AUG-CC-PVTZ
  Basis Set: (AUG-CC-PVTZ AUX)
    Blend: AUG-CC-PVTZ-JKFIT
	 Reference Energy          =    -706.2239030955526005 [Eh]
	 Singles Energy            =      -0.0000000000000000 [Eh]
	 Same-Spin Energy          =      -0.7832776809210749 [Eh]
	 Opposite-Spin Energy      =      -2.4322799852031602 [Eh]
	 Correlation Energy        =      -3.2155576661242353 [Eh]
	 Total Energy              =    -709.4394607616768553 [Eh]

	 ================> DF-SCS-MP2 Energies <==================
	-----------------------------------------------------------
	 SCS Same-Spin Scale       =       0.3333333333333333 [-]
	 SCS Opposite-Spin Scale   =       1.2000000000000000 [-]
	 SCS Same-Spin Energy      =      -0.2610925603070249 [Eh]
	 SCS Opposite-Spin Energy  =      -2.9187359822437924 [Eh]
	 SCS Correlation Energy    =      -3.1798285425508173 [Eh]
	 SCS Total Energy          =    -709.4037316381034088 [Eh]
	-----------------------------------------------------------

  Dipole Moment: [D]
     X:     0.4439      Y:     4.1072      Z:    -0.9096     Total:     4.2301

*** Psi4 exiting successfully. Buy a developer a beer!
