                               Psi4 1.3.2 release

  ==> Input File <==

--------------------------------------------------------------------------
#psi4
#
memory 32 gb

molecule  {
0 1
  O        0.3230460    -2.1253490     1.5079080
  N       -0.6313980     1.5079470     0.5903750
  C       -1.5101070     0.5270120     0.0739100
  C       -1.1120170    -0.8273510     0.1383580
  C        0.2324970    -1.2445130     0.6442670
  C       -2.7501440     0.8314100    -0.5084570
  C       -1.9788880    -1.8396620    -0.2859000
  C        1.4532580    -0.6371760     0.0400320
  C       -0.8305378     2.8989843     0.2203949
  C       -0.4489260     1.4615960     2.0415610
  C       -3.5841120    -0.1847810    -0.9811260
  C       -3.2098970    -1.5236550    -0.8600480
  C        1.4176430     0.0124460    -1.2019210
  C        2.6723110    -0.7931220     0.7125120
  C        2.5954110     0.5075660    -1.7582080
  C        3.8444690    -0.2807100     0.1592420
  C        3.8091760     0.3684650    -1.0779380
  H       -3.0858280     1.8625520    -0.5683870
  H       -1.6562960    -2.8740610    -0.1894870
  H       -1.7397670     3.3469090     0.5447380
  H       -0.9091950     2.8760430    -0.9660740
  H        0.0285190     3.4658540     0.4190740
  H       -0.3000960     0.4345950     2.3759160
  H       -1.3175180     1.8790800     2.5775500
  H        0.4394970     2.0433230     2.3053650
  H       -4.5402610     0.0757380    -1.4297920
  H       -3.8695260    -2.3131570    -1.2108590
  H        0.4733260     0.1189110    -1.7296950
  H        2.6795660    -1.3181790     1.6641980
  H        2.5695640     1.0040610    -2.7255190
  H        4.7881850    -0.3931870     0.6878940
  H        4.7248240     0.7628080    -1.5127390
units angstrom
no_reorient  #important for SAPT in psi4, default
symmetry c1  #important for SAPT in psi4, default
}

set PROPERTIES_ORIGIN ["COM"]
properties('MP2/aug-cc-pvtz', properties = ['dipole'])
--------------------------------------------------------------------------

    Molecular point group: c1
  Charge       = 0
  Multiplicity = 1
  Basis Set: AUG-CC-PVTZ
    Blend: AUG-CC-PVTZ
  Basis Set: (AUG-CC-PVTZ AUX)
    Blend: AUG-CC-PVTZ-JKFIT

    Orbital Energies [Eh]
    ---------------------

    Doubly Occupied:

       1A    -20.540838     2A    -15.569714     3A    -11.336347
       4A    -11.288535     5A    -11.258564     6A    -11.253280
       7A    -11.249561     8A    -11.248448     9A    -11.247963
      10A    -11.247114    11A    -11.244062    12A    -11.243725
      13A    -11.242559    14A    -11.239971    15A    -11.239899
      16A    -11.239111    17A    -11.236678    18A     -1.371436
      19A     -1.259631    20A     -1.158694    21A     -1.148989
      22A     -1.053109    23A     -1.024263    24A     -1.020174
      25A     -1.017208    26A     -0.960901    27A     -0.905484
      28A     -0.883014    29A     -0.839259    30A     -0.824635
      31A     -0.802679    32A     -0.762091    33A     -0.718783
      34A     -0.693366    35A     -0.666984    36A     -0.665598
      37A     -0.640046    38A     -0.638611    39A     -0.633218
      40A     -0.615781    41A     -0.612851    42A     -0.596827
      43A     -0.594134    44A     -0.589741    45A     -0.565151
      46A     -0.554574    47A     -0.546460    48A     -0.522918
      49A     -0.517430    50A     -0.508253    51A     -0.504425
      52A     -0.496890    53A     -0.493057    54A     -0.480457
      55A     -0.423428    56A     -0.405835    57A     -0.345664
      58A     -0.340179    59A     -0.339988    60A     -0.312501

  @DF-RHF Final Energy:  -706.27648597715176

   => Energetics <=

    Nuclear Repulsion Energy =           1159.9504364612816971
    One-Electron Energy =               -3262.4916741581987480
    Two-Electron Energy =                1396.2647517197651723
    Total Energy =                       -706.2764859771518786
  Basis Set: (AUG-CC-PVTZ AUX)
    Blend: AUG-CC-PVTZ-RI
    Molecular point group: c1

    Geometry (in Angstrom), charge = 0, multiplicity = 1:

       Center              X                  Y                   Z               Mass
    ------------   -----------------  -----------------  -----------------  -----------------
         O            0.315055480571    -2.078690123118     1.503864964453    15.994914619570
         N           -0.639388519429     1.554605876882     0.586331964453    14.003074004430
         C           -1.518097519429     0.573670876882     0.069866964453    12.000000000000
         C           -1.120007519429    -0.780692123118     0.134314964453    12.000000000000
         C            0.224506480571    -1.197854123118     0.640223964453    12.000000000000
         C           -2.758134519429     0.878068876882    -0.512500035547    12.000000000000
         C           -1.986878519429    -1.793003123118    -0.289943035547    12.000000000000
         C            1.445267480571    -0.590517123118     0.035988964453    12.000000000000
         C           -0.838528319429     2.945643176882     0.216351864453    12.000000000000
         C           -0.456916519429     1.508254876882     2.037517964453    12.000000000000
         C           -3.592102519429    -0.138122123118    -0.985169035547    12.000000000000
         C           -3.217887519429    -1.476996123118    -0.864091035547    12.000000000000
         C            1.409652480571     0.059104876882    -1.205964035547    12.000000000000
         C            2.664320480571    -0.746463123118     0.708468964453    12.000000000000
         C            2.587420480571     0.554224876882    -1.762251035547    12.000000000000
         C            3.836478480571    -0.234051123118     0.155198964453    12.000000000000
         C            3.801185480571     0.415123876882    -1.081981035547    12.000000000000
         H           -3.093818519429     1.909210876882    -0.572430035547     1.007825032230
         H           -1.664286519429    -2.827402123118    -0.193530035547     1.007825032230
         H           -1.747757519429     3.393567876882     0.540694964453     1.007825032230
         H           -0.917185519429     2.922701876882    -0.970117035547     1.007825032230
         H            0.020528480571     3.512512876882     0.415030964453     1.007825032230
         H           -0.308086519429     0.481253876882     2.371872964453     1.007825032230
         H           -1.325508519429     1.925738876882     2.573506964453     1.007825032230
         H            0.431506480571     2.089981876882     2.301321964453     1.007825032230
         H           -4.548251519429     0.122396876882    -1.433835035547     1.007825032230
         H           -3.877516519429    -2.266498123118    -1.214902035547     1.007825032230
         H            0.465335480571     0.165569876882    -1.733738035547     1.007825032230
         H            2.671575480571    -1.271520123118     1.660154964453     1.007825032230
         H            2.561573480571     1.050719876882    -2.729562035547     1.007825032230
         H            4.780194480571    -0.346528123118     0.683850964453     1.007825032230
         H            4.716833480571     0.809466876882    -1.516782035547     1.007825032230

  Basis Set: AUG-CC-PVTZ
    Blend: AUG-CC-PVTZ
  Basis Set: (AUG-CC-PVTZ AUX)
    Blend: AUG-CC-PVTZ-JKFIT
	 Reference Energy          =    -706.2764859771517649 [Eh]
	 Singles Energy            =      -0.0000000000000000 [Eh]
	 Same-Spin Energy          =      -0.7795316408605758 [Eh]
	 Opposite-Spin Energy      =      -2.4277656313230356 [Eh]
	 Correlation Energy        =      -3.2072972721836113 [Eh]
	 Total Energy              =    -709.4837832493353744 [Eh]

	 ================> DF-SCS-MP2 Energies <==================
	-----------------------------------------------------------
	 SCS Same-Spin Scale       =       0.3333333333333333 [-]
	 SCS Opposite-Spin Scale   =       1.2000000000000000 [-]
	 SCS Same-Spin Energy      =      -0.2598438802868586 [Eh]
	 SCS Opposite-Spin Energy  =      -2.9133187575876427 [Eh]
	 SCS Correlation Energy    =      -3.1731626378745013 [Eh]
	 SCS Total Energy          =    -709.4496486150262626 [Eh]
	-----------------------------------------------------------

  Dipole Moment: [D]
     X:    -0.2724      Y:     3.1147      Z:    -1.4006     Total:     3.4260

*** Psi4 exiting successfully. Buy a developer a beer!
