                               Psi4 1.4a2.dev612

  ==> Input File <==

--------------------------------------------------------------------------
#psi4
#
memory 32 gb

molecule  {
0 1
  O        0.3230460    -2.1253490     1.5079080
  N       -0.6313980     1.5079470     0.5903750
  C       -1.5722240     0.4576685     0.0374004
  C       -1.1120170    -0.8273510     0.1383580
  C        0.2324970    -1.2445130     0.6442670
  C       -2.7501440     0.8314100    -0.5084570
  C       -1.9788880    -1.8396620    -0.2859000
  C        1.4532580    -0.6371760     0.0400320
  C       -0.8389350     2.8684560     0.1240380
  C       -0.4489260     1.4615960     2.0415610
  C       -3.5841120    -0.1847810    -0.9811260
  C       -3.2098970    -1.5236550    -0.8600480
  C        1.4176430     0.0124460    -1.2019210
  C        2.6723110    -0.7931220     0.7125120
  C        2.5954110     0.5075660    -1.7582080
  C        3.8444690    -0.2807100     0.1592420
  C        3.8091760     0.3684650    -1.0779380
  H       -3.0858280     1.8625520    -0.5683870
  H       -1.6562960    -2.8740610    -0.1894870
  H       -1.7397670     3.3469090     0.5447380
  H       -0.9091950     2.8760430    -0.9660740
  H        0.0285190     3.4658540     0.4190740
  H       -0.3000960     0.4345950     2.3759160
  H       -1.3175180     1.8790800     2.5775500
  H        0.4394970     2.0433230     2.3053650
  H       -4.5402610     0.0757380    -1.4297920
  H       -3.8695260    -2.3131570    -1.2108590
  H        0.4733260     0.1189110    -1.7296950
  H        2.6795660    -1.3181790     1.6641980
  H        2.5695640     1.0040610    -2.7255190
  H        4.7881850    -0.3931870     0.6878940
  H        4.7248240     0.7628080    -1.5127390
units angstrom
no_reorient  #important for SAPT in psi4, default
symmetry c1  #important for SAPT in psi4, default
}

set PROPERTIES_ORIGIN ["COM"]
properties('MP2/aug-cc-pvtz', properties = ['dipole'])
--------------------------------------------------------------------------

    Molecular point group: c1
  Charge       = 0
  Multiplicity = 1
  Basis Set: AUG-CC-PVTZ
    Blend: AUG-CC-PVTZ
  Basis Set: (AUG-CC-PVTZ AUX)
    Blend: AUG-CC-PVTZ-JKFIT

    Orbital Energies [Eh]
    ---------------------

    Doubly Occupied:

       1A    -20.543544     2A    -15.561562     3A    -11.340385
       4A    -11.281015     5A    -11.251964     6A    -11.251617
       7A    -11.250679     8A    -11.248163     9A    -11.247874
      10A    -11.247451    11A    -11.244029    12A    -11.243524
      13A    -11.242812    14A    -11.239793    15A    -11.239593
      16A    -11.238954    17A    -11.237936    18A     -1.373928
      19A     -1.236158    20A     -1.159753    21A     -1.156270
      22A     -1.056998    23A     -1.028819    24A     -1.022190
      25A     -1.018535    26A     -0.956882    27A     -0.897645
      28A     -0.873796    29A     -0.841702    30A     -0.827453
      31A     -0.804682    32A     -0.766114    33A     -0.719513
      34A     -0.693490    35A     -0.666632    36A     -0.657265
      37A     -0.640249    38A     -0.633277    39A     -0.629548
      40A     -0.618308    41A     -0.613040    42A     -0.602241
      43A     -0.593288    44A     -0.586973    45A     -0.553255
      46A     -0.547444    47A     -0.541349    48A     -0.524888
      49A     -0.518581    50A     -0.517801    51A     -0.511555
      52A     -0.496858    53A     -0.494278    54A     -0.480826
      55A     -0.425043    56A     -0.395284    57A     -0.349543
      58A     -0.341914    59A     -0.340041    60A     -0.319569

  @DF-RHF Final Energy:  -706.27737037646023

   => Energetics <=

    Nuclear Repulsion Energy =           1160.1568161531590704
    One-Electron Energy =               -3262.9806315782716410
    Two-Electron Energy =                1396.5464450486524584
    Total Energy =                       -706.2773703764601123
  Basis Set: (AUG-CC-PVTZ AUX)
    Blend: AUG-CC-PVTZ-RI
    Molecular point group: c1

    Geometry (in Angstrom), charge = 0, multiplicity = 1:

       Center              X                  Y                   Z               Mass
    ------------   -----------------  -----------------  -----------------  -----------------
         O            0.318814310642    -2.073366356769     1.510947546338    15.994914619570
         N           -0.635629689358     1.559929643231     0.593414546338    14.003074004430
         C           -1.576455689358     0.509651143231     0.040439946338    12.000000000000
         C           -1.116248689358    -0.775368356769     0.141397546338    12.000000000000
         C            0.228265310642    -1.192530356769     0.647306546338    12.000000000000
         C           -2.754375689358     0.883392643231    -0.505417453662    12.000000000000
         C           -1.983119689358    -1.787679356769    -0.282860453662    12.000000000000
         C            1.449026310642    -0.585193356769     0.043071546338    12.000000000000
         C           -0.843166689358     2.920438643231     0.127077546338    12.000000000000
         C           -0.453157689358     1.513578643231     2.044600546338    12.000000000000
         C           -3.588343689358    -0.132798356769    -0.978086453662    12.000000000000
         C           -3.214128689358    -1.471672356769    -0.857008453662    12.000000000000
         C            1.413411310642     0.064428643231    -1.198881453662    12.000000000000
         C            2.668079310642    -0.741139356769     0.715551546338    12.000000000000
         C            2.591179310642     0.559548643231    -1.755168453662    12.000000000000
         C            3.840237310642    -0.228727356769     0.162281546338    12.000000000000
         C            3.804944310642     0.420447643231    -1.074898453662    12.000000000000
         H           -3.090059689358     1.914534643231    -0.565347453662     1.007825032230
         H           -1.660527689358    -2.822078356769    -0.186447453662     1.007825032230
         H           -1.743998689358     3.398891643231     0.547777546338     1.007825032230
         H           -0.913426689358     2.928025643231    -0.963034453662     1.007825032230
         H            0.024287310642     3.517836643231     0.422113546338     1.007825032230
         H           -0.304327689358     0.486577643231     2.378955546338     1.007825032230
         H           -1.321749689358     1.931062643231     2.580589546338     1.007825032230
         H            0.435265310642     2.095305643231     2.308404546338     1.007825032230
         H           -4.544492689358     0.127720643231    -1.426752453662     1.007825032230
         H           -3.873757689358    -2.261174356769    -1.207819453662     1.007825032230
         H            0.469094310642     0.170893643231    -1.726655453662     1.007825032230
         H            2.675334310642    -1.266196356769     1.667237546338     1.007825032230
         H            2.565332310642     1.056043643231    -2.722479453662     1.007825032230
         H            4.783953310642    -0.341204356769     0.690933546338     1.007825032230
         H            4.720592310642     0.814790643231    -1.509699453662     1.007825032230

  Basis Set: AUG-CC-PVTZ
    Blend: AUG-CC-PVTZ
  Basis Set: (AUG-CC-PVTZ AUX)
    Blend: AUG-CC-PVTZ-JKFIT
	 Reference Energy          =    -706.2773703764602260 [Eh]
	 Singles Energy            =      -0.0000000000000000 [Eh]
	 Same-Spin Energy          =      -0.7787601645891167 [Eh]
	 Opposite-Spin Energy      =      -2.4268892264863098 [Eh]
	 Correlation Energy        =      -3.2056493910754265 [Eh]
	 Total Energy              =    -709.4830197675356658 [Eh]

	 ================> DF-SCS-MP2 Energies <==================
	-----------------------------------------------------------
	 SCS Same-Spin Scale       =       0.3333333333333333 [-]
	 SCS Opposite-Spin Scale   =       1.2000000000000000 [-]
	 SCS Same-Spin Energy      =      -0.2595867215297055 [Eh]
	 SCS Opposite-Spin Energy  =      -2.9122670717835715 [Eh]
	 SCS Correlation Energy    =      -3.1718537933132769 [Eh]
	 SCS Total Energy          =    -709.4492241697735153 [Eh]
	-----------------------------------------------------------

  Dipole Moment: [D]
     X:    -0.4821      Y:     2.7304      Z:    -1.6711     Total:     3.2373

*** Psi4 exiting successfully. Buy a developer a beer!
