                               Psi4 1.3.2 release

  ==> Input File <==

--------------------------------------------------------------------------
#psi4
#
memory 32 gb

molecule  {
0 1
  O        0.3230460    -2.1253490     1.5079080
  N       -0.6309897     1.5164360     0.6142698
  C       -1.5101070     0.5270120     0.0739100
  C       -1.1120170    -0.8273510     0.1383580
  C        0.2324970    -1.2445130     0.6442670
  C       -2.7501440     0.8314100    -0.5084570
  C       -1.9788880    -1.8396620    -0.2859000
  C        1.4532580    -0.6371760     0.0400320
  C       -0.8389350     2.8684560     0.1240380
  C       -0.4489260     1.4615960     2.0415610
  C       -3.5841120    -0.1847810    -0.9811260
  C       -3.2098970    -1.5236550    -0.8600480
  C        1.4176430     0.0124460    -1.2019210
  C        2.6723110    -0.7931220     0.7125120
  C        2.5954110     0.5075660    -1.7582080
  C        3.8444690    -0.2807100     0.1592420
  C        3.8091760     0.3684650    -1.0779380
  H       -3.0858280     1.8625520    -0.5683870
  H       -1.6562960    -2.8740610    -0.1894870
  H       -1.7397670     3.3469090     0.5447380
  H       -0.9091950     2.8760430    -0.9660740
  H        0.0285190     3.4658540     0.4190740
  H       -0.3000960     0.4345950     2.3759160
  H       -1.3175180     1.8790800     2.5775500
  H        0.4394970     2.0433230     2.3053650
  H       -4.5402610     0.0757380    -1.4297920
  H       -3.8695260    -2.3131570    -1.2108590
  H        0.4733260     0.1189110    -1.7296950
  H        2.6795660    -1.3181790     1.6641980
  H        2.5695640     1.0040610    -2.7255190
  H        4.7881850    -0.3931870     0.6878940
  H        4.7248240     0.7628080    -1.5127390
units angstrom
no_reorient  #important for SAPT in psi4, default
symmetry c1  #important for SAPT in psi4, default
}

set PROPERTIES_ORIGIN ["COM"]
properties('MP2/aug-cc-pvtz', properties = ['dipole'])
--------------------------------------------------------------------------

    Molecular point group: c1
  Charge       = 0
  Multiplicity = 1
  Basis Set: AUG-CC-PVTZ
    Blend: AUG-CC-PVTZ
  Basis Set: (AUG-CC-PVTZ AUX)
    Blend: AUG-CC-PVTZ-JKFIT

    Orbital Energies [Eh]
    ---------------------

    Doubly Occupied:

       1A    -20.541041     2A    -15.567498     3A    -11.336512
       4A    -11.287967     5A    -11.256997     6A    -11.252153
       7A    -11.249753     8A    -11.248430     9A    -11.248245
      10A    -11.247523    11A    -11.244072    12A    -11.244059
      13A    -11.242896    14A    -11.240352    15A    -11.240263
      16A    -11.239445    17A    -11.237116    18A     -1.371630
      19A     -1.258436    20A     -1.159042    21A     -1.149287
      22A     -1.053161    23A     -1.024589    24A     -1.020248
      25A     -1.016377    26A     -0.966217    27A     -0.901484
      28A     -0.881126    29A     -0.839483    30A     -0.824769
      31A     -0.801744    32A     -0.762405    33A     -0.718843
      34A     -0.693751    35A     -0.666384    36A     -0.663004
      37A     -0.640802    38A     -0.637838    39A     -0.635095
      40A     -0.616348    41A     -0.612265    42A     -0.596987
      43A     -0.594482    44A     -0.590617    45A     -0.555501
      46A     -0.548687    47A     -0.544521    48A     -0.524851
      49A     -0.522255    50A     -0.517547    51A     -0.507320
      52A     -0.502211    53A     -0.496106    54A     -0.482292
      55A     -0.422658    56A     -0.400669    57A     -0.345795
      58A     -0.340503    59A     -0.340264    60A     -0.312203

  @DF-RHF Final Energy:  -706.28705320483459

   => Energetics <=

    Nuclear Repulsion Energy =           1160.1441333732859675
    One-Electron Energy =               -3262.8941299994849032
    Two-Electron Energy =                1396.4629434213643435
    Total Energy =                       -706.2870532048345922
  Basis Set: (AUG-CC-PVTZ AUX)
    Blend: AUG-CC-PVTZ-RI
    Molecular point group: c1

    Geometry (in Angstrom), charge = 0, multiplicity = 1:

       Center              X                  Y                   Z               Mass
    ------------   -----------------  -----------------  -----------------  -----------------
         O            0.315477703840    -2.077590831180     1.507515013620    15.994914619570
         N           -0.638557996160     1.564194168820     0.613876813620    14.003074004430
         C           -1.517675296160     0.574770168820     0.073517013620    12.000000000000
         C           -1.119585296160    -0.779592831180     0.137965013620    12.000000000000
         C            0.224928703840    -1.196754831180     0.643874013620    12.000000000000
         C           -2.757712296160     0.879168168820    -0.508849986380    12.000000000000
         C           -1.986456296160    -1.791903831180    -0.286292986380    12.000000000000
         C            1.445689703840    -0.589417831180     0.039639013620    12.000000000000
         C           -0.846503296160     2.916214168820     0.123645013620    12.000000000000
         C           -0.456494296160     1.509354168820     2.041168013620    12.000000000000
         C           -3.591680296160    -0.137022831180    -0.981518986380    12.000000000000
         C           -3.217465296160    -1.475896831180    -0.860440986380    12.000000000000
         C            1.410074703840     0.060204168820    -1.202313986380    12.000000000000
         C            2.664742703840    -0.745363831180     0.712119013620    12.000000000000
         C            2.587842703840     0.555324168820    -1.758600986380    12.000000000000
         C            3.836900703840    -0.232951831180     0.158849013620    12.000000000000
         C            3.801607703840     0.416223168820    -1.078330986380    12.000000000000
         H           -3.093396296160     1.910310168820    -0.568779986380     1.007825032230
         H           -1.663864296160    -2.826302831180    -0.189879986380     1.007825032230
         H           -1.747335296160     3.394667168820     0.544345013620     1.007825032230
         H           -0.916763296160     2.923801168820    -0.966466986380     1.007825032230
         H            0.020950703840     3.513612168820     0.418681013620     1.007825032230
         H           -0.307664296160     0.482353168820     2.375523013620     1.007825032230
         H           -1.325086296160     1.926838168820     2.577157013620     1.007825032230
         H            0.431928703840     2.091081168820     2.304972013620     1.007825032230
         H           -4.547829296160     0.123496168820    -1.430184986380     1.007825032230
         H           -3.877094296160    -2.265398831180    -1.211251986380     1.007825032230
         H            0.465757703840     0.166669168820    -1.730087986380     1.007825032230
         H            2.671997703840    -1.270420831180     1.663805013620     1.007825032230
         H            2.561995703840     1.051819168820    -2.725911986380     1.007825032230
         H            4.780616703840    -0.345428831180     0.687501013620     1.007825032230
         H            4.717255703840     0.810566168820    -1.513131986380     1.007825032230

  Basis Set: AUG-CC-PVTZ
    Blend: AUG-CC-PVTZ
  Basis Set: (AUG-CC-PVTZ AUX)
    Blend: AUG-CC-PVTZ-JKFIT
	 Reference Energy          =    -706.2870532048345922 [Eh]
	 Singles Energy            =      -0.0000000000000000 [Eh]
	 Same-Spin Energy          =      -0.7792418152481770 [Eh]
	 Opposite-Spin Energy      =      -2.4269125886096834 [Eh]
	 Correlation Energy        =      -3.2061544038578607 [Eh]
	 Total Energy              =    -709.4932076086925008 [Eh]

	 ================> DF-SCS-MP2 Energies <==================
	-----------------------------------------------------------
	 SCS Same-Spin Scale       =       0.3333333333333333 [-]
	 SCS Opposite-Spin Scale   =       1.2000000000000000 [-]
	 SCS Same-Spin Energy      =      -0.2597472717493923 [Eh]
	 SCS Opposite-Spin Energy  =      -2.9122951063316198 [Eh]
	 SCS Correlation Energy    =      -3.1720423780810121 [Eh]
	 SCS Total Energy          =    -709.4590955829155519 [Eh]
	-----------------------------------------------------------

  Dipole Moment: [D]
     X:    -0.2494      Y:     3.0463      Z:    -1.5418     Total:     3.4233

*** Psi4 exiting successfully. Buy a developer a beer!
