                               Psi4 1.3.2 release

  ==> Input File <==

--------------------------------------------------------------------------
#psi4
#
memory 32 gb

molecule  {
0 1
  O        0.3230460    -2.1253490     1.5079080
  N       -0.6313980     1.5079470     0.5903750
  C       -1.5214925     0.5444815     0.0606910
  C       -1.1120170    -0.8273510     0.1383580
  C        0.2324970    -1.2445130     0.6442670
  C       -2.7501440     0.8314100    -0.5084570
  C       -1.9788880    -1.8396620    -0.2859000
  C        1.4532580    -0.6371760     0.0400320
  C       -0.8389350     2.8684560     0.1240380
  C       -0.4489260     1.4615960     2.0415610
  C       -3.5841120    -0.1847810    -0.9811260
  C       -3.2098970    -1.5236550    -0.8600480
  C        1.4176430     0.0124460    -1.2019210
  C        2.6723110    -0.7931220     0.7125120
  C        2.5954110     0.5075660    -1.7582080
  C        3.8444690    -0.2807100     0.1592420
  C        3.8091760     0.3684650    -1.0779380
  H       -3.0858280     1.8625520    -0.5683870
  H       -1.6562960    -2.8740610    -0.1894870
  H       -1.7397670     3.3469090     0.5447380
  H       -0.9091950     2.8760430    -0.9660740
  H        0.0285190     3.4658540     0.4190740
  H       -0.3000960     0.4345950     2.3759160
  H       -1.3175180     1.8790800     2.5775500
  H        0.4394970     2.0433230     2.3053650
  H       -4.5402610     0.0757380    -1.4297920
  H       -3.8695260    -2.3131570    -1.2108590
  H        0.4733260     0.1189110    -1.7296950
  H        2.6795660    -1.3181790     1.6641980
  H        2.5695640     1.0040610    -2.7255190
  H        4.7881850    -0.3931870     0.6878940
  H        4.7248240     0.7628080    -1.5127390
units angstrom
no_reorient  #important for SAPT in psi4, default
symmetry c1  #important for SAPT in psi4, default
}

set PROPERTIES_ORIGIN ["COM"]
properties('MP2/aug-cc-pvtz', properties = ['dipole'])
--------------------------------------------------------------------------

    Molecular point group: c1
  Charge       = 0
  Multiplicity = 1
  Basis Set: AUG-CC-PVTZ
    Blend: AUG-CC-PVTZ
  Basis Set: (AUG-CC-PVTZ AUX)
    Blend: AUG-CC-PVTZ-JKFIT

    Orbital Energies [Eh]
    ---------------------

    Doubly Occupied:

       1A    -20.540593     2A    -15.568902     3A    -11.336261
       4A    -11.286735     5A    -11.256622     6A    -11.255059
       7A    -11.249676     8A    -11.248027     9A    -11.247937
      10A    -11.247155    11A    -11.244866    12A    -11.243700
      13A    -11.242536    14A    -11.240011    15A    -11.239135
      16A    -11.237464    17A    -11.236550    18A     -1.371185
      19A     -1.258786    20A     -1.158550    21A     -1.148018
      22A     -1.052027    23A     -1.024910    24A     -1.020468
      25A     -1.015606    26A     -0.964384    27A     -0.903363
      28A     -0.882821    29A     -0.839553    30A     -0.824476
      31A     -0.799506    32A     -0.762337    33A     -0.718442
      34A     -0.693782    35A     -0.666638    36A     -0.662202
      37A     -0.640224    38A     -0.637257    39A     -0.634288
      40A     -0.616453    41A     -0.611845    42A     -0.596353
      43A     -0.593717    44A     -0.589087    45A     -0.556378
      46A     -0.549939    47A     -0.544967    48A     -0.523204
      49A     -0.522383    50A     -0.517155    51A     -0.506629
      52A     -0.501088    53A     -0.495606    54A     -0.481753
      55A     -0.422890    56A     -0.403502    57A     -0.345741
      58A     -0.340486    59A     -0.339894    60A     -0.311369

  @DF-RHF Final Energy:  -706.28660923835605

   => Energetics <=

    Nuclear Repulsion Energy =           1160.1343438496423914
    One-Electron Energy =               -3262.9009250203666852
    Two-Electron Energy =                1396.4799719323682439
    Total Energy =                       -706.2866092383560499
  Basis Set: (AUG-CC-PVTZ AUX)
    Blend: AUG-CC-PVTZ-RI
    Molecular point group: c1

    Geometry (in Angstrom), charge = 0, multiplicity = 1:

       Center              X                  Y                   Z               Mass
    ------------   -----------------  -----------------  -----------------  -----------------
         O            0.316110017212    -2.077994010702     1.509706017573    15.994914619570
         N           -0.638333982788     1.555301989298     0.592173017573    14.003074004430
         C           -1.528428482788     0.591836489298     0.062489017573    12.000000000000
         C           -1.118952982788    -0.779996010702     0.140156017573    12.000000000000
         C            0.225561017212    -1.197158010702     0.646065017573    12.000000000000
         C           -2.757079982788     0.878764989298    -0.506658982427    12.000000000000
         C           -1.985823982788    -1.792307010702    -0.284101982427    12.000000000000
         C            1.446322017212    -0.589821010702     0.041830017573    12.000000000000
         C           -0.845870982788     2.915810989298     0.125836017573    12.000000000000
         C           -0.455861982788     1.508950989298     2.043359017573    12.000000000000
         C           -3.591047982788    -0.137426010702    -0.979327982427    12.000000000000
         C           -3.216832982788    -1.476300010702    -0.858249982427    12.000000000000
         C            1.410707017212     0.059800989298    -1.200122982427    12.000000000000
         C            2.665375017212    -0.745767010702     0.714310017573    12.000000000000
         C            2.588475017212     0.554920989298    -1.756409982427    12.000000000000
         C            3.837533017212    -0.233355010702     0.161040017573    12.000000000000
         C            3.802240017212     0.415819989298    -1.076139982427    12.000000000000
         H           -3.092763982788     1.909906989298    -0.566588982427     1.007825032230
         H           -1.663231982788    -2.826706010702    -0.187688982427     1.007825032230
         H           -1.746702982788     3.394263989298     0.546536017573     1.007825032230
         H           -0.916130982788     2.923397989298    -0.964275982427     1.007825032230
         H            0.021583017212     3.513208989298     0.420872017573     1.007825032230
         H           -0.307031982788     0.481949989298     2.377714017573     1.007825032230
         H           -1.324453982788     1.926434989298     2.579348017573     1.007825032230
         H            0.432561017212     2.090677989298     2.307163017573     1.007825032230
         H           -4.547196982788     0.123092989298    -1.427993982427     1.007825032230
         H           -3.876461982788    -2.265802010702    -1.209060982427     1.007825032230
         H            0.466390017212     0.166265989298    -1.727896982427     1.007825032230
         H            2.672630017212    -1.270824010702     1.665996017573     1.007825032230
         H            2.562628017212     1.051415989298    -2.723720982427     1.007825032230
         H            4.781249017212    -0.345832010702     0.689692017573     1.007825032230
         H            4.717888017212     0.810162989298    -1.510940982427     1.007825032230

  Basis Set: AUG-CC-PVTZ
    Blend: AUG-CC-PVTZ
  Basis Set: (AUG-CC-PVTZ AUX)
    Blend: AUG-CC-PVTZ-JKFIT
	 Reference Energy          =    -706.2866092383560499 [Eh]
	 Singles Energy            =      -0.0000000000000000 [Eh]
	 Same-Spin Energy          =      -0.7793004414336485 [Eh]
	 Opposite-Spin Energy      =      -2.4271926193913154 [Eh]
	 Correlation Energy        =      -3.2064930608249638 [Eh]
	 Total Energy              =    -709.4931022991810323 [Eh]

	 ================> DF-SCS-MP2 Energies <==================
	-----------------------------------------------------------
	 SCS Same-Spin Scale       =       0.3333333333333333 [-]
	 SCS Opposite-Spin Scale   =       1.2000000000000000 [-]
	 SCS Same-Spin Energy      =      -0.2597668138112161 [Eh]
	 SCS Opposite-Spin Energy  =      -2.9126311432695782 [Eh]
	 SCS Correlation Energy    =      -3.1723979570807943 [Eh]
	 SCS Total Energy          =    -709.4590071954368113 [Eh]
	-----------------------------------------------------------

  Dipole Moment: [D]
     X:    -0.2550      Y:     3.1059      Z:    -1.4532     Total:     3.4386

*** Psi4 exiting successfully. Buy a developer a beer!
