                               Psi4 1.3.2 release

  ==> Input File <==

--------------------------------------------------------------------------
#psi4
#
memory 32 gb

molecule  {
0 1
  O        0.3230460    -2.1253490     1.5079080
  N       -0.6313980     1.5079470     0.5903750
  C       -1.5742863     0.6361216    -0.0029051
  C       -1.1120170    -0.8273510     0.1383580
  C        0.2324970    -1.2445130     0.6442670
  C       -2.7501440     0.8314100    -0.5084570
  C       -1.9788880    -1.8396620    -0.2859000
  C        1.4532580    -0.6371760     0.0400320
  C       -0.8389350     2.8684560     0.1240380
  C       -0.4489260     1.4615960     2.0415610
  C       -3.5841120    -0.1847810    -0.9811260
  C       -3.2098970    -1.5236550    -0.8600480
  C        1.4176430     0.0124460    -1.2019210
  C        2.6723110    -0.7931220     0.7125120
  C        2.5954110     0.5075660    -1.7582080
  C        3.8444690    -0.2807100     0.1592420
  C        3.8091760     0.3684650    -1.0779380
  H       -3.0858280     1.8625520    -0.5683870
  H       -1.6562960    -2.8740610    -0.1894870
  H       -1.7397670     3.3469090     0.5447380
  H       -0.9091950     2.8760430    -0.9660740
  H        0.0285190     3.4658540     0.4190740
  H       -0.3000960     0.4345950     2.3759160
  H       -1.3175180     1.8790800     2.5775500
  H        0.4394970     2.0433230     2.3053650
  H       -4.5402610     0.0757380    -1.4297920
  H       -3.8695260    -2.3131570    -1.2108590
  H        0.4733260     0.1189110    -1.7296950
  H        2.6795660    -1.3181790     1.6641980
  H        2.5695640     1.0040610    -2.7255190
  H        4.7881850    -0.3931870     0.6878940
  H        4.7248240     0.7628080    -1.5127390
units angstrom
no_reorient  #important for SAPT in psi4, default
symmetry c1  #important for SAPT in psi4, default
}

set PROPERTIES_ORIGIN ["COM"]
properties('MP2/aug-cc-pvtz', properties = ['dipole'])
--------------------------------------------------------------------------

    Molecular point group: c1
  Charge       = 0
  Multiplicity = 1
  Basis Set: AUG-CC-PVTZ
    Blend: AUG-CC-PVTZ
  Basis Set: (AUG-CC-PVTZ AUX)
    Blend: AUG-CC-PVTZ-JKFIT

    Orbital Energies [Eh]
    ---------------------

    Doubly Occupied:

       1A    -20.539392     2A    -15.569860     3A    -11.336079
       4A    -11.284581     5A    -11.257237     6A    -11.254148
       7A    -11.251570     8A    -11.251001     9A    -11.247345
      10A    -11.247158    11A    -11.246483    12A    -11.243055
      13A    -11.241891    14A    -11.239483    15A    -11.238613
      16A    -11.238568    17A    -11.227965    18A     -1.369990
      19A     -1.259783    20A     -1.157773    21A     -1.148889
      22A     -1.050978    23A     -1.034774    24A     -1.020170
      25A     -1.009912    26A     -0.964738    27A     -0.903419
      28A     -0.885888    29A     -0.841436    30A     -0.825406
      31A     -0.789931    32A     -0.761861    33A     -0.718469
      34A     -0.695498    35A     -0.669169    36A     -0.660123
      37A     -0.639605    38A     -0.638340    39A     -0.632433
      40A     -0.617444    41A     -0.610823    42A     -0.594526
      43A     -0.593085    44A     -0.588854    45A     -0.557020
      46A     -0.550547    47A     -0.543839    48A     -0.526189
      49A     -0.522417    50A     -0.516253    51A     -0.509646
      52A     -0.496624    53A     -0.489615    54A     -0.472309
      55A     -0.422375    56A     -0.405172    57A     -0.352572
      58A     -0.339870    59A     -0.338387    60A     -0.310150

  @DF-RHF Final Energy:  -706.26204466287720

   => Energetics <=

    Nuclear Repulsion Energy =           1159.2543841023921232
    One-Electron Energy =               -3261.1313957863849282
    Two-Electron Energy =                1395.6149670211154898
    Total Energy =                       -706.2620446628773152
  Basis Set: (AUG-CC-PVTZ AUX)
    Blend: AUG-CC-PVTZ-RI
    Molecular point group: c1

    Geometry (in Angstrom), charge = 0, multiplicity = 1:

       Center              X                  Y                   Z               Mass
    ------------   -----------------  -----------------  -----------------  -----------------
         O            0.318924243609    -2.082878978036     1.513096071393    15.994914619570
         N           -0.635519756391     1.550417021964     0.595563071393    14.003074004430
         C           -1.578408056391     0.678591621964     0.002282971393    12.000000000000
         C           -1.116138756391    -0.784880978036     0.143546071393    12.000000000000
         C            0.228375243609    -1.202042978036     0.649455071393    12.000000000000
         C           -2.754265756391     0.873880021964    -0.503268928607    12.000000000000
         C           -1.983009756391    -1.797191978036    -0.280711928607    12.000000000000
         C            1.449136243609    -0.594705978036     0.045220071393    12.000000000000
         C           -0.843056756391     2.910926021964     0.129226071393    12.000000000000
         C           -0.453047756391     1.504066021964     2.046749071393    12.000000000000
         C           -3.588233756391    -0.142310978036    -0.975937928607    12.000000000000
         C           -3.214018756391    -1.481184978036    -0.854859928607    12.000000000000
         C            1.413521243609     0.054916021964    -1.196732928607    12.000000000000
         C            2.668189243609    -0.750651978036     0.717700071393    12.000000000000
         C            2.591289243609     0.550036021964    -1.753019928607    12.000000000000
         C            3.840347243609    -0.238239978036     0.164430071393    12.000000000000
         C            3.805054243609     0.410935021964    -1.072749928607    12.000000000000
         H           -3.089949756391     1.905022021964    -0.563198928607     1.007825032230
         H           -1.660417756391    -2.831590978036    -0.184298928607     1.007825032230
         H           -1.743888756391     3.389379021964     0.549926071393     1.007825032230
         H           -0.913316756391     2.918513021964    -0.960885928607     1.007825032230
         H            0.024397243609     3.508324021964     0.424262071393     1.007825032230
         H           -0.304217756391     0.477065021964     2.381104071393     1.007825032230
         H           -1.321639756391     1.921550021964     2.582738071393     1.007825032230
         H            0.435375243609     2.085793021964     2.310553071393     1.007825032230
         H           -4.544382756391     0.118208021964    -1.424603928607     1.007825032230
         H           -3.873647756391    -2.270686978036    -1.205670928607     1.007825032230
         H            0.469204243609     0.161381021964    -1.724506928607     1.007825032230
         H            2.675444243609    -1.275708978036     1.669386071393     1.007825032230
         H            2.565442243609     1.046531021964    -2.720330928607     1.007825032230
         H            4.784063243609    -0.350716978036     0.693082071393     1.007825032230
         H            4.720702243609     0.805278021964    -1.507550928607     1.007825032230

  Basis Set: AUG-CC-PVTZ
    Blend: AUG-CC-PVTZ
  Basis Set: (AUG-CC-PVTZ AUX)
    Blend: AUG-CC-PVTZ-JKFIT
	 Reference Energy          =    -706.2620446628772015 [Eh]
	 Singles Energy            =      -0.0000000000000000 [Eh]
	 Same-Spin Energy          =      -0.7790149086901489 [Eh]
	 Opposite-Spin Energy      =      -2.4286026886582590 [Eh]
	 Correlation Energy        =      -3.2076175973484080 [Eh]
	 Total Energy              =    -709.4696622602256184 [Eh]

	 ================> DF-SCS-MP2 Energies <==================
	-----------------------------------------------------------
	 SCS Same-Spin Scale       =       0.3333333333333333 [-]
	 SCS Opposite-Spin Scale   =       1.2000000000000000 [-]
	 SCS Same-Spin Energy      =      -0.2596716362300496 [Eh]
	 SCS Opposite-Spin Energy  =      -2.9143232263899108 [Eh]
	 SCS Correlation Energy    =      -3.1739948626199603 [Eh]
	 SCS Total Energy          =    -709.4360395254971081 [Eh]
	-----------------------------------------------------------

  Dipole Moment: [D]
     X:    -0.3529      Y:     3.0966      Z:    -1.4187     Total:     3.4244

*** Psi4 exiting successfully. Buy a developer a beer!
