                               Psi4 1.3.2 release

  ==> Input File <==

--------------------------------------------------------------------------
#psi4
#
memory 32 gb

molecule  {
0 1
  O        0.3230460    -2.1253490     1.5079080
  N       -0.6313980     1.5079470     0.5903750
  C       -1.5101070     0.5270120     0.0739100
  C       -1.1120170    -0.8273510     0.1383580
  C        0.2324970    -1.2445130     0.6442670
  C       -2.7501440     0.8314100    -0.5084570
  C       -1.9788880    -1.8396620    -0.2859000
  C        1.4532580    -0.6371760     0.0400320
  C       -0.8348603     2.8845587     0.1719616
  C       -0.4489260     1.4615960     2.0415610
  C       -3.5841120    -0.1847810    -0.9811260
  C       -3.2098970    -1.5236550    -0.8600480
  C        1.4176430     0.0124460    -1.2019210
  C        2.6723110    -0.7931220     0.7125120
  C        2.5954110     0.5075660    -1.7582080
  C        3.8444690    -0.2807100     0.1592420
  C        3.8091760     0.3684650    -1.0779380
  H       -3.0858280     1.8625520    -0.5683870
  H       -1.6562960    -2.8740610    -0.1894870
  H       -1.7397670     3.3469090     0.5447380
  H       -0.9091950     2.8760430    -0.9660740
  H        0.0285190     3.4658540     0.4190740
  H       -0.3000960     0.4345950     2.3759160
  H       -1.3175180     1.8790800     2.5775500
  H        0.4394970     2.0433230     2.3053650
  H       -4.5402610     0.0757380    -1.4297920
  H       -3.8695260    -2.3131570    -1.2108590
  H        0.4733260     0.1189110    -1.7296950
  H        2.6795660    -1.3181790     1.6641980
  H        2.5695640     1.0040610    -2.7255190
  H        4.7881850    -0.3931870     0.6878940
  H        4.7248240     0.7628080    -1.5127390
units angstrom
no_reorient  #important for SAPT in psi4, default
symmetry c1  #important for SAPT in psi4, default
}

set PROPERTIES_ORIGIN ["COM"]
properties('MP2/aug-cc-pvtz', properties = ['dipole'])
--------------------------------------------------------------------------

    Molecular point group: c1
  Charge       = 0
  Multiplicity = 1
  Basis Set: AUG-CC-PVTZ
    Blend: AUG-CC-PVTZ
  Basis Set: (AUG-CC-PVTZ AUX)
    Blend: AUG-CC-PVTZ-JKFIT

    Orbital Energies [Eh]
    ---------------------

    Doubly Occupied:

       1A    -20.540792     2A    -15.569050     3A    -11.336255
       4A    -11.287699     5A    -11.257422     6A    -11.253833
       7A    -11.249413     8A    -11.248207     9A    -11.247997
      10A    -11.247189    11A    -11.243757    12A    -11.243603
      13A    -11.242592    14A    -11.239997    15A    -11.239627
      16A    -11.239161    17A    -11.236471    18A     -1.371388
      19A     -1.259001    20A     -1.158688    21A     -1.148520
      22A     -1.052954    23A     -1.024209    24A     -1.019918
      25A     -1.016588    26A     -0.962416    27A     -0.904266
      28A     -0.882628    29A     -0.839250    30A     -0.824566
      31A     -0.801891    32A     -0.762024    33A     -0.718513
      34A     -0.693104    35A     -0.666157    36A     -0.664013
      37A     -0.639957    38A     -0.637115    39A     -0.634695
      40A     -0.616012    41A     -0.612371    42A     -0.596714
      43A     -0.593820    44A     -0.589378    45A     -0.558990
      46A     -0.552943    47A     -0.546950    48A     -0.522800
      49A     -0.517446    50A     -0.511701    51A     -0.505047
      52A     -0.502713    53A     -0.495830    54A     -0.482003
      55A     -0.423174    56A     -0.404509    57A     -0.345519
      58A     -0.340202    59A     -0.340015    60A     -0.311920

  @DF-RHF Final Energy:  -706.28451351943716

   => Energetics <=

    Nuclear Repulsion Energy =           1160.1257796823479111
    One-Electron Energy =               -3262.8706109087856930
    Two-Electron Energy =                1396.4603177070005131
    Total Energy =                       -706.2845135194372688
  Basis Set: (AUG-CC-PVTZ AUX)
    Blend: AUG-CC-PVTZ-RI
    Molecular point group: c1

    Geometry (in Angstrom), charge = 0, multiplicity = 1:

       Center              X                  Y                   Z               Mass
    ------------   -----------------  -----------------  -----------------  -----------------
         O            0.315285895763    -2.077921152059     1.506446750029    15.994914619570
         N           -0.639158104237     1.555374847941     0.588913750029    14.003074004430
         C           -1.517867104237     0.574439847941     0.072448750029    12.000000000000
         C           -1.119777104237    -0.779923152059     0.136896750029    12.000000000000
         C            0.224736895763    -1.197085152059     0.642805750029    12.000000000000
         C           -2.757904104237     0.878837847941    -0.509918249971    12.000000000000
         C           -1.986648104237    -1.792234152059    -0.287361249971    12.000000000000
         C            1.445497895763    -0.589748152059     0.038570750029    12.000000000000
         C           -0.842620404237     2.931986547941     0.170500350029    12.000000000000
         C           -0.456686104237     1.509023847941     2.040099750029    12.000000000000
         C           -3.591872104237    -0.137353152059    -0.982587249971    12.000000000000
         C           -3.217657104237    -1.476227152059    -0.861509249971    12.000000000000
         C            1.409882895763     0.059873847941    -1.203382249971    12.000000000000
         C            2.664550895763    -0.745694152059     0.711050750029    12.000000000000
         C            2.587650895763     0.554993847941    -1.759669249971    12.000000000000
         C            3.836708895763    -0.233282152059     0.157780750029    12.000000000000
         C            3.801415895763     0.415892847941    -1.079399249971    12.000000000000
         H           -3.093588104237     1.909979847941    -0.569848249971     1.007825032230
         H           -1.664056104237    -2.826633152059    -0.190948249971     1.007825032230
         H           -1.747527104237     3.394336847941     0.543276750029     1.007825032230
         H           -0.916955104237     2.923470847941    -0.967535249971     1.007825032230
         H            0.020758895763     3.513281847941     0.417612750029     1.007825032230
         H           -0.307856104237     0.482022847941     2.374454750029     1.007825032230
         H           -1.325278104237     1.926507847941     2.576088750029     1.007825032230
         H            0.431736895763     2.090750847941     2.303903750029     1.007825032230
         H           -4.548021104237     0.123165847941    -1.431253249971     1.007825032230
         H           -3.877286104237    -2.265729152059    -1.212320249971     1.007825032230
         H            0.465565895763     0.166338847941    -1.731156249971     1.007825032230
         H            2.671805895763    -1.270751152059     1.662736750029     1.007825032230
         H            2.561803895763     1.051488847941    -2.726980249971     1.007825032230
         H            4.780424895763    -0.345759152059     0.686432750029     1.007825032230
         H            4.717063895763     0.810235847941    -1.514200249971     1.007825032230

  Basis Set: AUG-CC-PVTZ
    Blend: AUG-CC-PVTZ
  Basis Set: (AUG-CC-PVTZ AUX)
    Blend: AUG-CC-PVTZ-JKFIT
	 Reference Energy          =    -706.2845135194371551 [Eh]
	 Singles Energy            =      -0.0000000000000000 [Eh]
	 Same-Spin Energy          =      -0.7793568053340314 [Eh]
	 Opposite-Spin Energy      =      -2.4272873372004033 [Eh]
	 Correlation Energy        =      -3.2066441425344347 [Eh]
	 Total Energy              =    -709.4911576619715561 [Eh]

	 ================> DF-SCS-MP2 Energies <==================
	-----------------------------------------------------------
	 SCS Same-Spin Scale       =       0.3333333333333333 [-]
	 SCS Opposite-Spin Scale   =       1.2000000000000000 [-]
	 SCS Same-Spin Energy      =      -0.2597856017780105 [Eh]
	 SCS Opposite-Spin Energy  =      -2.9127448046404840 [Eh]
	 SCS Correlation Energy    =      -3.1725304064184945 [Eh]
	 SCS Total Energy          =    -709.4570439258556007 [Eh]
	-----------------------------------------------------------

  Dipole Moment: [D]
     X:    -0.2552      Y:     3.1181      Z:    -1.4338     Total:     3.4415

*** Psi4 exiting successfully. Buy a developer a beer!
