                               Psi4 1.3.2 release

  ==> Input File <==

--------------------------------------------------------------------------
#psi4
#
memory 32 gb

molecule  {
0 1
  O        0.3230460    -2.1253490     1.5079080
  N       -0.6313980     1.5079470     0.5903750
  C       -1.5326068     0.5622445     0.0476333
  C       -1.1120170    -0.8273510     0.1383580
  C        0.2324970    -1.2445130     0.6442670
  C       -2.7501440     0.8314100    -0.5084570
  C       -1.9788880    -1.8396620    -0.2859000
  C        1.4532580    -0.6371760     0.0400320
  C       -0.8389350     2.8684560     0.1240380
  C       -0.4489260     1.4615960     2.0415610
  C       -3.5841120    -0.1847810    -0.9811260
  C       -3.2098970    -1.5236550    -0.8600480
  C        1.4176430     0.0124460    -1.2019210
  C        2.6723110    -0.7931220     0.7125120
  C        2.5954110     0.5075660    -1.7582080
  C        3.8444690    -0.2807100     0.1592420
  C        3.8091760     0.3684650    -1.0779380
  H       -3.0858280     1.8625520    -0.5683870
  H       -1.6562960    -2.8740610    -0.1894870
  H       -1.7397670     3.3469090     0.5447380
  H       -0.9091950     2.8760430    -0.9660740
  H        0.0285190     3.4658540     0.4190740
  H       -0.3000960     0.4345950     2.3759160
  H       -1.3175180     1.8790800     2.5775500
  H        0.4394970     2.0433230     2.3053650
  H       -4.5402610     0.0757380    -1.4297920
  H       -3.8695260    -2.3131570    -1.2108590
  H        0.4733260     0.1189110    -1.7296950
  H        2.6795660    -1.3181790     1.6641980
  H        2.5695640     1.0040610    -2.7255190
  H        4.7881850    -0.3931870     0.6878940
  H        4.7248240     0.7628080    -1.5127390
units angstrom
no_reorient  #important for SAPT in psi4, default
symmetry c1  #important for SAPT in psi4, default
}

set PROPERTIES_ORIGIN ["COM"]
properties('MP2/aug-cc-pvtz', properties = ['dipole'])
--------------------------------------------------------------------------

    Molecular point group: c1
  Charge       = 0
  Multiplicity = 1
  Basis Set: AUG-CC-PVTZ
    Blend: AUG-CC-PVTZ
  Basis Set: (AUG-CC-PVTZ AUX)
    Blend: AUG-CC-PVTZ-JKFIT

    Orbital Energies [Eh]
    ---------------------

    Doubly Occupied:

       1A    -20.540379     2A    -15.569073     3A    -11.336286
       4A    -11.286430     5A    -11.256060     6A    -11.255479
       7A    -11.250018     8A    -11.248088     9A    -11.247819
      10A    -11.247019    11A    -11.246327    12A    -11.243577
      13A    -11.242412    14A    -11.239905    15A    -11.239032
      16A    -11.236843    17A    -11.235558    18A     -1.370970
      19A     -1.258919    20A     -1.158386    21A     -1.148004
      22A     -1.051367    23A     -1.026521    24A     -1.020693
      25A     -1.014748    26A     -0.964395    27A     -0.903438
      28A     -0.883364    29A     -0.839869    30A     -0.824550
      31A     -0.797487    32A     -0.762528    33A     -0.718429
      34A     -0.694134    35A     -0.667129    36A     -0.661702
      37A     -0.640081    38A     -0.637252    39A     -0.633970
      40A     -0.616750    41A     -0.611733    42A     -0.595976
      43A     -0.593708    44A     -0.589058    45A     -0.556460
      46A     -0.550029    47A     -0.544825    48A     -0.523604
      49A     -0.522615    50A     -0.516977    51A     -0.507216
      52A     -0.499333    53A     -0.494916    54A     -0.480890
      55A     -0.422832    56A     -0.403961    57A     -0.346577
      58A     -0.340472    59A     -0.339673    60A     -0.311271

  @DF-RHF Final Energy:  -706.28441528314249

   => Energetics <=

    Nuclear Repulsion Energy =           1159.9505323690523255
    One-Electron Energy =               -3262.5356614440938756
    Two-Electron Energy =                1396.3007137918989429
    Total Energy =                       -706.2844152831426072
  Basis Set: (AUG-CC-PVTZ AUX)
    Blend: AUG-CC-PVTZ-RI
    Molecular point group: c1

    Geometry (in Angstrom), charge = 0, multiplicity = 1:

       Center              X                  Y                   Z               Mass
    ------------   -----------------  -----------------  -----------------  -----------------
         O            0.316702476108    -2.078940885211     1.510402071353    15.994914619570
         N           -0.637741523892     1.554355114789     0.592869071353    14.003074004430
         C           -1.538950323892     0.608652614789     0.050127371353    12.000000000000
         C           -1.118360523892    -0.780942885211     0.140852071353    12.000000000000
         C            0.226153476108    -1.198104885211     0.646761071353    12.000000000000
         C           -2.756487523892     0.877818114789    -0.505962928647    12.000000000000
         C           -1.985231523892    -1.793253885211    -0.283405928647    12.000000000000
         C            1.446914476108    -0.590767885211     0.042526071353    12.000000000000
         C           -0.845278523892     2.914864114789     0.126532071353    12.000000000000
         C           -0.455269523892     1.508004114789     2.044055071353    12.000000000000
         C           -3.590455523892    -0.138372885211    -0.978631928647    12.000000000000
         C           -3.216240523892    -1.477246885211    -0.857553928647    12.000000000000
         C            1.411299476108     0.058854114789    -1.199426928647    12.000000000000
         C            2.665967476108    -0.746713885211     0.715006071353    12.000000000000
         C            2.589067476108     0.553974114789    -1.755713928647    12.000000000000
         C            3.838125476108    -0.234301885211     0.161736071353    12.000000000000
         C            3.802832476108     0.414873114789    -1.075443928647    12.000000000000
         H           -3.092171523892     1.908960114789    -0.565892928647     1.007825032230
         H           -1.662639523892    -2.827652885211    -0.186992928647     1.007825032230
         H           -1.746110523892     3.393317114789     0.547232071353     1.007825032230
         H           -0.915538523892     2.922451114789    -0.963579928647     1.007825032230
         H            0.022175476108     3.512262114789     0.421568071353     1.007825032230
         H           -0.306439523892     0.481003114789     2.378410071353     1.007825032230
         H           -1.323861523892     1.925488114789     2.580044071353     1.007825032230
         H            0.433153476108     2.089731114789     2.307859071353     1.007825032230
         H           -4.546604523892     0.122146114789    -1.427297928647     1.007825032230
         H           -3.875869523892    -2.266748885211    -1.208364928647     1.007825032230
         H            0.466982476108     0.165319114789    -1.727200928647     1.007825032230
         H            2.673222476108    -1.271770885211     1.666692071353     1.007825032230
         H            2.563220476108     1.050469114789    -2.723024928647     1.007825032230
         H            4.781841476108    -0.346778885211     0.690388071353     1.007825032230
         H            4.718480476108     0.809216114789    -1.510244928647     1.007825032230

  Basis Set: AUG-CC-PVTZ
    Blend: AUG-CC-PVTZ
  Basis Set: (AUG-CC-PVTZ AUX)
    Blend: AUG-CC-PVTZ-JKFIT
	 Reference Energy          =    -706.2844152831424935 [Eh]
	 Singles Energy            =      -0.0000000000000000 [Eh]
	 Same-Spin Energy          =      -0.7792730857928583 [Eh]
	 Opposite-Spin Energy      =      -2.4273502813775614 [Eh]
	 Correlation Energy        =      -3.2066233671704198 [Eh]
	 Total Energy              =    -709.4910386503129303 [Eh]

	 ================> DF-SCS-MP2 Energies <==================
	-----------------------------------------------------------
	 SCS Same-Spin Scale       =       0.3333333333333333 [-]
	 SCS Opposite-Spin Scale   =       1.2000000000000000 [-]
	 SCS Same-Spin Energy      =      -0.2597576952642860 [Eh]
	 SCS Opposite-Spin Energy  =      -2.9128203376530735 [Eh]
	 SCS Correlation Energy    =      -3.1725780329173596 [Eh]
	 SCS Total Energy          =    -709.4569933160598794 [Eh]
	-----------------------------------------------------------

  Dipole Moment: [D]
     X:    -0.2735      Y:     3.1030      Z:    -1.4460     Total:     3.4342

*** Psi4 exiting successfully. Buy a developer a beer!
