                               Psi4 1.4a3.dev225

  ==> Input File <==

--------------------------------------------------------------------------
#psi4
#
memory 32 gb

molecule  {
0 1
  O        0.3230460    -2.1253490     1.5079080
  N       -0.6313980     1.5079470     0.5903750
  C       -1.5411655     0.4923402     0.0556552
  C       -1.1120170    -0.8273510     0.1383580
  C        0.2324970    -1.2445130     0.6442670
  C       -2.7501440     0.8314100    -0.5084570
  C       -1.9788880    -1.8396620    -0.2859000
  C        1.4532580    -0.6371760     0.0400320
  C       -0.8389350     2.8684560     0.1240380
  C       -0.4489260     1.4615960     2.0415610
  C       -3.5841120    -0.1847810    -0.9811260
  C       -3.2098970    -1.5236550    -0.8600480
  C        1.4176430     0.0124460    -1.2019210
  C        2.6723110    -0.7931220     0.7125120
  C        2.5954110     0.5075660    -1.7582080
  C        3.8444690    -0.2807100     0.1592420
  C        3.8091760     0.3684650    -1.0779380
  H       -3.0858280     1.8625520    -0.5683870
  H       -1.6562960    -2.8740610    -0.1894870
  H       -1.7397670     3.3469090     0.5447380
  H       -0.9091950     2.8760430    -0.9660740
  H        0.0285190     3.4658540     0.4190740
  H       -0.3000960     0.4345950     2.3759160
  H       -1.3175180     1.8790800     2.5775500
  H        0.4394970     2.0433230     2.3053650
  H       -4.5402610     0.0757380    -1.4297920
  H       -3.8695260    -2.3131570    -1.2108590
  H        0.4733260     0.1189110    -1.7296950
  H        2.6795660    -1.3181790     1.6641980
  H        2.5695640     1.0040610    -2.7255190
  H        4.7881850    -0.3931870     0.6878940
  H        4.7248240     0.7628080    -1.5127390
units angstrom
no_reorient  #important for SAPT in psi4, default
symmetry c1  #important for SAPT in psi4, default
}

set PROPERTIES_ORIGIN ["COM"]
properties('MP2/aug-cc-pvtz', properties = ['dipole'])
--------------------------------------------------------------------------

    Molecular point group: c1
  Charge       = 0
  Multiplicity = 1
  Basis Set: AUG-CC-PVTZ
    Blend: AUG-CC-PVTZ
  Basis Set: (AUG-CC-PVTZ AUX)
    Blend: AUG-CC-PVTZ-JKFIT

    Orbital Energies [Eh]
    ---------------------

    Doubly Occupied:

       1A    -20.542210     2A    -15.565158     3A    -11.338322
       4A    -11.283704     5A    -11.254293     6A    -11.251237
       7A    -11.250627     8A    -11.249344     9A    -11.247954
      10A    -11.247369    11A    -11.243913    12A    -11.243416
      13A    -11.242734    14A    -11.239944    15A    -11.239084
      16A    -11.238676    17A    -11.238137    18A     -1.372693
      19A     -1.246122    20A     -1.158900    21A     -1.152740
      22A     -1.054740    23A     -1.026290    24A     -1.020905
      25A     -1.017660    26A     -0.960460    27A     -0.899035
      28A     -0.879069    29A     -0.840381    30A     -0.826037
      31A     -0.803250    32A     -0.764114    33A     -0.718932
      34A     -0.692996    35A     -0.665823    36A     -0.659787
      37A     -0.640133    38A     -0.635068    39A     -0.631998
      40A     -0.617591    41A     -0.612587    42A     -0.599743
      43A     -0.593523    44A     -0.588294    45A     -0.554295
      46A     -0.548269    47A     -0.543319    48A     -0.523457
      49A     -0.518962    50A     -0.517841    51A     -0.509770
      52A     -0.499840    53A     -0.496013    54A     -0.482505
      55A     -0.423754    56A     -0.399458    57A     -0.347417
      58A     -0.340845    59A     -0.340080    60A     -0.316128

  @DF-RHF Final Energy:  -706.28524702720676

   => Energetics <=

    Nuclear Repulsion Energy =           1160.2201721546152839
    One-Electron Energy =               -3263.0969444199367899
    Two-Electron Energy =                1396.5915252381146274
    Total Energy =                       -706.2852470272068786
  Basis Set: (AUG-CC-PVTZ AUX)
    Blend: AUG-CC-PVTZ-RI
    Molecular point group: c1

    Geometry (in Angstrom), charge = 0, multiplicity = 1:

       Center              X                  Y                   Z               Mass
    ------------   -----------------  -----------------  -----------------  -----------------
         O            0.317158706185    -2.075214566471     1.509974455937    15.994914619570
         N           -0.637285293815     1.558081433529     0.592441455937    14.003074004430
         C           -1.547052793815     0.542474633529     0.057721655937    12.000000000000
         C           -1.117904293815    -0.777216566471     0.140424455937    12.000000000000
         C            0.226609706185    -1.194378566471     0.646333455937    12.000000000000
         C           -2.756031293815     0.881544433529    -0.506390544063    12.000000000000
         C           -1.984775293815    -1.789527566471    -0.283833544063    12.000000000000
         C            1.447370706185    -0.587041566471     0.042098455937    12.000000000000
         C           -0.844822293815     2.918590433529     0.126104455937    12.000000000000
         C           -0.454813293815     1.511730433529     2.043627455937    12.000000000000
         C           -3.589999293815    -0.134646566471    -0.979059544063    12.000000000000
         C           -3.215784293815    -1.473520566471    -0.857981544063    12.000000000000
         C            1.411755706185     0.062580433529    -1.199854544063    12.000000000000
         C            2.666423706185    -0.742987566471     0.714578455937    12.000000000000
         C            2.589523706185     0.557700433529    -1.756141544063    12.000000000000
         C            3.838581706185    -0.230575566471     0.161308455937    12.000000000000
         C            3.803288706185     0.418599433529    -1.075871544063    12.000000000000
         H           -3.091715293815     1.912686433529    -0.566320544063     1.007825032230
         H           -1.662183293815    -2.823926566471    -0.187420544063     1.007825032230
         H           -1.745654293815     3.397043433529     0.546804455937     1.007825032230
         H           -0.915082293815     2.926177433529    -0.964007544063     1.007825032230
         H            0.022631706185     3.515988433529     0.421140455937     1.007825032230
         H           -0.305983293815     0.484729433529     2.377982455937     1.007825032230
         H           -1.323405293815     1.929214433529     2.579616455937     1.007825032230
         H            0.433609706185     2.093457433529     2.307431455937     1.007825032230
         H           -4.546148293815     0.125872433529    -1.427725544063     1.007825032230
         H           -3.875413293815    -2.263022566471    -1.208792544063     1.007825032230
         H            0.467438706185     0.169045433529    -1.727628544063     1.007825032230
         H            2.673678706185    -1.268044566471     1.666264455937     1.007825032230
         H            2.563676706185     1.054195433529    -2.723452544063     1.007825032230
         H            4.782297706185    -0.343052566471     0.689960455937     1.007825032230
         H            4.718936706185     0.812942433529    -1.510672544063     1.007825032230

  Basis Set: AUG-CC-PVTZ
    Blend: AUG-CC-PVTZ
  Basis Set: (AUG-CC-PVTZ AUX)
    Blend: AUG-CC-PVTZ-JKFIT
	 Reference Energy          =    -706.2852470272067649 [Eh]
	 Singles Energy            =      -0.0000000000000000 [Eh]
	 Same-Spin Energy          =      -0.7788851321983219 [Eh]
	 Opposite-Spin Energy      =      -2.4267593713916971 [Eh]
	 Correlation Energy        =      -3.2056445035900190 [Eh]
	 Total Energy              =    -709.4908915307968300 [Eh]

	 ================> DF-SCS-MP2 Energies <==================
	-----------------------------------------------------------
	 SCS Same-Spin Scale       =       0.3333333333333333 [-]
	 SCS Opposite-Spin Scale   =       1.2000000000000000 [-]
	 SCS Same-Spin Energy      =      -0.2596283773994406 [Eh]
	 SCS Opposite-Spin Energy  =      -2.9121112456700362 [Eh]
	 SCS Correlation Energy    =      -3.1717396230694770 [Eh]
	 SCS Total Energy          =    -709.4569866502762352 [Eh]
	-----------------------------------------------------------

  Dipole Moment: [D]
     X:    -0.3664      Y:     2.9112      Z:    -1.5706     Total:     3.3281

*** Psi4 exiting successfully. Buy a developer a beer!
