                               Psi4 1.3.2 release

  ==> Input File <==

--------------------------------------------------------------------------
#psi4
#
memory 32 gb

molecule  {
0 1
  O        0.3230460    -2.1253490     1.5079080
  N       -0.6313980     1.5079470     0.5903750
  C       -1.5101070     0.5270120     0.0739100
  C       -1.1120170    -0.8273510     0.1383580
  C        0.2324970    -1.2445130     0.6442670
  C       -2.7501440     0.8314100    -0.5084570
  C       -1.9788880    -1.8396620    -0.2859000
  C        1.4532580    -0.6371760     0.0400320
  C       -0.8408778     2.8597817     0.1002856
  C       -0.4489260     1.4615960     2.0415610
  C       -3.5841120    -0.1847810    -0.9811260
  C       -3.2098970    -1.5236550    -0.8600480
  C        1.4176430     0.0124460    -1.2019210
  C        2.6723110    -0.7931220     0.7125120
  C        2.5954110     0.5075660    -1.7582080
  C        3.8444690    -0.2807100     0.1592420
  C        3.8091760     0.3684650    -1.0779380
  H       -3.0858280     1.8625520    -0.5683870
  H       -1.6562960    -2.8740610    -0.1894870
  H       -1.7397670     3.3469090     0.5447380
  H       -0.9091950     2.8760430    -0.9660740
  H        0.0285190     3.4658540     0.4190740
  H       -0.3000960     0.4345950     2.3759160
  H       -1.3175180     1.8790800     2.5775500
  H        0.4394970     2.0433230     2.3053650
  H       -4.5402610     0.0757380    -1.4297920
  H       -3.8695260    -2.3131570    -1.2108590
  H        0.4733260     0.1189110    -1.7296950
  H        2.6795660    -1.3181790     1.6641980
  H        2.5695640     1.0040610    -2.7255190
  H        4.7881850    -0.3931870     0.6878940
  H        4.7248240     0.7628080    -1.5127390
units angstrom
no_reorient  #important for SAPT in psi4, default
symmetry c1  #important for SAPT in psi4, default
}

set PROPERTIES_ORIGIN ["COM"]
properties('MP2/aug-cc-pvtz', properties = ['dipole'])
--------------------------------------------------------------------------

    Molecular point group: c1
  Charge       = 0
  Multiplicity = 1
  Basis Set: AUG-CC-PVTZ
    Blend: AUG-CC-PVTZ
  Basis Set: (AUG-CC-PVTZ AUX)
    Blend: AUG-CC-PVTZ-JKFIT

    Orbital Energies [Eh]
    ---------------------

    Doubly Occupied:

       1A    -20.540818     2A    -15.568700     3A    -11.336211
       4A    -11.286587     5A    -11.257436     6A    -11.255141
       7A    -11.249261     8A    -11.248093     9A    -11.247937
      10A    -11.247357    11A    -11.243869    12A    -11.243047
      13A    -11.242704    14A    -11.240187    15A    -11.239287
      16A    -11.239190    17A    -11.236273    18A     -1.371413
      19A     -1.258624    20A     -1.158755    21A     -1.147969
      22A     -1.052833    23A     -1.024216    24A     -1.019803
      25A     -1.015659    26A     -0.965575    27A     -0.902851
      28A     -0.882210    29A     -0.839311    30A     -0.824545
      31A     -0.801383    32A     -0.762078    33A     -0.718538
      34A     -0.693861    35A     -0.666465    36A     -0.662285
      37A     -0.640907    38A     -0.638045    39A     -0.633710
      40A     -0.616185    41A     -0.611653    42A     -0.596622
      43A     -0.593759    44A     -0.589116    45A     -0.556476
      46A     -0.550066    47A     -0.541149    48A     -0.527249
      49A     -0.522520    50A     -0.517385    51A     -0.506258
      52A     -0.502647    53A     -0.496058    54A     -0.482422
      55A     -0.422806    56A     -0.402202    57A     -0.345371
      58A     -0.340309    59A     -0.340092    60A     -0.311115

  @DF-RHF Final Energy:  -706.28666836329671

   => Energetics <=

    Nuclear Repulsion Energy =           1160.4296791237964044
    One-Electron Energy =               -3263.4835114475858973
    Two-Electron Energy =                1396.7671639604930078
    Total Energy =                       -706.2866683632967124
  Basis Set: (AUG-CC-PVTZ AUX)
    Blend: AUG-CC-PVTZ-RI
    Molecular point group: c1

    Geometry (in Angstrom), charge = 0, multiplicity = 1:

       Center              X                  Y                   Z               Mass
    ------------   -----------------  -----------------  -----------------  -----------------
         O            0.315606664629    -2.076600389252     1.510267511012    15.994914619570
         N           -0.638837335371     1.556695610748     0.592734511012    14.003074004430
         C           -1.517546335371     0.575760610748     0.076269511012    12.000000000000
         C           -1.119456335371    -0.778602389252     0.140717511012    12.000000000000
         C            0.225057664629    -1.195764389252     0.646626511012    12.000000000000
         C           -2.757583335371     0.880158610748    -0.506097488988    12.000000000000
         C           -1.986327335371    -1.790913389252    -0.283540488988    12.000000000000
         C            1.445818664629    -0.588427389252     0.042391511012    12.000000000000
         C           -0.848317135371     2.908530310748     0.102645111012    12.000000000000
         C           -0.456365335371     1.510344610748     2.043920511012    12.000000000000
         C           -3.591551335371    -0.136032389252    -0.978766488988    12.000000000000
         C           -3.217336335371    -1.474906389252    -0.857688488988    12.000000000000
         C            1.410203664629     0.061194610748    -1.199561488988    12.000000000000
         C            2.664871664629    -0.744373389252     0.714871511012    12.000000000000
         C            2.587971664629     0.556314610748    -1.755848488988    12.000000000000
         C            3.837029664629    -0.231961389252     0.161601511012    12.000000000000
         C            3.801736664629     0.417213610748    -1.075578488988    12.000000000000
         H           -3.093267335371     1.911300610748    -0.566027488988     1.007825032230
         H           -1.663735335371    -2.825312389252    -0.187127488988     1.007825032230
         H           -1.747206335371     3.395657610748     0.547097511012     1.007825032230
         H           -0.916634335371     2.924791610748    -0.963714488988     1.007825032230
         H            0.021079664629     3.514602610748     0.421433511012     1.007825032230
         H           -0.307535335371     0.483343610748     2.378275511012     1.007825032230
         H           -1.324957335371     1.927828610748     2.579909511012     1.007825032230
         H            0.432057664629     2.092071610748     2.307724511012     1.007825032230
         H           -4.547700335371     0.124486610748    -1.427432488988     1.007825032230
         H           -3.876965335371    -2.264408389252    -1.208499488988     1.007825032230
         H            0.465886664629     0.167659610748    -1.727335488988     1.007825032230
         H            2.672126664629    -1.269430389252     1.666557511012     1.007825032230
         H            2.562124664629     1.052809610748    -2.723159488988     1.007825032230
         H            4.780745664629    -0.344438389252     0.690253511012     1.007825032230
         H            4.717384664629     0.811556610748    -1.510379488988     1.007825032230

  Basis Set: AUG-CC-PVTZ
    Blend: AUG-CC-PVTZ
  Basis Set: (AUG-CC-PVTZ AUX)
    Blend: AUG-CC-PVTZ-JKFIT
	 Reference Energy          =    -706.2866683632967124 [Eh]
	 Singles Energy            =      -0.0000000000000000 [Eh]
	 Same-Spin Energy          =      -0.7793180326139025 [Eh]
	 Opposite-Spin Energy      =      -2.4271206173921125 [Eh]
	 Correlation Energy        =      -3.2064386500060151 [Eh]
	 Total Energy              =    -709.4931070133027333 [Eh]

	 ================> DF-SCS-MP2 Energies <==================
	-----------------------------------------------------------
	 SCS Same-Spin Scale       =       0.3333333333333333 [-]
	 SCS Opposite-Spin Scale   =       1.2000000000000000 [-]
	 SCS Same-Spin Energy      =      -0.2597726775379675 [Eh]
	 SCS Opposite-Spin Energy  =      -2.9125447408705347 [Eh]
	 SCS Correlation Energy    =      -3.1723174184085021 [Eh]
	 SCS Total Energy          =    -709.4589857817052234 [Eh]
	-----------------------------------------------------------

  Dipole Moment: [D]
     X:    -0.2268      Y:     3.0994      Z:    -1.4711     Total:     3.4383

*** Psi4 exiting successfully. Buy a developer a beer!
