                               Psi4 1.3.2 release

  ==> Input File <==

--------------------------------------------------------------------------
#psi4
#
memory 32 gb

molecule  {
0 1
  O        0.3230460    -2.1253490     1.5079080
  N       -0.6313980     1.5079470     0.5903750
  C       -1.5101070     0.5270120     0.0739100
  C       -1.1120170    -0.8273510     0.1383580
  C        0.2324970    -1.2445130     0.6442670
  C       -2.7501440     0.8314100    -0.5084570
  C       -1.9788880    -1.8396620    -0.2859000
  C        1.4532580    -0.6371760     0.0400320
  C       -0.8427568     2.8506957     0.0766826
  C       -0.4489260     1.4615960     2.0415610
  C       -3.5841120    -0.1847810    -0.9811260
  C       -3.2098970    -1.5236550    -0.8600480
  C        1.4176430     0.0124460    -1.2019210
  C        2.6723110    -0.7931220     0.7125120
  C        2.5954110     0.5075660    -1.7582080
  C        3.8444690    -0.2807100     0.1592420
  C        3.8091760     0.3684650    -1.0779380
  H       -3.0858280     1.8625520    -0.5683870
  H       -1.6562960    -2.8740610    -0.1894870
  H       -1.7397670     3.3469090     0.5447380
  H       -0.9091950     2.8760430    -0.9660740
  H        0.0285190     3.4658540     0.4190740
  H       -0.3000960     0.4345950     2.3759160
  H       -1.3175180     1.8790800     2.5775500
  H        0.4394970     2.0433230     2.3053650
  H       -4.5402610     0.0757380    -1.4297920
  H       -3.8695260    -2.3131570    -1.2108590
  H        0.4733260     0.1189110    -1.7296950
  H        2.6795660    -1.3181790     1.6641980
  H        2.5695640     1.0040610    -2.7255190
  H        4.7881850    -0.3931870     0.6878940
  H        4.7248240     0.7628080    -1.5127390
units angstrom
no_reorient  #important for SAPT in psi4, default
symmetry c1  #important for SAPT in psi4, default
}

set PROPERTIES_ORIGIN ["COM"]
properties('MP2/aug-cc-pvtz', properties = ['dipole'])
--------------------------------------------------------------------------

    Molecular point group: c1
  Charge       = 0
  Multiplicity = 1
  Basis Set: AUG-CC-PVTZ
    Blend: AUG-CC-PVTZ
  Basis Set: (AUG-CC-PVTZ AUX)
    Blend: AUG-CC-PVTZ-JKFIT

    Orbital Energies [Eh]
    ---------------------

    Doubly Occupied:

       1A    -20.540853     2A    -15.568766     3A    -11.336224
       4A    -11.286260     5A    -11.257890     6A    -11.255701
       7A    -11.249231     8A    -11.248137     9A    -11.247874
      10A    -11.247428    11A    -11.243924    12A    -11.242900
      13A    -11.242758    14A    -11.240262    15A    -11.239344
      16A    -11.239067    17A    -11.236239    18A     -1.371448
      19A     -1.258647    20A     -1.158797    21A     -1.147827
      22A     -1.052824    23A     -1.024244    24A     -1.019815
      25A     -1.015377    26A     -0.966898    27A     -0.902528
      28A     -0.882140    29A     -0.839352    30A     -0.824563
      31A     -0.801481    32A     -0.762138    33A     -0.718682
      34A     -0.694510    35A     -0.666999    36A     -0.661925
      37A     -0.641623    38A     -0.638397    39A     -0.632932
      40A     -0.616229    41A     -0.611444    42A     -0.596618
      43A     -0.593845    44A     -0.589225    45A     -0.557473
      46A     -0.550519    47A     -0.536662    48A     -0.531020
      49A     -0.522534    50A     -0.517429    51A     -0.506292
      52A     -0.502357    53A     -0.496096    54A     -0.482437
      55A     -0.422700    56A     -0.401343    57A     -0.345343
      58A     -0.340362    59A     -0.340131    60A     -0.310863

  @DF-RHF Final Energy:  -706.28431786537703

   => Energetics <=

    Nuclear Repulsion Energy =           1160.5431839491036499
    One-Electron Energy =               -3263.7011539692066435
    Two-Electron Energy =                1396.8736521547257325
    Total Energy =                       -706.2843178653770337
  Basis Set: (AUG-CC-PVTZ AUX)
    Blend: AUG-CC-PVTZ-RI
    Molecular point group: c1

    Geometry (in Angstrom), charge = 0, multiplicity = 1:

       Center              X                  Y                   Z               Mass
    ------------   -----------------  -----------------  -----------------  -----------------
         O            0.315706826607    -2.076116050920     1.511525692573    15.994914619570
         N           -0.638737173393     1.557179949080     0.593992692573    14.003074004430
         C           -1.517446173393     0.576244949080     0.077527692573    12.000000000000
         C           -1.119356173393    -0.778118050920     0.141975692573    12.000000000000
         C            0.225157826607    -1.195280050920     0.647884692573    12.000000000000
         C           -2.757483173393     0.880642949080    -0.504839307427    12.000000000000
         C           -1.986227173393    -1.790429050920    -0.282282307427    12.000000000000
         C            1.445918826607    -0.587943050920     0.043649692573    12.000000000000
         C           -0.850095973393     2.899928649080     0.080300292573    12.000000000000
         C           -0.456265173393     1.510828949080     2.045178692573    12.000000000000
         C           -3.591451173393    -0.135548050920    -0.977508307427    12.000000000000
         C           -3.217236173393    -1.474422050920    -0.856430307427    12.000000000000
         C            1.410303826607     0.061678949080    -1.198303307427    12.000000000000
         C            2.664971826607    -0.743889050920     0.716129692573    12.000000000000
         C            2.588071826607     0.556798949080    -1.754590307427    12.000000000000
         C            3.837129826607    -0.231477050920     0.162859692573    12.000000000000
         C            3.801836826607     0.417697949080    -1.074320307427    12.000000000000
         H           -3.093167173393     1.911784949080    -0.564769307427     1.007825032230
         H           -1.663635173393    -2.824828050920    -0.185869307427     1.007825032230
         H           -1.747106173393     3.396141949080     0.548355692573     1.007825032230
         H           -0.916534173393     2.925275949080    -0.962456307427     1.007825032230
         H            0.021179826607     3.515086949080     0.422691692573     1.007825032230
         H           -0.307435173393     0.483827949080     2.379533692573     1.007825032230
         H           -1.324857173393     1.928312949080     2.581167692573     1.007825032230
         H            0.432157826607     2.092555949080     2.308982692573     1.007825032230
         H           -4.547600173393     0.124970949080    -1.426174307427     1.007825032230
         H           -3.876865173393    -2.263924050920    -1.207241307427     1.007825032230
         H            0.465986826607     0.168143949080    -1.726077307427     1.007825032230
         H            2.672226826607    -1.268946050920     1.667815692573     1.007825032230
         H            2.562224826607     1.053293949080    -2.721901307427     1.007825032230
         H            4.780845826607    -0.343954050920     0.691511692573     1.007825032230
         H            4.717484826607     0.812040949080    -1.509121307427     1.007825032230

  Basis Set: AUG-CC-PVTZ
    Blend: AUG-CC-PVTZ
  Basis Set: (AUG-CC-PVTZ AUX)
    Blend: AUG-CC-PVTZ-JKFIT
	 Reference Energy          =    -706.2843178653770337 [Eh]
	 Singles Energy            =      -0.0000000000000000 [Eh]
	 Same-Spin Energy          =      -0.7793662907940371 [Eh]
	 Opposite-Spin Energy      =      -2.4272220107952531 [Eh]
	 Correlation Energy        =      -3.2065883015892904 [Eh]
	 Total Energy              =    -709.4909061669662833 [Eh]

	 ================> DF-SCS-MP2 Energies <==================
	-----------------------------------------------------------
	 SCS Same-Spin Scale       =       0.3333333333333333 [-]
	 SCS Opposite-Spin Scale   =       1.2000000000000000 [-]
	 SCS Same-Spin Energy      =      -0.2597887635980123 [Eh]
	 SCS Opposite-Spin Energy  =      -2.9126664129543038 [Eh]
	 SCS Correlation Energy    =      -3.1724551765523161 [Eh]
	 SCS Total Energy          =    -709.4567730419292957 [Eh]
	-----------------------------------------------------------

  Dipole Moment: [D]
     X:    -0.2167      Y:     3.0864      Z:    -1.4798     Total:     3.4297

*** Psi4 exiting successfully. Buy a developer a beer!
