                               Psi4 1.3.2 release

  ==> Input File <==

--------------------------------------------------------------------------
#psi4
#
memory 32 gb

molecule  {
0 1
  O        0.3230460    -2.1253490     1.5079080
  N       -0.6313980     1.5079470     0.5903750
  C       -1.5540086     0.5986291     0.0220179
  C       -1.1120170    -0.8273510     0.1383580
  C        0.2324970    -1.2445130     0.6442670
  C       -2.7501440     0.8314100    -0.5084570
  C       -1.9788880    -1.8396620    -0.2859000
  C        1.4532580    -0.6371760     0.0400320
  C       -0.8389350     2.8684560     0.1240380
  C       -0.4489260     1.4615960     2.0415610
  C       -3.5841120    -0.1847810    -0.9811260
  C       -3.2098970    -1.5236550    -0.8600480
  C        1.4176430     0.0124460    -1.2019210
  C        2.6723110    -0.7931220     0.7125120
  C        2.5954110     0.5075660    -1.7582080
  C        3.8444690    -0.2807100     0.1592420
  C        3.8091760     0.3684650    -1.0779380
  H       -3.0858280     1.8625520    -0.5683870
  H       -1.6562960    -2.8740610    -0.1894870
  H       -1.7397670     3.3469090     0.5447380
  H       -0.9091950     2.8760430    -0.9660740
  H        0.0285190     3.4658540     0.4190740
  H       -0.3000960     0.4345950     2.3759160
  H       -1.3175180     1.8790800     2.5775500
  H        0.4394970     2.0433230     2.3053650
  H       -4.5402610     0.0757380    -1.4297920
  H       -3.8695260    -2.3131570    -1.2108590
  H        0.4733260     0.1189110    -1.7296950
  H        2.6795660    -1.3181790     1.6641980
  H        2.5695640     1.0040610    -2.7255190
  H        4.7881850    -0.3931870     0.6878940
  H        4.7248240     0.7628080    -1.5127390
units angstrom
no_reorient  #important for SAPT in psi4, default
symmetry c1  #important for SAPT in psi4, default
}

set PROPERTIES_ORIGIN ["COM"]
properties('MP2/aug-cc-pvtz', properties = ['dipole'])
--------------------------------------------------------------------------

    Molecular point group: c1
  Charge       = 0
  Multiplicity = 1
  Basis Set: AUG-CC-PVTZ
    Blend: AUG-CC-PVTZ
  Basis Set: (AUG-CC-PVTZ AUX)
    Blend: AUG-CC-PVTZ-JKFIT

    Orbital Energies [Eh]
    ---------------------

    Doubly Occupied:

       1A    -20.539916     2A    -15.569429     3A    -11.336251
       4A    -11.285583     5A    -11.256338     6A    -11.255024
       7A    -11.250592     8A    -11.249528     9A    -11.247584
      10A    -11.247433    11A    -11.246752    12A    -11.243323
      13A    -11.242159    14A    -11.239695    15A    -11.238825
      16A    -11.237603    17A    -11.231712    18A     -1.370508
      19A     -1.259270    20A     -1.158073    21A     -1.148265
      22A     -1.050644    23A     -1.030757    24A     -1.020498
      25A     -1.012455    26A     -0.964495    27A     -0.903490
      28A     -0.884563    29A     -0.840607    30A     -0.824930
      31A     -0.793486    32A     -0.762512    33A     -0.718431
      34A     -0.694823    35A     -0.668137    36A     -0.660834
      37A     -0.639822    38A     -0.637681    39A     -0.633147
      40A     -0.617207    41A     -0.611347    42A     -0.595069
      43A     -0.593643    44A     -0.589001    45A     -0.556692
      46A     -0.550262    47A     -0.544396    48A     -0.524916
      49A     -0.522536    50A     -0.516614    51A     -0.508415
      52A     -0.497327    53A     -0.492255    54A     -0.477863
      55A     -0.422640    56A     -0.404738    57A     -0.349240
      58A     -0.340170    59A     -0.339078    60A     -0.310834

  @DF-RHF Final Energy:  -706.27591070999472

   => Energetics <=

    Nuclear Repulsion Energy =           1159.5951943123757246
    One-Electron Energy =               -3261.8233755342021141
    Two-Electron Energy =                1395.9522705118315571
    Total Energy =                       -706.2759107099946050
  Basis Set: (AUG-CC-PVTZ AUX)
    Blend: AUG-CC-PVTZ-RI
    Molecular point group: c1

    Geometry (in Angstrom), charge = 0, multiplicity = 1:

       Center              X                  Y                   Z               Mass
    ------------   -----------------  -----------------  -----------------  -----------------
         O            0.317843320497    -2.080880402764     1.511767525911    15.994914619570
         N           -0.636600679503     1.552415597236     0.594234525911    14.003074004430
         C           -1.559211279503     0.643097697236     0.025877425911    12.000000000000
         C           -1.117219679503    -0.782882402764     0.142217525911    12.000000000000
         C            0.227294320497    -1.200044402764     0.648126525911    12.000000000000
         C           -2.755346679503     0.875878597236    -0.504597474089    12.000000000000
         C           -1.984090679503    -1.795193402764    -0.282040474089    12.000000000000
         C            1.448055320497    -0.592707402764     0.043891525911    12.000000000000
         C           -0.844137679503     2.912924597236     0.127897525911    12.000000000000
         C           -0.454128679503     1.506064597236     2.045420525911    12.000000000000
         C           -3.589314679503    -0.140312402764    -0.977266474089    12.000000000000
         C           -3.215099679503    -1.479186402764    -0.856188474089    12.000000000000
         C            1.412440320497     0.056914597236    -1.198061474089    12.000000000000
         C            2.667108320497    -0.748653402764     0.716371525911    12.000000000000
         C            2.590208320497     0.552034597236    -1.754348474089    12.000000000000
         C            3.839266320497    -0.236241402764     0.163101525911    12.000000000000
         C            3.803973320497     0.412933597236    -1.074078474089    12.000000000000
         H           -3.091030679503     1.907020597236    -0.564527474089     1.007825032230
         H           -1.661498679503    -2.829592402764    -0.185627474089     1.007825032230
         H           -1.744969679503     3.391377597236     0.548597525911     1.007825032230
         H           -0.914397679503     2.920511597236    -0.962214474089     1.007825032230
         H            0.023316320497     3.510322597236     0.422933525911     1.007825032230
         H           -0.305298679503     0.479063597236     2.379775525911     1.007825032230
         H           -1.322720679503     1.923548597236     2.581409525911     1.007825032230
         H            0.434294320497     2.087791597236     2.309224525911     1.007825032230
         H           -4.545463679503     0.120206597236    -1.425932474089     1.007825032230
         H           -3.874728679503    -2.268688402764    -1.206999474089     1.007825032230
         H            0.468123320497     0.163379597236    -1.725835474089     1.007825032230
         H            2.674363320497    -1.273710402764     1.668057525911     1.007825032230
         H            2.564361320497     1.048529597236    -2.721659474089     1.007825032230
         H            4.782982320497    -0.348718402764     0.691753525911     1.007825032230
         H            4.719621320497     0.807276597236    -1.508879474089     1.007825032230

  Basis Set: AUG-CC-PVTZ
    Blend: AUG-CC-PVTZ
  Basis Set: (AUG-CC-PVTZ AUX)
    Blend: AUG-CC-PVTZ-JKFIT
	 Reference Energy          =    -706.2759107099947187 [Eh]
	 Singles Energy            =      -0.0000000000000000 [Eh]
	 Same-Spin Energy          =      -0.7791584421435327 [Eh]
	 Opposite-Spin Energy      =      -2.4278550272554704 [Eh]
	 Correlation Energy        =      -3.2070134693990031 [Eh]
	 Total Energy              =    -709.4829241793937626 [Eh]

	 ================> DF-SCS-MP2 Energies <==================
	-----------------------------------------------------------
	 SCS Same-Spin Scale       =       0.3333333333333333 [-]
	 SCS Opposite-Spin Scale   =       1.2000000000000000 [-]
	 SCS Same-Spin Energy      =      -0.2597194807145109 [Eh]
	 SCS Opposite-Spin Energy  =      -2.9134260327065644 [Eh]
	 SCS Correlation Energy    =      -3.1731455134210753 [Eh]
	 SCS Total Energy          =    -709.4490562234158233 [Eh]
	-----------------------------------------------------------

  Dipole Moment: [D]
     X:    -0.3118      Y:     3.0980      Z:    -1.4319     Total:     3.4272

*** Psi4 exiting successfully. Buy a developer a beer!
