                               Psi4 1.3.2 release

  ==> Input File <==

--------------------------------------------------------------------------
#psi4
#
memory 32 gb

molecule  {
0 1
  O        0.3230460    -2.1253490     1.5079080
  N       -0.6313980     1.5079470     0.5903750
  C       -1.4984539     0.5098413     0.0872863
  C       -1.1120170    -0.8273510     0.1383580
  C        0.2324970    -1.2445130     0.6442670
  C       -2.7501440     0.8314100    -0.5084570
  C       -1.9788880    -1.8396620    -0.2859000
  C        1.4532580    -0.6371760     0.0400320
  C       -0.8389350     2.8684560     0.1240380
  C       -0.4489260     1.4615960     2.0415610
  C       -3.5841120    -0.1847810    -0.9811260
  C       -3.2098970    -1.5236550    -0.8600480
  C        1.4176430     0.0124460    -1.2019210
  C        2.6723110    -0.7931220     0.7125120
  C        2.5954110     0.5075660    -1.7582080
  C        3.8444690    -0.2807100     0.1592420
  C        3.8091760     0.3684650    -1.0779380
  H       -3.0858280     1.8625520    -0.5683870
  H       -1.6562960    -2.8740610    -0.1894870
  H       -1.7397670     3.3469090     0.5447380
  H       -0.9091950     2.8760430    -0.9660740
  H        0.0285190     3.4658540     0.4190740
  H       -0.3000960     0.4345950     2.3759160
  H       -1.3175180     1.8790800     2.5775500
  H        0.4394970     2.0433230     2.3053650
  H       -4.5402610     0.0757380    -1.4297920
  H       -3.8695260    -2.3131570    -1.2108590
  H        0.4733260     0.1189110    -1.7296950
  H        2.6795660    -1.3181790     1.6641980
  H        2.5695640     1.0040610    -2.7255190
  H        4.7881850    -0.3931870     0.6878940
  H        4.7248240     0.7628080    -1.5127390
units angstrom
no_reorient  #important for SAPT in psi4, default
symmetry c1  #important for SAPT in psi4, default
}

set PROPERTIES_ORIGIN ["COM"]
properties('MP2/aug-cc-pvtz', properties = ['dipole'])
--------------------------------------------------------------------------

    Molecular point group: c1
  Charge       = 0
  Multiplicity = 1
  Basis Set: AUG-CC-PVTZ
    Blend: AUG-CC-PVTZ
  Basis Set: (AUG-CC-PVTZ AUX)
    Blend: AUG-CC-PVTZ-JKFIT

    Orbital Energies [Eh]
    ---------------------

    Doubly Occupied:

       1A    -20.540991     2A    -15.568543     3A    -11.336145
       4A    -11.287027     5A    -11.257804     6A    -11.254228
       7A    -11.248901     8A    -11.248175     9A    -11.247996
      10A    -11.247436    11A    -11.243945    12A    -11.242780
      13A    -11.241442    14A    -11.241121    15A    -11.240227
      16A    -11.239342    17A    -11.236162    18A     -1.371592
      19A     -1.258581    20A     -1.158906    21A     -1.148346
      22A     -1.053849    23A     -1.024322    24A     -1.019345
      25A     -1.015276    26A     -0.964418    27A     -0.903116
      28A     -0.881864    29A     -0.839057    30A     -0.824801
      31A     -0.803188    32A     -0.761650    33A     -0.718502
      34A     -0.693066    35A     -0.665709    36A     -0.663322
      37A     -0.640560    38A     -0.637925    39A     -0.634451
      40A     -0.615833    41A     -0.611824    42A     -0.596827
      43A     -0.593740    44A     -0.589182    45A     -0.556275
      46A     -0.549826    47A     -0.545070    48A     -0.523308
      49A     -0.521096    50A     -0.517457    51A     -0.506368
      52A     -0.503881    53A     -0.496281    54A     -0.482805
      55A     -0.422927    56A     -0.402505    57A     -0.345587
      58A     -0.340242    59A     -0.339737    60A     -0.311281

  @DF-RHF Final Energy:  -706.28681933548182

   => Energetics <=

    Nuclear Repulsion Energy =           1160.5150383251909716
    One-Electron Energy =               -3263.6513984785328830
    Two-Electron Energy =                1396.8495408178603157
    Total Energy =                       -706.2868193354818231
  Basis Set: (AUG-CC-PVTZ AUX)
    Blend: AUG-CC-PVTZ-RI
    Molecular point group: c1

    Geometry (in Angstrom), charge = 0, multiplicity = 1:

       Center              X                  Y                   Z               Mass
    ------------   -----------------  -----------------  -----------------  -----------------
         O            0.314881921560    -2.076147480139     1.508288328464    15.994914619570
         N           -0.639562078440     1.557148519861     0.590755328464    14.003074004430
         C           -1.506617978440     0.559042819861     0.087666628464    12.000000000000
         C           -1.120181078440    -0.778149480139     0.138738328464    12.000000000000
         C            0.224332921560    -1.195311480139     0.644647328464    12.000000000000
         C           -2.758308078440     0.880611519861    -0.508076671536    12.000000000000
         C           -1.987052078440    -1.790460480139    -0.285519671536    12.000000000000
         C            1.445093921560    -0.587974480139     0.040412328464    12.000000000000
         C           -0.847099078440     2.917657519861     0.124418328464    12.000000000000
         C           -0.457090078440     1.510797519861     2.041941328464    12.000000000000
         C           -3.592276078440    -0.135579480139    -0.980745671536    12.000000000000
         C           -3.218061078440    -1.474453480139    -0.859667671536    12.000000000000
         C            1.409478921560     0.061647519861    -1.201540671536    12.000000000000
         C            2.664146921560    -0.743920480139     0.712892328464    12.000000000000
         C            2.587246921560     0.556767519861    -1.757827671536    12.000000000000
         C            3.836304921560    -0.231508480139     0.159622328464    12.000000000000
         C            3.801011921560     0.417666519861    -1.077557671536    12.000000000000
         H           -3.093992078440     1.911753519861    -0.568006671536     1.007825032230
         H           -1.664460078440    -2.824859480139    -0.189106671536     1.007825032230
         H           -1.747931078440     3.396110519861     0.545118328464     1.007825032230
         H           -0.917359078440     2.925244519861    -0.965693671536     1.007825032230
         H            0.020354921560     3.515055519861     0.419454328464     1.007825032230
         H           -0.308260078440     0.483796519861     2.376296328464     1.007825032230
         H           -1.325682078440     1.928281519861     2.577930328464     1.007825032230
         H            0.431332921560     2.092524519861     2.305745328464     1.007825032230
         H           -4.548425078440     0.124939519861    -1.429411671536     1.007825032230
         H           -3.877690078440    -2.263955480139    -1.210478671536     1.007825032230
         H            0.465161921560     0.168112519861    -1.729314671536     1.007825032230
         H            2.671401921560    -1.268977480139     1.664578328464     1.007825032230
         H            2.561399921560     1.053262519861    -2.725138671536     1.007825032230
         H            4.780020921560    -0.343985480139     0.688274328464     1.007825032230
         H            4.716659921560     0.812009519861    -1.512358671536     1.007825032230

  Basis Set: AUG-CC-PVTZ
    Blend: AUG-CC-PVTZ
  Basis Set: (AUG-CC-PVTZ AUX)
    Blend: AUG-CC-PVTZ-JKFIT
	 Reference Energy          =    -706.2868193354818231 [Eh]
	 Singles Energy            =      -0.0000000000000000 [Eh]
	 Same-Spin Energy          =      -0.7792712497750369 [Eh]
	 Opposite-Spin Energy      =      -2.4270723996313102 [Eh]
	 Correlation Energy        =      -3.2063436494063469 [Eh]
	 Total Energy              =    -709.4931629848881585 [Eh]

	 ================> DF-SCS-MP2 Energies <==================
	-----------------------------------------------------------
	 SCS Same-Spin Scale       =       0.3333333333333333 [-]
	 SCS Opposite-Spin Scale   =       1.2000000000000000 [-]
	 SCS Same-Spin Energy      =      -0.2597570832583456 [Eh]
	 SCS Opposite-Spin Energy  =      -2.9124868795575720 [Eh]
	 SCS Correlation Energy    =      -3.1722439628159176 [Eh]
	 SCS Total Energy          =    -709.4590632982977922 [Eh]
	-----------------------------------------------------------

  Dipole Moment: [D]
     X:    -0.2183      Y:     3.1117      Z:    -1.4677     Total:     3.4474

*** Psi4 exiting successfully. Buy a developer a beer!
