                               Psi4 1.3.2 release

  ==> Input File <==

--------------------------------------------------------------------------
#psi4
#
memory 32 gb

molecule  {
0 1
  O        0.3230460    -2.1253490     1.5079080
  N       -0.6313980     1.5079470     0.5903750
  C       -1.5101070     0.5270120     0.0739100
  C       -1.1120170    -0.8273510     0.1383580
  C        0.2324970    -1.2445130     0.6442670
  C       -2.7501440     0.8314100    -0.5084570
  C       -1.9788880    -1.8396620    -0.2859000
  C        1.4532580    -0.6371760     0.0400320
  C       -0.8389350     2.8684560     0.1240380
  C       -0.4489260     1.4615960     2.0415610
  C       -3.5841120    -0.1847810    -0.9811260
  C       -3.2098970    -1.5236550    -0.8600480
  C        1.4176430     0.0124460    -1.2019210
  C        2.6723110    -0.7931220     0.7125120
  C        2.5954110     0.5075660    -1.7582080
  C        3.8444690    -0.2807100     0.1592420
  C        3.8091760     0.3684650    -1.0779380
  H       -3.0858280     1.8625520    -0.5683870
  H       -1.6562960    -2.8740610    -0.1894870
  H       -1.7397670     3.3469090     0.5447380
  H       -0.9091950     2.8760430    -0.9660740
  H        0.0285190     3.4658540     0.4190740
  H       -0.3000960     0.4345950     2.3759160
  H       -1.3175180     1.8790800     2.5775500
  H        0.4394970     2.0433230     2.3053650
  H       -4.5402610     0.0757380    -1.4297920
  H       -3.8695260    -2.3131570    -1.2108590
  H        0.4733260     0.1189110    -1.7296950
  H        2.6795660    -1.3181790     1.6641980
  H        2.5695640     1.0040610    -2.7255190
  H        4.7881850    -0.3931870     0.6878940
  H        4.7248240     0.7628080    -1.5127390
units angstrom
no_reorient  #important for SAPT in psi4, default
symmetry c1  #important for SAPT in psi4, default
}

set PROPERTIES_ORIGIN ["COM"]
properties('MP2/aug-cc-pvtz', properties = ['dipole'])
--------------------------------------------------------------------------

    Molecular point group: c1
  Charge       = 0
  Multiplicity = 1
  Basis Set: AUG-CC-PVTZ
    Blend: AUG-CC-PVTZ
  Basis Set: (AUG-CC-PVTZ AUX)
    Blend: AUG-CC-PVTZ-JKFIT

    Orbital Energies [Eh]
    ---------------------

    Doubly Occupied:

       1A    -20.540796     2A    -15.568727     3A    -11.336213
       4A    -11.286937     5A    -11.257204     6A    -11.254642
       7A    -11.249302     8A    -11.248055     9A    -11.248014
      10A    -11.247294    11A    -11.243823    12A    -11.243214
      13A    -11.242658    14A    -11.240118    15A    -11.239325
      16A    -11.239238    17A    -11.236324    18A     -1.371391
      19A     -1.258674    20A     -1.158722    21A     -1.148132
      22A     -1.052858    23A     -1.024202    24A     -1.019814
      25A     -1.015958    26A     -0.964392    27A     -0.903256
      28A     -0.882320    29A     -0.839280    30A     -0.824541
      31A     -0.801435    32A     -0.762039    33A     -0.718467
      34A     -0.693425    35A     -0.666160    36A     -0.662744
      37A     -0.640380    38A     -0.637487    39A     -0.634450
      40A     -0.616138    41A     -0.611882    42A     -0.596641
      43A     -0.593727    44A     -0.589126    45A     -0.556317
      46A     -0.549871    47A     -0.545051    48A     -0.523188
      49A     -0.521781    50A     -0.517322    51A     -0.506150
      52A     -0.502889    53A     -0.496010    54A     -0.482362
      55A     -0.422921    56A     -0.403014    57A     -0.345410
      58A     -0.340264    59A     -0.340060    60A     -0.311374

  @DF-RHF Final Energy:  -706.28741374969320

   => Energetics <=

    Nuclear Repulsion Energy =           1160.3224838333605931
    One-Electron Energy =               -3263.2727783911464030
    Two-Electron Energy =                1396.6628808080927229
    Total Energy =                       -706.2874137496933145
  Basis Set: (AUG-CC-PVTZ AUX)
    Blend: AUG-CC-PVTZ-RI
    Molecular point group: c1

    Geometry (in Angstrom), charge = 0, multiplicity = 1:

       Center              X                  Y                   Z               Mass
    ------------   -----------------  -----------------  -----------------  -----------------
         O            0.315503101729    -2.077062781504     1.509001365536    15.994914619570
         N           -0.638940898271     1.556233218496     0.591468365536    14.003074004430
         C           -1.517649898271     0.575298218496     0.075003365536    12.000000000000
         C           -1.119559898271    -0.779064781504     0.139451365536    12.000000000000
         C            0.224954101729    -1.196226781504     0.645360365536    12.000000000000
         C           -2.757686898271     0.879696218496    -0.507363634464    12.000000000000
         C           -1.986430898271    -1.791375781504    -0.284806634464    12.000000000000
         C            1.445715101729    -0.588889781504     0.041125365536    12.000000000000
         C           -0.846477898271     2.916742218496     0.125131365536    12.000000000000
         C           -0.456468898271     1.509882218496     2.042654365536    12.000000000000
         C           -3.591654898271    -0.136494781504    -0.980032634464    12.000000000000
         C           -3.217439898271    -1.475368781504    -0.858954634464    12.000000000000
         C            1.410100101729     0.060732218496    -1.200827634464    12.000000000000
         C            2.664768101729    -0.744835781504     0.713605365536    12.000000000000
         C            2.587868101729     0.555852218496    -1.757114634464    12.000000000000
         C            3.836926101729    -0.232423781504     0.160335365536    12.000000000000
         C            3.801633101729     0.416751218496    -1.076844634464    12.000000000000
         H           -3.093370898271     1.910838218496    -0.567293634464     1.007825032230
         H           -1.663838898271    -2.825774781504    -0.188393634464     1.007825032230
         H           -1.747309898271     3.395195218496     0.545831365536     1.007825032230
         H           -0.916737898271     2.924329218496    -0.964980634464     1.007825032230
         H            0.020976101729     3.514140218496     0.420167365536     1.007825032230
         H           -0.307638898271     0.482881218496     2.377009365536     1.007825032230
         H           -1.325060898271     1.927366218496     2.578643365536     1.007825032230
         H            0.431954101729     2.091609218496     2.306458365536     1.007825032230
         H           -4.547803898271     0.124024218496    -1.428698634464     1.007825032230
         H           -3.877068898271    -2.264870781504    -1.209765634464     1.007825032230
         H            0.465783101729     0.167197218496    -1.728601634464     1.007825032230
         H            2.672023101729    -1.269892781504     1.665291365536     1.007825032230
         H            2.562021101729     1.052347218496    -2.724425634464     1.007825032230
         H            4.780642101729    -0.344900781504     0.688987365536     1.007825032230
         H            4.717281101729     0.811094218496    -1.511645634464     1.007825032230

  Basis Set: AUG-CC-PVTZ
    Blend: AUG-CC-PVTZ
  Basis Set: (AUG-CC-PVTZ AUX)
    Blend: AUG-CC-PVTZ-JKFIT
	 Reference Energy          =    -706.2874137496932008 [Eh]
	 Singles Energy            =      -0.0000000000000000 [Eh]
	 Same-Spin Energy          =      -0.7793006801718052 [Eh]
	 Opposite-Spin Energy      =      -2.4270997411285959 [Eh]
	 Correlation Energy        =      -3.2064004213004011 [Eh]
	 Total Energy              =    -709.4938141709935735 [Eh]

	 ================> DF-SCS-MP2 Energies <==================
	-----------------------------------------------------------
	 SCS Same-Spin Scale       =       0.3333333333333333 [-]
	 SCS Opposite-Spin Scale   =       1.2000000000000000 [-]
	 SCS Same-Spin Energy      =      -0.2597668933906017 [Eh]
	 SCS Opposite-Spin Energy  =      -2.9125196893543150 [Eh]
	 SCS Correlation Energy    =      -3.1722865827449169 [Eh]
	 SCS Total Energy          =    -709.4597003324381603 [Eh]
	-----------------------------------------------------------

  Dipole Moment: [D]
     X:    -0.2367      Y:     3.1089      Z:    -1.4605     Total:     3.4430

*** Psi4 exiting successfully. Buy a developer a beer!
