                               Psi4 1.4a2.dev612

  ==> Input File <==

--------------------------------------------------------------------------
#psi4
#
memory 32 gb

molecule  {
0 1
  O        0.3230460    -2.1253490     1.5079080
  N       -0.6313980     1.5079470     0.5903750
  C       -1.6343411     0.3883249     0.0008909
  C       -1.1120170    -0.8273510     0.1383580
  C        0.2324970    -1.2445130     0.6442670
  C       -2.7501440     0.8314100    -0.5084570
  C       -1.9788880    -1.8396620    -0.2859000
  C        1.4532580    -0.6371760     0.0400320
  C       -0.8389350     2.8684560     0.1240380
  C       -0.4489260     1.4615960     2.0415610
  C       -3.5841120    -0.1847810    -0.9811260
  C       -3.2098970    -1.5236550    -0.8600480
  C        1.4176430     0.0124460    -1.2019210
  C        2.6723110    -0.7931220     0.7125120
  C        2.5954110     0.5075660    -1.7582080
  C        3.8444690    -0.2807100     0.1592420
  C        3.8091760     0.3684650    -1.0779380
  H       -3.0858280     1.8625520    -0.5683870
  H       -1.6562960    -2.8740610    -0.1894870
  H       -1.7397670     3.3469090     0.5447380
  H       -0.9091950     2.8760430    -0.9660740
  H        0.0285190     3.4658540     0.4190740
  H       -0.3000960     0.4345950     2.3759160
  H       -1.3175180     1.8790800     2.5775500
  H        0.4394970     2.0433230     2.3053650
  H       -4.5402610     0.0757380    -1.4297920
  H       -3.8695260    -2.3131570    -1.2108590
  H        0.4733260     0.1189110    -1.7296950
  H        2.6795660    -1.3181790     1.6641980
  H        2.5695640     1.0040610    -2.7255190
  H        4.7881850    -0.3931870     0.6878940
  H        4.7248240     0.7628080    -1.5127390
units angstrom
no_reorient  #important for SAPT in psi4, default
symmetry c1  #important for SAPT in psi4, default
}

set PROPERTIES_ORIGIN ["COM"]
properties('MP2/aug-cc-pvtz', properties = ['dipole'])
--------------------------------------------------------------------------

    Molecular point group: c1
  Basis Set: AUG-CC-PVTZ
    Blend: AUG-CC-PVTZ
  Basis Set: (AUG-CC-PVTZ AUX)
    Blend: AUG-CC-PVTZ-JKFIT

    Orbital Energies [Eh]
    ---------------------

    Doubly Occupied:

       1A    -20.546085     2A    -15.553497     3A    -11.344468
       4A    -11.277854     5A    -11.254959     6A    -11.253631
       7A    -11.247758     8A    -11.247625     9A    -11.246574
      10A    -11.244332    11A    -11.244078    12A    -11.242973
      13A    -11.242527    14A    -11.241881    15A    -11.239536
      16A    -11.238739    17A    -11.236818    18A     -1.376301
      19A     -1.224117    20A     -1.164406    21A     -1.157833
      22A     -1.063269    23A     -1.034011    24A     -1.024699
      25A     -1.019135    26A     -0.950340    27A     -0.898340
      28A     -0.862869    29A     -0.845020    30A     -0.829892
      31A     -0.806407    32A     -0.769884    33A     -0.720873
      34A     -0.697167    35A     -0.670718    36A     -0.654158
      37A     -0.641366    38A     -0.632401    39A     -0.624185
      40A     -0.616024    41A     -0.613691    42A     -0.605275
      43A     -0.592958    44A     -0.583343    45A     -0.553007
      46A     -0.546811    47A     -0.538022    48A     -0.529877
      49A     -0.523541    50A     -0.518148    51A     -0.508679
      52A     -0.496702    53A     -0.489632    54A     -0.465857
      55A     -0.427161    56A     -0.386972    57A     -0.354275
      58A     -0.345170    59A     -0.339955    60A     -0.322324

  @DF-RHF Final Energy:  -706.24670763473182

   => Energetics <=

    Nuclear Repulsion Energy =           1160.1215367771724232
    One-Electron Energy =               -3262.8801793041357087
    Two-Electron Energy =                1396.5119348922314657
    Total Energy =                       -706.2467076347318198
  Basis Set: (AUG-CC-PVTZ AUX)
    Blend: AUG-CC-PVTZ-RI
    Molecular point group: c1

    Geometry (in Angstrom), charge = 0, multiplicity = 1:

       Center              X                  Y                   Z               Mass
    ------------   -----------------  -----------------  -----------------  -----------------
         O            0.322125524885    -2.069669926704     1.512893721810    15.994914619570
         N           -0.632318475115     1.563626073296     0.595360721810    14.003074004430
         C           -1.635261575115     0.444003973296     0.005876621810    12.000000000000
         C           -1.112937475115    -0.771671926704     0.143343721810    12.000000000000
         C            0.231576524885    -1.188833926704     0.649252721810    12.000000000000
         C           -2.751064475115     0.887089073296    -0.503471278190    12.000000000000
         C           -1.979808475115    -1.783982926704    -0.280914278190    12.000000000000
         C            1.452337524885    -0.581496926704     0.045017721810    12.000000000000
         C           -0.839855475115     2.924135073296     0.129023721810    12.000000000000
         C           -0.449846475115     1.517275073296     2.046546721810    12.000000000000
         C           -3.585032475115    -0.129101926704    -0.976140278190    12.000000000000
         C           -3.210817475115    -1.467975926704    -0.855062278190    12.000000000000
         C            1.416722524885     0.068125073296    -1.196935278190    12.000000000000
         C            2.671390524885    -0.737442926704     0.717497721810    12.000000000000
         C            2.594490524885     0.563245073296    -1.753222278190    12.000000000000
         C            3.843548524885    -0.225030926704     0.164227721810    12.000000000000
         C            3.808255524885     0.424144073296    -1.072952278190    12.000000000000
         H           -3.086748475115     1.918231073296    -0.563401278190     1.007825032230
         H           -1.657216475115    -2.818381926704    -0.184501278190     1.007825032230
         H           -1.740687475115     3.402588073296     0.549723721810     1.007825032230
         H           -0.910115475115     2.931722073296    -0.961088278190     1.007825032230
         H            0.027598524885     3.521533073296     0.424059721810     1.007825032230
         H           -0.301016475115     0.490274073296     2.380901721810     1.007825032230
         H           -1.318438475115     1.934759073296     2.582535721810     1.007825032230
         H            0.438576524885     2.099002073296     2.310350721810     1.007825032230
         H           -4.541181475115     0.131417073296    -1.424806278190     1.007825032230
         H           -3.870446475115    -2.257477926704    -1.205873278190     1.007825032230
         H            0.472405524885     0.174590073296    -1.724709278190     1.007825032230
         H            2.678645524885    -1.262499926704     1.669183721810     1.007825032230
         H            2.568643524885     1.059740073296    -2.720533278190     1.007825032230
         H            4.787264524885    -0.337507926704     0.692879721810     1.007825032230
         H            4.723903524885     0.818487073296    -1.507753278190     1.007825032230

  Basis Set: AUG-CC-PVTZ
    Blend: AUG-CC-PVTZ
  Basis Set: (AUG-CC-PVTZ AUX)
    Blend: AUG-CC-PVTZ-JKFIT
	 Reference Energy          =    -706.2467076347318198 [Eh]
	 Singles Energy            =      -0.0000000000000000 [Eh]
	 Same-Spin Energy          =      -0.7793943929272731 [Eh]
	 Opposite-Spin Energy      =      -2.4285614015433827 [Eh]
	 Correlation Energy        =      -3.2079557944706556 [Eh]
	 Total Energy              =    -709.4546634292024692 [Eh]

	 ================> DF-SCS-MP2 Energies <==================
	-----------------------------------------------------------
	 SCS Same-Spin Scale       =       0.3333333333333333 [-]
	 SCS Opposite-Spin Scale   =       1.2000000000000000 [-]
	 SCS Same-Spin Energy      =      -0.2597981309757577 [Eh]
	 SCS Opposite-Spin Energy  =      -2.9142736818520594 [Eh]
	 SCS Correlation Energy    =      -3.1740718128278171 [Eh]
	 SCS Total Energy          =    -709.4207794475596529 [Eh]
	-----------------------------------------------------------

  Dipole Moment: [D]
     X:    -0.6818      Y:     2.4035      Z:    -1.8511     Total:     3.1094

*** Psi4 exiting successfully. Buy a developer a beer!
*** Psi4 exiting successfully. Buy a developer a beer!
