                               Psi4 1.3.2 release

  ==> Input File <==

--------------------------------------------------------------------------
#psi4
#
memory 32 gb

molecule  {
0 1
  O        0.3230460    -2.1253490     1.5079080
  N       -0.6313980     1.5079470     0.5903750
  C       -1.5101070     0.5270120     0.0739100
  C       -1.1120170    -0.8273510     0.1383580
  C        0.2324970    -1.2445130     0.6442670
  C       -2.7501440     0.8314100    -0.5084570
  C       -1.9788880    -1.8396620    -0.2859000
  C        1.4532580    -0.6371760     0.0400320
  C       -0.8496236     2.8102910    -0.0160938
  C       -0.4489260     1.4615960     2.0415610
  C       -3.5841120    -0.1847810    -0.9811260
  C       -3.2098970    -1.5236550    -0.8600480
  C        1.4176430     0.0124460    -1.2019210
  C        2.6723110    -0.7931220     0.7125120
  C        2.5954110     0.5075660    -1.7582080
  C        3.8444690    -0.2807100     0.1592420
  C        3.8091760     0.3684650    -1.0779380
  H       -3.0858280     1.8625520    -0.5683870
  H       -1.6562960    -2.8740610    -0.1894870
  H       -1.7397670     3.3469090     0.5447380
  H       -0.9091950     2.8760430    -0.9660740
  H        0.0285190     3.4658540     0.4190740
  H       -0.3000960     0.4345950     2.3759160
  H       -1.3175180     1.8790800     2.5775500
  H        0.4394970     2.0433230     2.3053650
  H       -4.5402610     0.0757380    -1.4297920
  H       -3.8695260    -2.3131570    -1.2108590
  H        0.4733260     0.1189110    -1.7296950
  H        2.6795660    -1.3181790     1.6641980
  H        2.5695640     1.0040610    -2.7255190
  H        4.7881850    -0.3931870     0.6878940
  H        4.7248240     0.7628080    -1.5127390
units angstrom
no_reorient  #important for SAPT in psi4, default
symmetry c1  #important for SAPT in psi4, default
}

set PROPERTIES_ORIGIN ["COM"]
properties('MP2/aug-cc-pvtz', properties = ['dipole'])
--------------------------------------------------------------------------

    Molecular point group: c1
  Charge       = 0
  Multiplicity = 1
  Basis Set: AUG-CC-PVTZ
    Blend: AUG-CC-PVTZ
  Basis Set: (AUG-CC-PVTZ AUX)
    Blend: AUG-CC-PVTZ-JKFIT

    Orbital Energies [Eh]
    ---------------------

    Doubly Occupied:

       1A    -20.541133     2A    -15.569991     3A    -11.336412
       4A    -11.285199     5A    -11.261881     6A    -11.258528
       7A    -11.249218     8A    -11.248378     9A    -11.247799
      10A    -11.247764    11A    -11.244238    12A    -11.243068
      13A    -11.242514    14A    -11.240628    15A    -11.239648
      16A    -11.238699    17A    -11.236272    18A     -1.371726
      19A     -1.259457    20A     -1.159066    21A     -1.147481
      22A     -1.052957    23A     -1.024487    24A     -1.020041
      25A     -1.014494    26A     -0.973749    27A     -0.902276
      28A     -0.882423    29A     -0.839633    30A     -0.824783
      31A     -0.803870    32A     -0.762571    33A     -0.720193
      34A     -0.699370    35A     -0.670932    36A     -0.661184
      37A     -0.643982    38A     -0.638753    39A     -0.630131
      40A     -0.616396    41A     -0.610851    42A     -0.596918
      43A     -0.595116    44A     -0.591198    45A     -0.566664
      46A     -0.550468    47A     -0.538760    48A     -0.522585
      49A     -0.517702    50A     -0.516486    51A     -0.506159
      52A     -0.500644    53A     -0.496039    54A     -0.482043
      55A     -0.422405    56A     -0.397374    57A     -0.345350
      58A     -0.340657    59A     -0.340366    60A     -0.309918

  @DF-RHF Final Energy:  -706.25685625598283

   => Energetics <=

    Nuclear Repulsion Energy =           1161.0656721338405077
    One-Electron Energy =               -3264.6469952299376018
    Two-Electron Energy =                1397.3244668401141553
    Total Energy =                       -706.2568562559829388
  Basis Set: (AUG-CC-PVTZ AUX)
    Blend: AUG-CC-PVTZ-RI
    Molecular point group: c1

    Geometry (in Angstrom), charge = 0, multiplicity = 1:

       Center              X                  Y                   Z               Mass
    ------------   -----------------  -----------------  -----------------  -----------------
         O            0.316072868260    -2.073962237910     1.516471231516    15.994914619570
         N           -0.638371131740     1.559333762090     0.598938231516    14.003074004430
         C           -1.517080131740     0.578398762090     0.082473231516    12.000000000000
         C           -1.118990131740    -0.775964237910     0.146921231516    12.000000000000
         C            0.225523868260    -1.193126237910     0.652830231516    12.000000000000
         C           -2.757117131740     0.882796762090    -0.499893768484    12.000000000000
         C           -1.985861131740    -1.788275237910    -0.277336768484    12.000000000000
         C            1.446284868260    -0.585789237910     0.048595231516    12.000000000000
         C           -0.856596731740     2.861677762090    -0.007530568484    12.000000000000
         C           -0.455899131740     1.512982762090     2.050124231516    12.000000000000
         C           -3.591085131740    -0.133394237910    -0.972562768484    12.000000000000
         C           -3.216870131740    -1.472268237910    -0.851484768484    12.000000000000
         C            1.410669868260     0.063832762090    -1.193357768484    12.000000000000
         C            2.665337868260    -0.741735237910     0.721075231516    12.000000000000
         C            2.588437868260     0.558952762090    -1.749644768484    12.000000000000
         C            3.837495868260    -0.229323237910     0.167805231516    12.000000000000
         C            3.802202868260     0.419851762090    -1.069374768484    12.000000000000
         H           -3.092801131740     1.913938762090    -0.559823768484     1.007825032230
         H           -1.663269131740    -2.822674237910    -0.180923768484     1.007825032230
         H           -1.746740131740     3.398295762090     0.553301231516     1.007825032230
         H           -0.916168131740     2.927429762090    -0.957510768484     1.007825032230
         H            0.021545868260     3.517240762090     0.427637231516     1.007825032230
         H           -0.307069131740     0.485981762090     2.384479231516     1.007825032230
         H           -1.324491131740     1.930466762090     2.586113231516     1.007825032230
         H            0.432523868260     2.094709762090     2.313928231516     1.007825032230
         H           -4.547234131740     0.127124762090    -1.421228768484     1.007825032230
         H           -3.876499131740    -2.261770237910    -1.202295768484     1.007825032230
         H            0.466352868260     0.170297762090    -1.721131768484     1.007825032230
         H            2.672592868260    -1.266792237910     1.672761231516     1.007825032230
         H            2.562590868260     1.055447762090    -2.716955768484     1.007825032230
         H            4.781211868260    -0.341800237910     0.696457231516     1.007825032230
         H            4.717850868260     0.814194762090    -1.504175768484     1.007825032230

  Basis Set: AUG-CC-PVTZ
    Blend: AUG-CC-PVTZ
  Basis Set: (AUG-CC-PVTZ AUX)
    Blend: AUG-CC-PVTZ-JKFIT
	 Reference Energy          =    -706.2568562559828251 [Eh]
	 Singles Energy            =      -0.0000000000000000 [Eh]
	 Same-Spin Energy          =      -0.7798788962820823 [Eh]
	 Opposite-Spin Energy      =      -2.4284957670085525 [Eh]
	 Correlation Energy        =      -3.2083746632906349 [Eh]
	 Total Energy              =    -709.4652309192734947 [Eh]

	 ================> DF-SCS-MP2 Energies <==================
	-----------------------------------------------------------
	 SCS Same-Spin Scale       =       0.3333333333333333 [-]
	 SCS Opposite-Spin Scale   =       1.2000000000000000 [-]
	 SCS Same-Spin Energy      =      -0.2599596320940274 [Eh]
	 SCS Opposite-Spin Energy  =      -2.9141949204102628 [Eh]
	 SCS Correlation Energy    =      -3.1741545525042900 [Eh]
	 SCS Total Energy          =    -709.4310108084871445 [Eh]
	-----------------------------------------------------------

  Dipole Moment: [D]
     X:    -0.1729      Y:     2.9995      Z:    -1.4956     Total:     3.3562

*** Psi4 exiting successfully. Buy a developer a beer!
