                               Psi4 1.3.2 release

  ==> Input File <==

--------------------------------------------------------------------------
#psi4
#
memory 32 gb

molecule  {
0 1
  O        0.3230460    -2.1253490     1.5079080
  N       -0.6313980     1.5079470     0.5903750
  C       -1.4363004     0.4286497     0.1563836
  C       -1.1120170    -0.8273510     0.1383580
  C        0.2324970    -1.2445130     0.6442670
  C       -2.7501440     0.8314100    -0.5084570
  C       -1.9788880    -1.8396620    -0.2859000
  C        1.4532580    -0.6371760     0.0400320
  C       -0.8389350     2.8684560     0.1240380
  C       -0.4489260     1.4615960     2.0415610
  C       -3.5841120    -0.1847810    -0.9811260
  C       -3.2098970    -1.5236550    -0.8600480
  C        1.4176430     0.0124460    -1.2019210
  C        2.6723110    -0.7931220     0.7125120
  C        2.5954110     0.5075660    -1.7582080
  C        3.8444690    -0.2807100     0.1592420
  C        3.8091760     0.3684650    -1.0779380
  H       -3.0858280     1.8625520    -0.5683870
  H       -1.6562960    -2.8740610    -0.1894870
  H       -1.7397670     3.3469090     0.5447380
  H       -0.9091950     2.8760430    -0.9660740
  H        0.0285190     3.4658540     0.4190740
  H       -0.3000960     0.4345950     2.3759160
  H       -1.3175180     1.8790800     2.5775500
  H        0.4394970     2.0433230     2.3053650
  H       -4.5402610     0.0757380    -1.4297920
  H       -3.8695260    -2.3131570    -1.2108590
  H        0.4733260     0.1189110    -1.7296950
  H        2.6795660    -1.3181790     1.6641980
  H        2.5695640     1.0040610    -2.7255190
  H        4.7881850    -0.3931870     0.6878940
  H        4.7248240     0.7628080    -1.5127390
units angstrom
no_reorient  #important for SAPT in psi4, default
symmetry c1  #important for SAPT in psi4, default
}

set PROPERTIES_ORIGIN ["COM"]
properties('MP2/aug-cc-pvtz', properties = ['dipole'])
--------------------------------------------------------------------------

    Molecular point group: c1
  Charge       = 0
  Multiplicity = 1
  Basis Set: AUG-CC-PVTZ
    Blend: AUG-CC-PVTZ
  Basis Set: (AUG-CC-PVTZ AUX)
    Blend: AUG-CC-PVTZ-JKFIT

    Orbital Energies [Eh]
    ---------------------

    Doubly Occupied:

       1A    -20.541878     2A    -15.567524     3A    -11.335650
       4A    -11.285879     5A    -11.260956     6A    -11.252244
       7A    -11.248834     8A    -11.248817     9A    -11.248245
      10A    -11.247601    11A    -11.246198    12A    -11.244579
      13A    -11.243413    14A    -11.240824    15A    -11.239893
      16A    -11.236321    17A    -11.231677    18A     -1.372556
      19A     -1.258388    20A     -1.160136    21A     -1.150883
      22A     -1.060840    23A     -1.028104    24A     -1.020430
      25A     -1.005212    26A     -0.964776    27A     -0.901996
      28A     -0.880282    29A     -0.839017    30A     -0.829893
      31A     -0.807393    32A     -0.758885    33A     -0.718856
      34A     -0.691339    35A     -0.667459    36A     -0.663205
      37A     -0.642569    38A     -0.640350    39A     -0.633747
      40A     -0.615220    41A     -0.610229    42A     -0.596204
      43A     -0.593560    44A     -0.589771    45A     -0.556343
      46A     -0.549819    47A     -0.544309    48A     -0.524614
      49A     -0.520167    50A     -0.516299    51A     -0.512717
      52A     -0.498392    53A     -0.496975    54A     -0.483886
      55A     -0.422645    56A     -0.399769    57A     -0.349798
      58A     -0.340879    59A     -0.336710    60A     -0.309442

  @DF-RHF Final Energy:  -706.26269905028687

   => Energetics <=

    Nuclear Repulsion Energy =           1161.5420344943427153
    One-Electron Energy =               -3265.6402766098099164
    Two-Electron Energy =                1397.8355430651804454
    Total Energy =                       -706.2626990502867557
  Basis Set: (AUG-CC-PVTZ AUX)
    Blend: AUG-CC-PVTZ-RI
    Molecular point group: c1

    Geometry (in Angstrom), charge = 0, multiplicity = 1:

       Center              X                  Y                   Z               Mass
    ------------   -----------------  -----------------  -----------------  -----------------
         O            0.311568766978    -2.071819480565     1.504605027667    15.994914619570
         N           -0.642875233022     1.561476519435     0.587072027667    14.003074004430
         C           -1.447777633022     0.482179219435     0.153080627667    12.000000000000
         C           -1.123494233022    -0.773821480565     0.135055027667    12.000000000000
         C            0.221019766978    -1.190983480565     0.640964027667    12.000000000000
         C           -2.761621233022     0.884939519435    -0.511759972333    12.000000000000
         C           -1.990365233022    -1.786132480565    -0.289202972333    12.000000000000
         C            1.441780766978    -0.583646480565     0.036729027667    12.000000000000
         C           -0.850412233022     2.921985519435     0.120735027667    12.000000000000
         C           -0.460403233022     1.515125519435     2.038258027667    12.000000000000
         C           -3.595589233022    -0.131251480565    -0.984428972333    12.000000000000
         C           -3.221374233022    -1.470125480565    -0.863350972333    12.000000000000
         C            1.406165766978     0.065975519435    -1.205223972333    12.000000000000
         C            2.660833766978    -0.739592480565     0.709209027667    12.000000000000
         C            2.583933766978     0.561095519435    -1.761510972333    12.000000000000
         C            3.832991766978    -0.227180480565     0.155939027667    12.000000000000
         C            3.797698766978     0.421994519435    -1.081240972333    12.000000000000
         H           -3.097305233022     1.916081519435    -0.571689972333     1.007825032230
         H           -1.667773233022    -2.820531480565    -0.192789972333     1.007825032230
         H           -1.751244233022     3.400438519435     0.541435027667     1.007825032230
         H           -0.920672233022     2.929572519435    -0.969376972333     1.007825032230
         H            0.017041766978     3.519383519435     0.415771027667     1.007825032230
         H           -0.311573233022     0.488124519435     2.372613027667     1.007825032230
         H           -1.328995233022     1.932609519435     2.574247027667     1.007825032230
         H            0.428019766978     2.096852519435     2.302062027667     1.007825032230
         H           -4.551738233022     0.129267519435    -1.433094972333     1.007825032230
         H           -3.881003233022    -2.259627480565    -1.214161972333     1.007825032230
         H            0.461848766978     0.172440519435    -1.732997972333     1.007825032230
         H            2.668088766978    -1.264649480565     1.660895027667     1.007825032230
         H            2.558086766978     1.057590519435    -2.728821972333     1.007825032230
         H            4.776707766978    -0.339657480565     0.684591027667     1.007825032230
         H            4.713346766978     0.816337519435    -1.516041972333     1.007825032230

  Basis Set: AUG-CC-PVTZ
    Blend: AUG-CC-PVTZ
  Basis Set: (AUG-CC-PVTZ AUX)
    Blend: AUG-CC-PVTZ-JKFIT
	 Reference Energy          =    -706.2626990502868694 [Eh]
	 Singles Energy            =      -0.0000000000000000 [Eh]
	 Same-Spin Energy          =      -0.7787680144435830 [Eh]
	 Opposite-Spin Energy      =      -2.4279264069049287 [Eh]
	 Correlation Energy        =      -3.2066944213485118 [Eh]
	 Total Energy              =    -709.4693934716353851 [Eh]

	 ================> DF-SCS-MP2 Energies <==================
	-----------------------------------------------------------
	 SCS Same-Spin Scale       =       0.3333333333333333 [-]
	 SCS Opposite-Spin Scale   =       1.2000000000000000 [-]
	 SCS Same-Spin Energy      =      -0.2595893381478610 [Eh]
	 SCS Opposite-Spin Energy  =      -2.9135116882859142 [Eh]
	 SCS Correlation Energy    =      -3.1731010264337751 [Eh]
	 SCS Total Energy          =    -709.4358000767206249 [Eh]
	-----------------------------------------------------------

  Dipole Moment: [D]
     X:    -0.1177      Y:     3.1160      Z:    -1.4998     Total:     3.4601

*** Psi4 exiting successfully. Buy a developer a beer!
