                               Psi4 1.3.2 release

  ==> Input File <==

--------------------------------------------------------------------------
#psi4
#
memory 32 gb

molecule  {
0 1
  O        0.3230460    -2.1253490     1.5079080
  N       -0.6351695     1.4657975     0.4442808
  C       -1.5101070     0.5270120     0.0739100
  C       -1.1120170    -0.8273510     0.1383580
  C        0.2324970    -1.2445130     0.6442670
  C       -2.7501440     0.8314100    -0.5084570
  C       -1.9788880    -1.8396620    -0.2859000
  C        1.4532580    -0.6371760     0.0400320
  C       -0.8389350     2.8684560     0.1240380
  C       -0.4489260     1.4615960     2.0415610
  C       -3.5841120    -0.1847810    -0.9811260
  C       -3.2098970    -1.5236550    -0.8600480
  C        1.4176430     0.0124460    -1.2019210
  C        2.6723110    -0.7931220     0.7125120
  C        2.5954110     0.5075660    -1.7582080
  C        3.8444690    -0.2807100     0.1592420
  C        3.8091760     0.3684650    -1.0779380
  H       -3.0858280     1.8625520    -0.5683870
  H       -1.6562960    -2.8740610    -0.1894870
  H       -1.7397670     3.3469090     0.5447380
  H       -0.9091950     2.8760430    -0.9660740
  H        0.0285190     3.4658540     0.4190740
  H       -0.3000960     0.4345950     2.3759160
  H       -1.3175180     1.8790800     2.5775500
  H        0.4394970     2.0433230     2.3053650
  H       -4.5402610     0.0757380    -1.4297920
  H       -3.8695260    -2.3131570    -1.2108590
  H        0.4733260     0.1189110    -1.7296950
  H        2.6795660    -1.3181790     1.6641980
  H        2.5695640     1.0040610    -2.7255190
  H        4.7881850    -0.3931870     0.6878940
  H        4.7248240     0.7628080    -1.5127390
units angstrom
no_reorient  #important for SAPT in psi4, default
symmetry c1  #important for SAPT in psi4, default
}

set PROPERTIES_ORIGIN ["COM"]
properties('MP2/aug-cc-pvtz', properties = ['dipole'])
--------------------------------------------------------------------------

    Molecular point group: c1
  Charge       = 0
  Multiplicity = 1
  Basis Set: AUG-CC-PVTZ
    Blend: AUG-CC-PVTZ
  Basis Set: (AUG-CC-PVTZ AUX)
    Blend: AUG-CC-PVTZ-JKFIT

    Orbital Energies [Eh]
    ---------------------

    Doubly Occupied:

       1A    -20.539463     2A    -15.575611     3A    -11.334550
       4A    -11.281164     5A    -11.268983     6A    -11.259895
       7A    -11.247148     8A    -11.246712     9A    -11.246190
      10A    -11.245779    11A    -11.242667    12A    -11.241322
      13A    -11.238870    14A    -11.238343    15A    -11.238142
      16A    -11.233823    17A    -11.231609    18A     -1.370088
      19A     -1.266805    20A     -1.157328    21A     -1.142014
      22A     -1.051306    23A     -1.022466    24A     -1.017803
      25A     -1.013911    26A     -0.955815    27A     -0.916479
      28A     -0.884953    29A     -0.838312    30A     -0.823435
      31A     -0.798850    32A     -0.759995    33A     -0.716566
      34A     -0.691885    35A     -0.665815    36A     -0.661939
      37A     -0.638540    38A     -0.636181    39A     -0.631740
      40A     -0.615473    41A     -0.610033    42A     -0.594813
      43A     -0.592082    44A     -0.582485    45A     -0.571480
      46A     -0.554521    47A     -0.543279    48A     -0.523955
      49A     -0.516858    50A     -0.514908    51A     -0.504165
      52A     -0.495588    53A     -0.490791    54A     -0.476576
      55A     -0.427999    56A     -0.410870    57A     -0.343347
      58A     -0.339207    59A     -0.338499    60A     -0.304829

  @DF-RHF Final Energy:  -706.26605175067675

   => Energetics <=

    Nuclear Repulsion Energy =           1161.2881854367853975
    One-Electron Energy =               -3265.2599604276138052
    Two-Electron Energy =                1397.7057232401518831
    Total Energy =                       -706.2660517506767519
  Basis Set: (AUG-CC-PVTZ AUX)
    Blend: AUG-CC-PVTZ-RI
    Molecular point group: c1

    Geometry (in Angstrom), charge = 0, multiplicity = 1:

       Center              X                  Y                   Z               Mass
    ------------   -----------------  -----------------  -----------------  -----------------
         O            0.315737704080    -2.074440914400     1.518089007787    15.994914619570
         N           -0.642477795920     1.516705585600     0.454461807787    14.003074004430
         C           -1.517415295920     0.577920085600     0.084091007787    12.000000000000
         C           -1.119325295920    -0.776442914400     0.148539007787    12.000000000000
         C            0.225188704080    -1.193604914400     0.654448007787    12.000000000000
         C           -2.757452295920     0.882318085600    -0.498275992213    12.000000000000
         C           -1.986196295920    -1.788753914400    -0.275718992213    12.000000000000
         C            1.445949704080    -0.586267914400     0.050213007787    12.000000000000
         C           -0.846243295920     2.919364085600     0.134219007787    12.000000000000
         C           -0.456234295920     1.512504085600     2.051742007787    12.000000000000
         C           -3.591420295920    -0.133872914400    -0.970944992213    12.000000000000
         C           -3.217205295920    -1.472746914400    -0.849866992213    12.000000000000
         C            1.410334704080     0.063354085600    -1.191739992213    12.000000000000
         C            2.665002704080    -0.742213914400     0.722693007787    12.000000000000
         C            2.588102704080     0.558474085600    -1.748026992213    12.000000000000
         C            3.837160704080    -0.229801914400     0.169423007787    12.000000000000
         C            3.801867704080     0.419373085600    -1.067756992213    12.000000000000
         H           -3.093136295920     1.913460085600    -0.558205992213     1.007825032230
         H           -1.663604295920    -2.823152914400    -0.179305992213     1.007825032230
         H           -1.747075295920     3.397817085600     0.554919007787     1.007825032230
         H           -0.916503295920     2.926951085600    -0.955892992213     1.007825032230
         H            0.021210704080     3.516762085600     0.429255007787     1.007825032230
         H           -0.307404295920     0.485503085600     2.386097007787     1.007825032230
         H           -1.324826295920     1.929988085600     2.587731007787     1.007825032230
         H            0.432188704080     2.094231085600     2.315546007787     1.007825032230
         H           -4.547569295920     0.126646085600    -1.419610992213     1.007825032230
         H           -3.876834295920    -2.262248914400    -1.200677992213     1.007825032230
         H            0.466017704080     0.169819085600    -1.719513992213     1.007825032230
         H            2.672257704080    -1.267270914400     1.674379007787     1.007825032230
         H            2.562255704080     1.054969085600    -2.715337992213     1.007825032230
         H            4.780876704080    -0.342278914400     0.698075007787     1.007825032230
         H            4.717515704080     0.813716085600    -1.502557992213     1.007825032230

  Basis Set: AUG-CC-PVTZ
    Blend: AUG-CC-PVTZ
  Basis Set: (AUG-CC-PVTZ AUX)
    Blend: AUG-CC-PVTZ-JKFIT
	 Reference Energy          =    -706.2660517506767519 [Eh]
	 Singles Energy            =      -0.0000000000000000 [Eh]
	 Same-Spin Energy          =      -0.7805351431093737 [Eh]
	 Opposite-Spin Energy      =      -2.4298719488379743 [Eh]
	 Correlation Energy        =      -3.2104070919473480 [Eh]
	 Total Energy              =    -709.4764588426240834 [Eh]

	 ================> DF-SCS-MP2 Energies <==================
	-----------------------------------------------------------
	 SCS Same-Spin Scale       =       0.3333333333333333 [-]
	 SCS Opposite-Spin Scale   =       1.2000000000000000 [-]
	 SCS Same-Spin Energy      =      -0.2601783810364579 [Eh]
	 SCS Opposite-Spin Energy  =      -2.9158463386055691 [Eh]
	 SCS Correlation Energy    =      -3.1760247196420268 [Eh]
	 SCS Total Energy          =    -709.4420764703187388 [Eh]
	-----------------------------------------------------------

  Dipole Moment: [D]
     X:    -0.1530      Y:     3.4382      Z:    -1.0499     Total:     3.5982

*** Psi4 exiting successfully. Buy a developer a beer!
