                               Psi4 1.4a3.dev225

  ==> Input File <==

--------------------------------------------------------------------------
#psi4
#
memory 32 gb

molecule  {
0 1
  O        0.3230460    -2.1253490     1.5079080
  N       -0.6313980     1.5079470     0.5903750
  C       -1.4976836     0.5408807     0.0812119
  C       -1.1120170    -0.8273510     0.1383580
  C        0.2324970    -1.2445130     0.6442670
  C       -2.7501440     0.8314100    -0.5084570
  C       -1.9788880    -1.8396620    -0.2859000
  C        1.4532580    -0.6371760     0.0400320
  C       -0.8389350     2.8684560     0.1240380
  C       -0.4489260     1.4615960     2.0415610
  C       -3.5841120    -0.1847810    -0.9811260
  C       -3.2098970    -1.5236550    -0.8600480
  C        1.4176430     0.0124460    -1.2019210
  C        2.6723110    -0.7931220     0.7125120
  C        2.5954110     0.5075660    -1.7582080
  C        3.8444690    -0.2807100     0.1592420
  C        3.8091760     0.3684650    -1.0779380
  H       -3.0858280     1.8625520    -0.5683870
  H       -1.6562960    -2.8740610    -0.1894870
  H       -1.7397670     3.3469090     0.5447380
  H       -0.9091950     2.8760430    -0.9660740
  H        0.0285190     3.4658540     0.4190740
  H       -0.3000960     0.4345950     2.3759160
  H       -1.3175180     1.8790800     2.5775500
  H        0.4394970     2.0433230     2.3053650
  H       -4.5402610     0.0757380    -1.4297920
  H       -3.8695260    -2.3131570    -1.2108590
  H        0.4733260     0.1189110    -1.7296950
  H        2.6795660    -1.3181790     1.6641980
  H        2.5695640     1.0040610    -2.7255190
  H        4.7881850    -0.3931870     0.6878940
  H        4.7248240     0.7628080    -1.5127390
units angstrom
no_reorient  #important for SAPT in psi4, default
symmetry c1  #important for SAPT in psi4, default
}

set PROPERTIES_ORIGIN ["COM"]
properties('MP2/aug-cc-pvtz', properties = ['dipole'])
--------------------------------------------------------------------------

    Molecular point group: c1
  Charge       = 0
  Multiplicity = 1
  Basis Set: AUG-CC-PVTZ
    Blend: AUG-CC-PVTZ
  Basis Set: (AUG-CC-PVTZ AUX)
    Blend: AUG-CC-PVTZ-JKFIT

    Orbital Energies [Eh]
    ---------------------

    Doubly Occupied:

       1A    -20.540201     2A    -15.570192     3A    -11.335350
       4A    -11.288349     5A    -11.258458     6A    -11.256124
       7A    -11.248761     8A    -11.248102     9A    -11.247469
      10A    -11.247265    11A    -11.243795    12A    -11.243070
      13A    -11.242627    14A    -11.240196    15A    -11.239526
      16A    -11.239307    17A    -11.235469    18A     -1.370847
      19A     -1.264449    20A     -1.158705    21A     -1.146163
      22A     -1.052184    23A     -1.023551    24A     -1.019398
      25A     -1.015064    26A     -0.966089    27A     -0.905848
      28A     -0.882886    29A     -0.838894    30A     -0.823922
      31A     -0.800604    32A     -0.761189    33A     -0.718333
      34A     -0.693878    35A     -0.666614    36A     -0.663972
      37A     -0.640873    38A     -0.638636    39A     -0.635044
      40A     -0.615571    41A     -0.611481    42A     -0.595444
      43A     -0.593669    44A     -0.589239    45A     -0.557447
      46A     -0.550932    47A     -0.545480    48A     -0.523978
      49A     -0.522483    50A     -0.517060    51A     -0.504656
      52A     -0.503398    53A     -0.495964    54A     -0.482025
      55A     -0.422896    56A     -0.404048    57A     -0.344647
      58A     -0.340181    59A     -0.339983    60A     -0.309144

  @DF-RHF Final Energy:  -706.28654340867740

   => Energetics <=

    Nuclear Repulsion Energy =           1160.3757934792115520
    One-Electron Energy =               -3263.3624115337233889
    Two-Electron Energy =                1396.7000746458345475
    Total Energy =                       -706.2865434086772893
  Basis Set: (AUG-CC-PVTZ AUX)
    Blend: AUG-CC-PVTZ-RI
    Molecular point group: c1

    Geometry (in Angstrom), charge = 0, multiplicity = 1:

       Center              X                  Y                   Z               Mass
    ------------   -----------------  -----------------  -----------------  -----------------
         O            0.314840859946    -2.077802066451     1.508612130441    15.994914619570
         N           -0.639603140054     1.555493933549     0.591079130441    14.003074004430
         C           -1.505888740054     0.588427633549     0.081916030441    12.000000000000
         C           -1.120222140054    -0.779804066451     0.139062130441    12.000000000000
         C            0.224291859946    -1.196966066451     0.644971130441    12.000000000000
         C           -2.758349140054     0.878956933549    -0.507752869559    12.000000000000
         C           -1.987093140054    -1.792115066451    -0.285195869559    12.000000000000
         C            1.445052859946    -0.589629066451     0.040736130441    12.000000000000
         C           -0.847140140054     2.916002933549     0.124742130441    12.000000000000
         C           -0.457131140054     1.509142933549     2.042265130441    12.000000000000
         C           -3.592317140054    -0.137234066451    -0.980421869559    12.000000000000
         C           -3.218102140054    -1.476108066451    -0.859343869559    12.000000000000
         C            1.409437859946     0.059992933549    -1.201216869559    12.000000000000
         C            2.664105859946    -0.745575066451     0.713216130441    12.000000000000
         C            2.587205859946     0.555112933549    -1.757503869559    12.000000000000
         C            3.836263859946    -0.233163066451     0.159946130441    12.000000000000
         C            3.800970859946     0.416011933549    -1.077233869559    12.000000000000
         H           -3.094033140054     1.910098933549    -0.567682869559     1.007825032230
         H           -1.664501140054    -2.826514066451    -0.188782869559     1.007825032230
         H           -1.747972140054     3.394455933549     0.545442130441     1.007825032230
         H           -0.917400140054     2.923589933549    -0.965369869559     1.007825032230
         H            0.020313859946     3.513400933549     0.419778130441     1.007825032230
         H           -0.308301140054     0.482141933549     2.376620130441     1.007825032230
         H           -1.325723140054     1.926626933549     2.578254130441     1.007825032230
         H            0.431291859946     2.090869933549     2.306069130441     1.007825032230
         H           -4.548466140054     0.123284933549    -1.429087869559     1.007825032230
         H           -3.877731140054    -2.265610066451    -1.210154869559     1.007825032230
         H            0.465120859946     0.166457933549    -1.728990869559     1.007825032230
         H            2.671360859946    -1.270632066451     1.664902130441     1.007825032230
         H            2.561358859946     1.051607933549    -2.724814869559     1.007825032230
         H            4.779979859946    -0.345640066451     0.688598130441     1.007825032230
         H            4.716618859946     0.810354933549    -1.512034869559     1.007825032230

  Basis Set: AUG-CC-PVTZ
    Blend: AUG-CC-PVTZ
  Basis Set: (AUG-CC-PVTZ AUX)
    Blend: AUG-CC-PVTZ-JKFIT
	 Reference Energy          =    -706.2865434086774030 [Eh]
	 Singles Energy            =      -0.0000000000000000 [Eh]
	 Same-Spin Energy          =      -0.7795449042957704 [Eh]
	 Opposite-Spin Energy      =      -2.4273619880338524 [Eh]
	 Correlation Energy        =      -3.2069068923296227 [Eh]
	 Total Energy              =    -709.4934503010069875 [Eh]

	 ================> DF-SCS-MP2 Energies <==================
	-----------------------------------------------------------
	 SCS Same-Spin Scale       =       0.3333333333333333 [-]
	 SCS Opposite-Spin Scale   =       1.2000000000000000 [-]
	 SCS Same-Spin Energy      =      -0.2598483014319234 [Eh]
	 SCS Opposite-Spin Energy  =      -2.9128343856406227 [Eh]
	 SCS Correlation Energy    =      -3.1726826870725460 [Eh]
	 SCS Total Energy          =    -709.4592260957499548 [Eh]
	-----------------------------------------------------------

  Dipole Moment: [D]
     X:    -0.1804      Y:     3.1935      Z:    -1.4134     Total:     3.4969

*** Psi4 exiting successfully. Buy a developer a beer!
