                               Psi4 1.3.2 release

  ==> Input File <==

--------------------------------------------------------------------------
#psi4
#
memory 32 gb

molecule  {
0 1
  O        0.3230460    -2.1253490     1.5079080
  N       -0.6313980     1.5079470     0.5903750
  C       -1.4619245     0.4601739     0.1283183
  C       -1.1120170    -0.8273510     0.1383580
  C        0.2324970    -1.2445130     0.6442670
  C       -2.7501440     0.8314100    -0.5084570
  C       -1.9788880    -1.8396620    -0.2859000
  C        1.4532580    -0.6371760     0.0400320
  C       -0.8389350     2.8684560     0.1240380
  C       -0.4489260     1.4615960     2.0415610
  C       -3.5841120    -0.1847810    -0.9811260
  C       -3.2098970    -1.5236550    -0.8600480
  C        1.4176430     0.0124460    -1.2019210
  C        2.6723110    -0.7931220     0.7125120
  C        2.5954110     0.5075660    -1.7582080
  C        3.8444690    -0.2807100     0.1592420
  C        3.8091760     0.3684650    -1.0779380
  H       -3.0858280     1.8625520    -0.5683870
  H       -1.6562960    -2.8740610    -0.1894870
  H       -1.7397670     3.3469090     0.5447380
  H       -0.9091950     2.8760430    -0.9660740
  H        0.0285190     3.4658540     0.4190740
  H       -0.3000960     0.4345950     2.3759160
  H       -1.3175180     1.8790800     2.5775500
  H        0.4394970     2.0433230     2.3053650
  H       -4.5402610     0.0757380    -1.4297920
  H       -3.8695260    -2.3131570    -1.2108590
  H        0.4733260     0.1189110    -1.7296950
  H        2.6795660    -1.3181790     1.6641980
  H        2.5695640     1.0040610    -2.7255190
  H        4.7881850    -0.3931870     0.6878940
  H        4.7248240     0.7628080    -1.5127390
units angstrom
no_reorient  #important for SAPT in psi4, default
symmetry c1  #important for SAPT in psi4, default
}

set PROPERTIES_ORIGIN ["COM"]
properties('MP2/aug-cc-pvtz', properties = ['dipole'])
--------------------------------------------------------------------------

    Molecular point group: c1
  Charge       = 0
  Multiplicity = 1
  Basis Set: AUG-CC-PVTZ
    Blend: AUG-CC-PVTZ
  Basis Set: (AUG-CC-PVTZ AUX)
    Blend: AUG-CC-PVTZ-JKFIT

    Orbital Energies [Eh]
    ---------------------

    Doubly Occupied:

       1A    -20.541534     2A    -15.567938     3A    -11.335862
       4A    -11.286618     5A    -11.259669     6A    -11.253012
       7A    -11.248548     8A    -11.247899     9A    -11.247831
      10A    -11.247664    11A    -11.245817    12A    -11.244316
      13A    -11.243150    14A    -11.240571    15A    -11.239662
      16A    -11.236077    17A    -11.235677    18A     -1.372170
      19A     -1.258403    20A     -1.159557    21A     -1.149589
      22A     -1.057686    23A     -1.026438    24A     -1.019945
      25A     -1.009428    26A     -0.964582    27A     -0.902518
      28A     -0.880774    29A     -0.838759    30A     -0.827177
      31A     -0.806678    32A     -0.760099    33A     -0.718677
      34A     -0.692001    35A     -0.665805    36A     -0.663999
      37A     -0.641457    38A     -0.639600    39A     -0.634036
      40A     -0.615269    41A     -0.611029    42A     -0.596720
      43A     -0.593740    44A     -0.589474    45A     -0.556256
      46A     -0.549796    47A     -0.544759    48A     -0.523953
      49A     -0.519890    50A     -0.517143    51A     -0.510613
      52A     -0.501371    53A     -0.496811    54A     -0.483598
      55A     -0.422807    56A     -0.400892    57A     -0.347821
      58A     -0.340628    59A     -0.337804    60A     -0.310419

  @DF-RHF Final Energy:  -706.27658238950642

   => Energetics <=

    Nuclear Repulsion Energy =           1161.1189845549254187
    One-Electron Energy =               -3264.8270995264028898
    Two-Electron Energy =                1397.4315325819711688
    Total Energy =                       -706.2765823895065296
  Basis Set: (AUG-CC-PVTZ AUX)
    Blend: AUG-CC-PVTZ-RI
    Molecular point group: c1

    Geometry (in Angstrom), charge = 0, multiplicity = 1:

       Center              X                  Y                   Z               Mass
    ------------   -----------------  -----------------  -----------------  -----------------
         O            0.312934685298    -2.073499909626     1.506101076599    15.994914619570
         N           -0.641509314702     1.559796090374     0.588568076599    14.003074004430
         C           -1.472035814702     0.512022990374     0.126511376599    12.000000000000
         C           -1.122128314702    -0.775501909626     0.136551076599    12.000000000000
         C            0.222385685298    -1.192663909626     0.642460076599    12.000000000000
         C           -2.760255314702     0.883259090374    -0.510263923401    12.000000000000
         C           -1.988999314702    -1.787812909626    -0.287706923401    12.000000000000
         C            1.443146685298    -0.585326909626     0.038225076599    12.000000000000
         C           -0.849046314702     2.920305090374     0.122231076599    12.000000000000
         C           -0.459037314702     1.513445090374     2.039754076599    12.000000000000
         C           -3.594223314702    -0.132931909626    -0.982932923401    12.000000000000
         C           -3.220008314702    -1.471805909626    -0.861854923401    12.000000000000
         C            1.407531685298     0.064295090374    -1.203727923401    12.000000000000
         C            2.662199685298    -0.741272909626     0.710705076599    12.000000000000
         C            2.585299685298     0.559415090374    -1.760014923401    12.000000000000
         C            3.834357685298    -0.228860909626     0.157435076599    12.000000000000
         C            3.799064685298     0.420314090374    -1.079744923401    12.000000000000
         H           -3.095939314702     1.914401090374    -0.570193923401     1.007825032230
         H           -1.666407314702    -2.822211909626    -0.191293923401     1.007825032230
         H           -1.749878314702     3.398758090374     0.542931076599     1.007825032230
         H           -0.919306314702     2.927892090374    -0.967880923401     1.007825032230
         H            0.018407685298     3.517703090374     0.417267076599     1.007825032230
         H           -0.310207314702     0.486444090374     2.374109076599     1.007825032230
         H           -1.327629314702     1.930929090374     2.575743076599     1.007825032230
         H            0.429385685298     2.095172090374     2.303558076599     1.007825032230
         H           -4.550372314702     0.127587090374    -1.431598923401     1.007825032230
         H           -3.879637314702    -2.261307909626    -1.212665923401     1.007825032230
         H            0.463214685298     0.170760090374    -1.731501923401     1.007825032230
         H            2.669454685298    -1.266329909626     1.662391076599     1.007825032230
         H            2.559452685298     1.055910090374    -2.727325923401     1.007825032230
         H            4.778073685298    -0.341337909626     0.686087076599     1.007825032230
         H            4.714712685298     0.814657090374    -1.514545923401     1.007825032230

  Basis Set: AUG-CC-PVTZ
    Blend: AUG-CC-PVTZ
  Basis Set: (AUG-CC-PVTZ AUX)
    Blend: AUG-CC-PVTZ-JKFIT
	 Reference Energy          =    -706.2765823895064159 [Eh]
	 Singles Energy            =      -0.0000000000000000 [Eh]
	 Same-Spin Energy          =      -0.7790185796150144 [Eh]
	 Opposite-Spin Energy      =      -2.4273856311979980 [Eh]
	 Correlation Energy        =      -3.2064042108130124 [Eh]
	 Total Energy              =    -709.4829866003194638 [Eh]

	 ================> DF-SCS-MP2 Energies <==================
	-----------------------------------------------------------
	 SCS Same-Spin Scale       =       0.3333333333333333 [-]
	 SCS Opposite-Spin Scale   =       1.2000000000000000 [-]
	 SCS Same-Spin Energy      =      -0.2596728598716714 [Eh]
	 SCS Opposite-Spin Energy  =      -2.9128627574375976 [Eh]
	 SCS Correlation Energy    =      -3.1725356173092689 [Eh]
	 SCS Total Energy          =    -709.4491180068156382 [Eh]
	-----------------------------------------------------------

  Dipole Moment: [D]
     X:    -0.1609      Y:     3.1167      Z:    -1.4882     Total:     3.4575

*** Psi4 exiting successfully. Buy a developer a beer!
