                               Psi4 1.3.2 release

  ==> Input File <==

--------------------------------------------------------------------------
#psi4
#
memory 32 gb

molecule  {
0 1
  O        0.3230460    -2.1253490     1.5079080
  N       -0.6324041     1.4922147     0.5421666
  C       -1.5101070     0.5270120     0.0739100
  C       -1.1120170    -0.8273510     0.1383580
  C        0.2324970    -1.2445130     0.6442670
  C       -2.7501440     0.8314100    -0.5084570
  C       -1.9788880    -1.8396620    -0.2859000
  C        1.4532580    -0.6371760     0.0400320
  C       -0.8389350     2.8684560     0.1240380
  C       -0.4489260     1.4615960     2.0415610
  C       -3.5841120    -0.1847810    -0.9811260
  C       -3.2098970    -1.5236550    -0.8600480
  C        1.4176430     0.0124460    -1.2019210
  C        2.6723110    -0.7931220     0.7125120
  C        2.5954110     0.5075660    -1.7582080
  C        3.8444690    -0.2807100     0.1592420
  C        3.8091760     0.3684650    -1.0779380
  H       -3.0858280     1.8625520    -0.5683870
  H       -1.6562960    -2.8740610    -0.1894870
  H       -1.7397670     3.3469090     0.5447380
  H       -0.9091950     2.8760430    -0.9660740
  H        0.0285190     3.4658540     0.4190740
  H       -0.3000960     0.4345950     2.3759160
  H       -1.3175180     1.8790800     2.5775500
  H        0.4394970     2.0433230     2.3053650
  H       -4.5402610     0.0757380    -1.4297920
  H       -3.8695260    -2.3131570    -1.2108590
  H        0.4733260     0.1189110    -1.7296950
  H        2.6795660    -1.3181790     1.6641980
  H        2.5695640     1.0040610    -2.7255190
  H        4.7881850    -0.3931870     0.6878940
  H        4.7248240     0.7628080    -1.5127390
units angstrom
no_reorient  #important for SAPT in psi4, default
symmetry c1  #important for SAPT in psi4, default
}

set PROPERTIES_ORIGIN ["COM"]
properties('MP2/aug-cc-pvtz', properties = ['dipole'])
--------------------------------------------------------------------------

    Molecular point group: c1
  Charge       = 0
  Multiplicity = 1
  Basis Set: AUG-CC-PVTZ
    Blend: AUG-CC-PVTZ
  Basis Set: (AUG-CC-PVTZ AUX)
    Blend: AUG-CC-PVTZ-JKFIT

    Orbital Energies [Eh]
    ---------------------

    Doubly Occupied:

       1A    -20.540325     2A    -15.571122     3A    -11.335631
       4A    -11.284905     5A    -11.259577     6A    -11.257854
       7A    -11.248411     8A    -11.247709     9A    -11.247215
      10A    -11.246876    11A    -11.243382    12A    -11.242197
      13A    -11.241530    14A    -11.239673    15A    -11.238846
      16A    -11.237449    17A    -11.234730    18A     -1.370932
      19A     -1.260277    20A     -1.158173    21A     -1.145906
      22A     -1.052288    23A     -1.023520    24A     -1.019031
      25A     -1.015161    26A     -0.961066    27A     -0.907426
      28A     -0.883866    29A     -0.838910    30A     -0.824122
      31A     -0.800674    32A     -0.761325    33A     -0.717760
      34A     -0.692825    35A     -0.665865    36A     -0.662345
      37A     -0.639651    38A     -0.636917    39A     -0.633349
      40A     -0.615808    41A     -0.611191    42A     -0.595982
      43A     -0.592909    44A     -0.586173    45A     -0.560262
      46A     -0.551995    47A     -0.544800    48A     -0.523321
      49A     -0.518480    50A     -0.516717    51A     -0.503757
      52A     -0.502242    53A     -0.495743    54A     -0.481927
      55A     -0.423920    56A     -0.406878    57A     -0.344669
      58A     -0.339835    59A     -0.339615    60A     -0.309453

  @DF-RHF Final Energy:  -706.28446803252564

   => Energetics <=

    Nuclear Repulsion Energy =           1160.6676467750057782
    One-Electron Energy =               -3263.9952382298920384
    Two-Electron Energy =                1397.0431234223606225
    Total Energy =                       -706.2844680325256377
  Basis Set: (AUG-CC-PVTZ AUX)
    Blend: AUG-CC-PVTZ-RI
    Molecular point group: c1

    Geometry (in Angstrom), charge = 0, multiplicity = 1:

       Center              X                  Y                   Z               Mass
    ------------   -----------------  -----------------  -----------------  -----------------
         O            0.315565685164    -2.076084169662     1.512000120399    15.994914619570
         N           -0.639884414836     1.541479530338     0.546258720399    14.003074004430
         C           -1.517587314836     0.576276830338     0.078002120399    12.000000000000
         C           -1.119497314836    -0.778086169662     0.142450120399    12.000000000000
         C            0.225016685164    -1.195248169662     0.648359120399    12.000000000000
         C           -2.757624314836     0.880674830338    -0.504364879601    12.000000000000
         C           -1.986368314836    -1.790397169662    -0.281807879601    12.000000000000
         C            1.445777685164    -0.587911169662     0.044124120399    12.000000000000
         C           -0.846415314836     2.917720830338     0.128130120399    12.000000000000
         C           -0.456406314836     1.510860830338     2.045653120399    12.000000000000
         C           -3.591592314836    -0.135516169662    -0.977033879601    12.000000000000
         C           -3.217377314836    -1.474390169662    -0.855955879601    12.000000000000
         C            1.410162685164     0.061710830338    -1.197828879601    12.000000000000
         C            2.664830685164    -0.743857169662     0.716604120399    12.000000000000
         C            2.587930685164     0.556830830338    -1.754115879601    12.000000000000
         C            3.836988685164    -0.231445169662     0.163334120399    12.000000000000
         C            3.801695685164     0.417729830338    -1.073845879601    12.000000000000
         H           -3.093308314836     1.911816830338    -0.564294879601     1.007825032230
         H           -1.663776314836    -2.824796169662    -0.185394879601     1.007825032230
         H           -1.747247314836     3.396173830338     0.548830120399     1.007825032230
         H           -0.916675314836     2.925307830338    -0.961981879601     1.007825032230
         H            0.021038685164     3.515118830338     0.423166120399     1.007825032230
         H           -0.307576314836     0.483859830338     2.380008120399     1.007825032230
         H           -1.324998314836     1.928344830338     2.581642120399     1.007825032230
         H            0.432016685164     2.092587830338     2.309457120399     1.007825032230
         H           -4.547741314836     0.125002830338    -1.425699879601     1.007825032230
         H           -3.877006314836    -2.263892169662    -1.206766879601     1.007825032230
         H            0.465845685164     0.168175830338    -1.725602879601     1.007825032230
         H            2.672085685164    -1.268914169662     1.668290120399     1.007825032230
         H            2.562083685164     1.053325830338    -2.721426879601     1.007825032230
         H            4.780704685164    -0.343922169662     0.691986120399     1.007825032230
         H            4.717343685164     0.812072830338    -1.508646879601     1.007825032230

  Basis Set: AUG-CC-PVTZ
    Blend: AUG-CC-PVTZ
  Basis Set: (AUG-CC-PVTZ AUX)
    Blend: AUG-CC-PVTZ-JKFIT
	 Reference Energy          =    -706.2844680325256377 [Eh]
	 Singles Energy            =      -0.0000000000000000 [Eh]
	 Same-Spin Energy          =      -0.7795518599903952 [Eh]
	 Opposite-Spin Energy      =      -2.4277205913780264 [Eh]
	 Correlation Energy        =      -3.2072724513684214 [Eh]
	 Total Energy              =    -709.4917404838940911 [Eh]

	 ================> DF-SCS-MP2 Energies <==================
	-----------------------------------------------------------
	 SCS Same-Spin Scale       =       0.3333333333333333 [-]
	 SCS Opposite-Spin Scale   =       1.2000000000000000 [-]
	 SCS Same-Spin Energy      =      -0.2598506199967984 [Eh]
	 SCS Opposite-Spin Energy  =      -2.9132647096536317 [Eh]
	 SCS Correlation Energy    =      -3.1731153296504302 [Eh]
	 SCS Total Energy          =    -709.4575833621760239 [Eh]
	-----------------------------------------------------------

  Dipole Moment: [D]
     X:    -0.2088      Y:     3.2287      Z:    -1.3081     Total:     3.4899

*** Psi4 exiting successfully. Buy a developer a beer!
