                               Psi4 1.3.2 release

  ==> Input File <==

--------------------------------------------------------------------------
#psi4
#
memory 32 gb

molecule  {
0 1
  O        0.3230460    -2.1253490     1.5079080
  N       -0.6336617     1.4781592     0.4934487
  C       -1.5101070     0.5270120     0.0739100
  C       -1.1120170    -0.8273510     0.1383580
  C        0.2324970    -1.2445130     0.6442670
  C       -2.7501440     0.8314100    -0.5084570
  C       -1.9788880    -1.8396620    -0.2859000
  C        1.4532580    -0.6371760     0.0400320
  C       -0.8389350     2.8684560     0.1240380
  C       -0.4489260     1.4615960     2.0415610
  C       -3.5841120    -0.1847810    -0.9811260
  C       -3.2098970    -1.5236550    -0.8600480
  C        1.4176430     0.0124460    -1.2019210
  C        2.6723110    -0.7931220     0.7125120
  C        2.5954110     0.5075660    -1.7582080
  C        3.8444690    -0.2807100     0.1592420
  C        3.8091760     0.3684650    -1.0779380
  H       -3.0858280     1.8625520    -0.5683870
  H       -1.6562960    -2.8740610    -0.1894870
  H       -1.7397670     3.3469090     0.5447380
  H       -0.9091950     2.8760430    -0.9660740
  H        0.0285190     3.4658540     0.4190740
  H       -0.3000960     0.4345950     2.3759160
  H       -1.3175180     1.8790800     2.5775500
  H        0.4394970     2.0433230     2.3053650
  H       -4.5402610     0.0757380    -1.4297920
  H       -3.8695260    -2.3131570    -1.2108590
  H        0.4733260     0.1189110    -1.7296950
  H        2.6795660    -1.3181790     1.6641980
  H        2.5695640     1.0040610    -2.7255190
  H        4.7881850    -0.3931870     0.6878940
  H        4.7248240     0.7628080    -1.5127390
units angstrom
no_reorient  #important for SAPT in psi4, default
symmetry c1  #important for SAPT in psi4, default
}

set PROPERTIES_ORIGIN ["COM"]
properties('MP2/aug-cc-pvtz', properties = ['dipole'])
--------------------------------------------------------------------------

    Molecular point group: c1
  Charge       = 0
  Multiplicity = 1
  Basis Set: AUG-CC-PVTZ
    Blend: AUG-CC-PVTZ
  Basis Set: (AUG-CC-PVTZ AUX)
    Blend: AUG-CC-PVTZ-JKFIT

    Orbital Energies [Eh]
    ---------------------

    Doubly Occupied:

       1A    -20.539879     2A    -15.573417     3A    -11.335076
       4A    -11.282963     5A    -11.264384     6A    -11.258770
       7A    -11.247543     8A    -11.247408     9A    -11.246510
      10A    -11.246468    11A    -11.242998    12A    -11.241753
      13A    -11.239898    14A    -11.239258    15A    -11.238482
      16A    -11.235603    17A    -11.233148    18A     -1.370497
      19A     -1.263100    20A     -1.157716    21A     -1.143854
      22A     -1.051769    23A     -1.022947    24A     -1.018362
      25A     -1.014464    26A     -0.958202    27A     -0.911978
      28A     -0.884633    29A     -0.838587    30A     -0.823753
      31A     -0.799787    32A     -0.760642    33A     -0.717122
      34A     -0.692305    35A     -0.665759    36A     -0.662080
      37A     -0.639046    38A     -0.636493    39A     -0.632468
      40A     -0.615587    41A     -0.610579    42A     -0.595369
      43A     -0.592418    44A     -0.583883    45A     -0.565896
      46A     -0.553306    47A     -0.544079    48A     -0.523649
      49A     -0.517245    50A     -0.515625    51A     -0.504118
      52A     -0.496951    53A     -0.495008    54A     -0.480413
      55A     -0.425657    56A     -0.409469    57A     -0.343977
      58A     -0.339495    59A     -0.339088    60A     -0.307249

  @DF-RHF Final Energy:  -706.27714212086858

   => Energetics <=

    Nuclear Repulsion Energy =           1160.9919217561312053
    One-Electron Energy =               -3264.6617639497017080
    Two-Electron Energy =                1397.3927000727021550
    Total Energy =                       -706.2771421208685751
  Basis Set: (AUG-CC-PVTZ AUX)
    Blend: AUG-CC-PVTZ-RI
    Molecular point group: c1

    Geometry (in Angstrom), charge = 0, multiplicity = 1:

       Center              X                  Y                   Z               Mass
    ------------   -----------------  -----------------  -----------------  -----------------
         O            0.315643912903    -2.075209861471     1.515030568195    15.994914619570
         N           -0.641063787097     1.528298338529     0.500571268195    14.003074004430
         C           -1.517509087097     0.577151138529     0.081032568195    12.000000000000
         C           -1.119419087097    -0.777211861471     0.145480568195    12.000000000000
         C            0.225094912903    -1.194373861471     0.651389568195    12.000000000000
         C           -2.757546087097     0.881549138529    -0.501334431805    12.000000000000
         C           -1.986290087097    -1.789522861471    -0.278777431805    12.000000000000
         C            1.445855912903    -0.587036861471     0.047154568195    12.000000000000
         C           -0.846337087097     2.918595138529     0.131160568195    12.000000000000
         C           -0.456328087097     1.511735138529     2.048683568195    12.000000000000
         C           -3.591514087097    -0.134641861471    -0.974003431805    12.000000000000
         C           -3.217299087097    -1.473515861471    -0.852925431805    12.000000000000
         C            1.410240912903     0.062585138529    -1.194798431805    12.000000000000
         C            2.664908912903    -0.742982861471     0.719634568195    12.000000000000
         C            2.588008912903     0.557705138529    -1.751085431805    12.000000000000
         C            3.837066912903    -0.230570861471     0.166364568195    12.000000000000
         C            3.801773912903     0.418604138529    -1.070815431805    12.000000000000
         H           -3.093230087097     1.912691138529    -0.561264431805     1.007825032230
         H           -1.663698087097    -2.823921861471    -0.182364431805     1.007825032230
         H           -1.747169087097     3.397048138529     0.551860568195     1.007825032230
         H           -0.916597087097     2.926182138529    -0.958951431805     1.007825032230
         H            0.021116912903     3.515993138529     0.426196568195     1.007825032230
         H           -0.307498087097     0.484734138529     2.383038568195     1.007825032230
         H           -1.324920087097     1.929219138529     2.584672568195     1.007825032230
         H            0.432094912903     2.093462138529     2.312487568195     1.007825032230
         H           -4.547663087097     0.125877138529    -1.422669431805     1.007825032230
         H           -3.876928087097    -2.263017861471    -1.203736431805     1.007825032230
         H            0.465923912903     0.169050138529    -1.722572431805     1.007825032230
         H            2.672163912903    -1.268039861471     1.671320568195     1.007825032230
         H            2.562161912903     1.054200138529    -2.718396431805     1.007825032230
         H            4.780782912903    -0.343047861471     0.695016568195     1.007825032230
         H            4.717421912903     0.812947138529    -1.505616431805     1.007825032230

  Basis Set: AUG-CC-PVTZ
    Blend: AUG-CC-PVTZ
  Basis Set: (AUG-CC-PVTZ AUX)
    Blend: AUG-CC-PVTZ-JKFIT
	 Reference Energy          =    -706.2771421208685751 [Eh]
	 Singles Energy            =      -0.0000000000000000 [Eh]
	 Same-Spin Energy          =      -0.7799684514548151 [Eh]
	 Opposite-Spin Energy      =      -2.4286516912361353 [Eh]
	 Correlation Energy        =      -3.2086201426909504 [Eh]
	 Total Energy              =    -709.4857622635595362 [Eh]

	 ================> DF-SCS-MP2 Energies <==================
	-----------------------------------------------------------
	 SCS Same-Spin Scale       =       0.3333333333333333 [-]
	 SCS Opposite-Spin Scale   =       1.2000000000000000 [-]
	 SCS Same-Spin Energy      =      -0.2599894838182717 [Eh]
	 SCS Opposite-Spin Energy  =      -2.9143820294833622 [Eh]
	 SCS Correlation Energy    =      -3.1743715133016339 [Eh]
	 SCS Total Energy          =    -709.4515136341701691 [Eh]
	-----------------------------------------------------------

  Dipole Moment: [D]
     X:    -0.1801      Y:     3.3393      Z:    -1.1706     Total:     3.5431

*** Psi4 exiting successfully. Buy a developer a beer!
