                               Psi4 1.3.2 release

  ==> Input File <==

--------------------------------------------------------------------------
#psi4
#
memory 32 gb

molecule  {
0 1
  O        0.3230460    -2.1253490     1.5079080
  N       -0.6301454     1.5443631     0.6850294
  C       -1.5101070     0.5270120     0.0739100
  C       -1.1120170    -0.8273510     0.1383580
  C        0.2324970    -1.2445130     0.6442670
  C       -2.7501440     0.8314100    -0.5084570
  C       -1.9788880    -1.8396620    -0.2859000
  C        1.4532580    -0.6371760     0.0400320
  C       -0.8389350     2.8684560     0.1240380
  C       -0.4489260     1.4615960     2.0415610
  C       -3.5841120    -0.1847810    -0.9811260
  C       -3.2098970    -1.5236550    -0.8600480
  C        1.4176430     0.0124460    -1.2019210
  C        2.6723110    -0.7931220     0.7125120
  C        2.5954110     0.5075660    -1.7582080
  C        3.8444690    -0.2807100     0.1592420
  C        3.8091760     0.3684650    -1.0779380
  H       -3.0858280     1.8625520    -0.5683870
  H       -1.6562960    -2.8740610    -0.1894870
  H       -1.7397670     3.3469090     0.5447380
  H       -0.9091950     2.8760430    -0.9660740
  H        0.0285190     3.4658540     0.4190740
  H       -0.3000960     0.4345950     2.3759160
  H       -1.3175180     1.8790800     2.5775500
  H        0.4394970     2.0433230     2.3053650
  H       -4.5402610     0.0757380    -1.4297920
  H       -3.8695260    -2.3131570    -1.2108590
  H        0.4733260     0.1189110    -1.7296950
  H        2.6795660    -1.3181790     1.6641980
  H        2.5695640     1.0040610    -2.7255190
  H        4.7881850    -0.3931870     0.6878940
  H        4.7248240     0.7628080    -1.5127390
units angstrom
no_reorient  #important for SAPT in psi4, default
symmetry c1  #important for SAPT in psi4, default
}

set PROPERTIES_ORIGIN ["COM"]
properties('MP2/aug-cc-pvtz', properties = ['dipole'])
--------------------------------------------------------------------------

    Molecular point group: c1
  Charge       = 0
  Multiplicity = 1
  Basis Set: AUG-CC-PVTZ
    Blend: AUG-CC-PVTZ
  Basis Set: (AUG-CC-PVTZ AUX)
    Blend: AUG-CC-PVTZ-JKFIT

    Orbital Energies [Eh]
    ---------------------

    Doubly Occupied:

       1A    -20.541805     2A    -15.563747     3A    -11.337439
       4A    -11.291003     5A    -11.256936     6A    -11.251107
       7A    -11.249733     8A    -11.248891     9A    -11.248295
      10A    -11.246636    11A    -11.244865    12A    -11.244741
      13A    -11.243650    14A    -11.243038    15A    -11.241107
      16A    -11.240115    17A    -11.239441    18A     -1.372372
      19A     -1.260446    20A     -1.160258    21A     -1.152730
      22A     -1.054132    23A     -1.025972    24A     -1.021673
      25A     -1.017647    26A     -0.972240    27A     -0.897930
      28A     -0.875604    29A     -0.840155    30A     -0.825524
      31A     -0.802251    32A     -0.763536    33A     -0.720049
      34A     -0.694823    35A     -0.667376    36A     -0.664120
      37A     -0.642380    38A     -0.639391    39A     -0.637246
      40A     -0.617211    41A     -0.613678    42A     -0.599900
      43A     -0.598032    44A     -0.593151    45A     -0.555760
      46A     -0.548271    47A     -0.539830    48A     -0.532176
      49A     -0.521153    50A     -0.518233    51A     -0.509203
      52A     -0.499396    53A     -0.495840    54A     -0.480451
      55A     -0.422481    56A     -0.392490    57A     -0.346985
      58A     -0.341245    59A     -0.340898    60A     -0.314008

  @DF-RHF Final Energy:  -706.27773864081712

   => Energetics <=

    Nuclear Repulsion Energy =           1159.5946914143512458
    One-Electron Energy =               -3261.7032729625393586
    Two-Electron Energy =                1395.8308429073713341
    Total Energy =                       -706.2777386408170059
  Basis Set: (AUG-CC-PVTZ AUX)
    Blend: AUG-CC-PVTZ-RI
    Molecular point group: c1

    Geometry (in Angstrom), charge = 0, multiplicity = 1:

       Center              X                  Y                   Z               Mass
    ------------   -----------------  -----------------  -----------------  -----------------
         O            0.315425185010    -2.079328008248     1.503113484123    15.994914619570
         N           -0.637766214990     1.590384091752     0.680234884123    14.003074004430
         C           -1.517727814990     0.573032991752     0.069115484123    12.000000000000
         C           -1.119637814990    -0.781330008248     0.133563484123    12.000000000000
         C            0.224876185010    -1.198492008248     0.639472484123    12.000000000000
         C           -2.757764814990     0.877430991752    -0.513251515877    12.000000000000
         C           -1.986508814990    -1.793641008248    -0.290694515877    12.000000000000
         C            1.445637185010    -0.591155008248     0.035237484123    12.000000000000
         C           -0.846555814990     2.914476991752     0.119243484123    12.000000000000
         C           -0.456546814990     1.507616991752     2.036766484123    12.000000000000
         C           -3.591732814990    -0.138760008248    -0.985920515877    12.000000000000
         C           -3.217517814990    -1.477634008248    -0.864842515877    12.000000000000
         C            1.410022185010     0.058466991752    -1.206715515877    12.000000000000
         C            2.664690185010    -0.747101008248     0.707717484123    12.000000000000
         C            2.587790185010     0.553586991752    -1.763002515877    12.000000000000
         C            3.836848185010    -0.234689008248     0.154447484123    12.000000000000
         C            3.801555185010     0.414485991752    -1.082732515877    12.000000000000
         H           -3.093448814990     1.908572991752    -0.573181515877     1.007825032230
         H           -1.663916814990    -2.828040008248    -0.194281515877     1.007825032230
         H           -1.747387814990     3.392929991752     0.539943484123     1.007825032230
         H           -0.916815814990     2.922063991752    -0.970868515877     1.007825032230
         H            0.020898185010     3.511874991752     0.414279484123     1.007825032230
         H           -0.307716814990     0.480615991752     2.371121484123     1.007825032230
         H           -1.325138814990     1.925100991752     2.572755484123     1.007825032230
         H            0.431876185010     2.089343991752     2.300570484123     1.007825032230
         H           -4.547881814990     0.121758991752    -1.434586515877     1.007825032230
         H           -3.877146814990    -2.267136008248    -1.215653515877     1.007825032230
         H            0.465705185010     0.164931991752    -1.734489515877     1.007825032230
         H            2.671945185010    -1.272158008248     1.659403484123     1.007825032230
         H            2.561943185010     1.050081991752    -2.730313515877     1.007825032230
         H            4.780564185010    -0.347166008248     0.683099484123     1.007825032230
         H            4.717203185010     0.808828991752    -1.517533515877     1.007825032230

  Basis Set: AUG-CC-PVTZ
    Blend: AUG-CC-PVTZ
  Basis Set: (AUG-CC-PVTZ AUX)
    Blend: AUG-CC-PVTZ-JKFIT
	 Reference Energy          =    -706.2777386408171196 [Eh]
	 Singles Energy            =      -0.0000000000000000 [Eh]
	 Same-Spin Energy          =      -0.7793538076822091 [Eh]
	 Opposite-Spin Energy      =      -2.4268770867942795 [Eh]
	 Correlation Energy        =      -3.2062308944764886 [Eh]
	 Total Energy              =    -709.4839695352935678 [Eh]

	 ================> DF-SCS-MP2 Energies <==================
	-----------------------------------------------------------
	 SCS Same-Spin Scale       =       0.3333333333333333 [-]
	 SCS Opposite-Spin Scale   =       1.2000000000000000 [-]
	 SCS Same-Spin Energy      =      -0.2597846025607363 [Eh]
	 SCS Opposite-Spin Energy  =      -2.9122525041531353 [Eh]
	 SCS Correlation Energy    =      -3.1720371067138715 [Eh]
	 SCS Total Energy          =    -709.4497757475310209 [Eh]
	-----------------------------------------------------------

  Dipole Moment: [D]
     X:    -0.2798      Y:     2.8511      Z:    -1.8037     Total:     3.3853

*** Psi4 exiting successfully. Buy a developer a beer!
