                               Psi4 1.3.2 release

  ==> Input File <==

--------------------------------------------------------------------------
#psi4
#
memory 32 gb

molecule  {
0 1
  O        0.3230460    -2.1253490     1.5079080
  N       -0.6313980     1.5079470     0.5903750
  C       -1.5101070     0.5270120     0.0739100
  C       -1.1120170    -0.8273510     0.1383580
  C        0.2324970    -1.2445130     0.6442670
  C       -2.7501440     0.8314100    -0.5084570
  C       -1.9788880    -1.8396620    -0.2859000
  C        1.4532580    -0.6371760     0.0400320
  C       -0.8463211     2.8312995     0.0299530
  C       -0.4489260     1.4615960     2.0415610
  C       -3.5841120    -0.1847810    -0.9811260
  C       -3.2098970    -1.5236550    -0.8600480
  C        1.4176430     0.0124460    -1.2019210
  C        2.6723110    -0.7931220     0.7125120
  C        2.5954110     0.5075660    -1.7582080
  C        3.8444690    -0.2807100     0.1592420
  C        3.8091760     0.3684650    -1.0779380
  H       -3.0858280     1.8625520    -0.5683870
  H       -1.6562960    -2.8740610    -0.1894870
  H       -1.7397670     3.3469090     0.5447380
  H       -0.9091950     2.8760430    -0.9660740
  H        0.0285190     3.4658540     0.4190740
  H       -0.3000960     0.4345950     2.3759160
  H       -1.3175180     1.8790800     2.5775500
  H        0.4394970     2.0433230     2.3053650
  H       -4.5402610     0.0757380    -1.4297920
  H       -3.8695260    -2.3131570    -1.2108590
  H        0.4733260     0.1189110    -1.7296950
  H        2.6795660    -1.3181790     1.6641980
  H        2.5695640     1.0040610    -2.7255190
  H        4.7881850    -0.3931870     0.6878940
  H        4.7248240     0.7628080    -1.5127390
units angstrom
no_reorient  #important for SAPT in psi4, default
symmetry c1  #important for SAPT in psi4, default
}

set PROPERTIES_ORIGIN ["COM"]
properties('MP2/aug-cc-pvtz', properties = ['dipole'])
--------------------------------------------------------------------------

    Molecular point group: c1
  Charge       = 0
  Multiplicity = 1
  Basis Set: AUG-CC-PVTZ
    Blend: AUG-CC-PVTZ
  Basis Set: (AUG-CC-PVTZ AUX)
    Blend: AUG-CC-PVTZ-JKFIT

    Orbital Energies [Eh]
    ---------------------

    Doubly Occupied:

       1A    -20.540965     2A    -15.569184     3A    -11.336289
       4A    -11.285678     5A    -11.259453     6A    -11.257000
       7A    -11.249202     8A    -11.248244     9A    -11.247789
      10A    -11.247596    11A    -11.244062    12A    -11.242895
      13A    -11.242665    14A    -11.240432    15A    -11.239481
      16A    -11.238857    17A    -11.236221    18A     -1.371559
      19A     -1.258911    20A     -1.158911    21A     -1.147610
      22A     -1.052856    23A     -1.024337    24A     -1.019894
      25A     -1.014883    26A     -0.969998    27A     -0.902167
      28A     -0.882150    29A     -0.839469    30A     -0.824640
      31A     -0.802227    32A     -0.762319    33A     -0.719226
      34A     -0.696508    35A     -0.668711    36A     -0.661436
      37A     -0.643049    38A     -0.638683    39A     -0.631432
      40A     -0.616319    41A     -0.611095    42A     -0.596670
      43A     -0.594230    44A     -0.589916    45A     -0.561728
      46A     -0.550807    47A     -0.536577    48A     -0.526243
      49A     -0.522472    50A     -0.517532    51A     -0.506273
      52A     -0.501644    53A     -0.496137    54A     -0.482349
      55A     -0.422526    56A     -0.399472    57A     -0.345322
      58A     -0.340493    59A     -0.340231    60A     -0.310382

  @DF-RHF Final Energy:  -706.27439259688754

   => Energetics <=

    Nuclear Repulsion Energy =           1160.7902538094549527
    One-Electron Energy =               -3264.1584805088486974
    Two-Electron Energy =                1397.0938341025062073
    Total Energy =                       -706.2743925968875374
  Basis Set: (AUG-CC-PVTZ AUX)
    Blend: AUG-CC-PVTZ-RI
    Molecular point group: c1

    Geometry (in Angstrom), charge = 0, multiplicity = 1:

       Center              X                  Y                   Z               Mass
    ------------   -----------------  -----------------  -----------------  -----------------
         O            0.315896825189    -2.075082117048     1.514016660713    15.994914619570
         N           -0.638547174811     1.558213882952     0.596483660713    14.003074004430
         C           -1.517256174811     0.577278882952     0.080018660713    12.000000000000
         C           -1.119166174811    -0.777084117048     0.144466660713    12.000000000000
         C            0.225347825189    -1.194246117048     0.650375660713    12.000000000000
         C           -2.757293174811     0.881676882952    -0.502348339287    12.000000000000
         C           -1.986037174811    -1.789395117048    -0.279791339287    12.000000000000
         C            1.446108825189    -0.586909117048     0.046140660713    12.000000000000
         C           -0.853470274811     2.881566382952     0.036061660713    12.000000000000
         C           -0.456075174811     1.511862882952     2.047669660713    12.000000000000
         C           -3.591261174811    -0.134514117048    -0.975017339287    12.000000000000
         C           -3.217046174811    -1.473388117048    -0.853939339287    12.000000000000
         C            1.410493825189     0.062712882952    -1.195812339287    12.000000000000
         C            2.665161825189    -0.742855117048     0.718620660713    12.000000000000
         C            2.588261825189     0.557832882952    -1.752099339287    12.000000000000
         C            3.837319825189    -0.230443117048     0.165350660713    12.000000000000
         C            3.802026825189     0.418731882952    -1.071829339287    12.000000000000
         H           -3.092977174811     1.912818882952    -0.562278339287     1.007825032230
         H           -1.663445174811    -2.823794117048    -0.183378339287     1.007825032230
         H           -1.746916174811     3.397175882952     0.550846660713     1.007825032230
         H           -0.916344174811     2.926309882952    -0.959965339287     1.007825032230
         H            0.021369825189     3.516120882952     0.425182660713     1.007825032230
         H           -0.307245174811     0.484861882952     2.382024660713     1.007825032230
         H           -1.324667174811     1.929346882952     2.583658660713     1.007825032230
         H            0.432347825189     2.093589882952     2.311473660713     1.007825032230
         H           -4.547410174811     0.126004882952    -1.423683339287     1.007825032230
         H           -3.876675174811    -2.262890117048    -1.204750339287     1.007825032230
         H            0.466176825189     0.169177882952    -1.723586339287     1.007825032230
         H            2.672416825189    -1.267912117048     1.670306660713     1.007825032230
         H            2.562414825189     1.054327882952    -2.719410339287     1.007825032230
         H            4.781035825189    -0.342920117048     0.694002660713     1.007825032230
         H            4.717674825189     0.813074882952    -1.506630339287     1.007825032230

  Basis Set: AUG-CC-PVTZ
    Blend: AUG-CC-PVTZ
  Basis Set: (AUG-CC-PVTZ AUX)
    Blend: AUG-CC-PVTZ-JKFIT
	 Reference Energy          =    -706.2743925968875374 [Eh]
	 Singles Energy            =      -0.0000000000000000 [Eh]
	 Same-Spin Energy          =      -0.7795576142640608 [Eh]
	 Opposite-Spin Energy      =      -2.4276795551709132 [Eh]
	 Correlation Energy        =      -3.2072371694349737 [Eh]
	 Total Energy              =    -709.4816297663224987 [Eh]

	 ================> DF-SCS-MP2 Energies <==================
	-----------------------------------------------------------
	 SCS Same-Spin Scale       =       0.3333333333333333 [-]
	 SCS Opposite-Spin Scale   =       1.2000000000000000 [-]
	 SCS Same-Spin Energy      =      -0.2598525380880202 [Eh]
	 SCS Opposite-Spin Energy  =      -2.9132154662050955 [Eh]
	 SCS Correlation Energy    =      -3.1730680042931159 [Eh]
	 SCS Total Energy          =    -709.4474606011806372 [Eh]
	-----------------------------------------------------------

  Dipole Moment: [D]
     X:    -0.1955      Y:     3.0501      Z:    -1.4915     Total:     3.4009

*** Psi4 exiting successfully. Buy a developer a beer!
