                               Psi4 1.3.2 release

  ==> Input File <==

--------------------------------------------------------------------------
#psi4
#
memory 32 gb

molecule  {
0 1
  S        1.0053540    -0.0074810    -0.7736030
  S       -1.6960990    -1.1658100     0.0116150
  O        1.1339470    -1.3419000    -1.3567350
  O        1.3858060     1.2139170    -1.4782970
  N        1.7772249    -0.0102385     0.7095849
  C       -0.6861290     0.1873580    -0.3161810
  C        1.8702590     1.2384050     1.3961810
  C        1.6932100    -1.2084810     1.4940670
  C       -1.3340060     1.3908220    -0.1017950
  C       -2.6674560     1.1993540     0.3271550
  C       -2.9984720    -0.1352680     0.4414500
  H        2.0840190     2.0584320     0.7119160
  H        2.6656140     1.1849010     2.1428720
  H        0.9115380     1.4151000     1.9054530
  H        1.7293810    -2.1000160     0.8695980
  H        0.7471110    -1.1811200     2.0534300
  H        2.5234680    -1.2398400     2.2034110
  H       -0.8634200     2.3493520    -0.2940320
  H       -3.3646430     2.0039100     0.5365790
  H       -3.9505650    -0.5636820     0.7303990
units angstrom
no_reorient  #important for SAPT in psi4, default
symmetry c1  #important for SAPT in psi4, default
}

set PROPERTIES_ORIGIN ["COM"]
properties('MP2/aug-cc-pvtz', properties = ['dipole'])
--------------------------------------------------------------------------

    Molecular point group: c1
  Charge       = 0
  Multiplicity = 1
  Basis Set: AUG-CC-PVTZ
    Blend: AUG-CC-PVTZ
  Basis Set: (AUG-CC-PVTZ AUX)
    Blend: AUG-CC-PVTZ-JKFIT

    Orbital Energies [Eh]
    ---------------------

    Doubly Occupied:

       1A    -92.212222     2A    -92.013973     3A    -20.554309
       4A    -20.553669     5A    -15.600003     6A    -11.296293
       7A    -11.292545     8A    -11.273823     9A    -11.270408
      10A    -11.269740    11A    -11.262297    12A     -9.175785
      13A     -9.013519    14A     -6.860982    15A     -6.860616
      16A     -6.860390    17A     -6.694370    18A     -6.693839
      19A     -6.693077    20A     -1.458585    21A     -1.343339
      22A     -1.264522    23A     -1.199032    24A     -1.031172
      25A     -1.015063    26A     -0.989942    27A     -0.947850
      28A     -0.848265    29A     -0.784415    30A     -0.754855
      31A     -0.727756    32A     -0.708908    33A     -0.666913
      34A     -0.664517    35A     -0.628313    36A     -0.619716
      37A     -0.586228    38A     -0.580323    39A     -0.572132
      40A     -0.562492    41A     -0.553397    42A     -0.547192
      43A     -0.512298    44A     -0.501550    45A     -0.500114
      46A     -0.476611    47A     -0.468576    48A     -0.405507
      49A     -0.370496    50A     -0.349371

  @DF-RHF Final Energy: -1231.78537826753268

   => Energetics <=

    Nuclear Repulsion Energy =            894.0265558874017415
    One-Electron Energy =               -3471.4412510943748202
    Two-Electron Energy =                1345.6293169394405140
    Total Energy =                      -1231.7853782675326784
  Basis Set: (AUG-CC-PVTZ AUX)
    Blend: AUG-CC-PVTZ-RI
    Molecular point group: c1

    Geometry (in Angstrom), charge = 0, multiplicity = 1:

       Center              X                  Y                   Z               Mass
    ------------   -----------------  -----------------  -----------------  -----------------
         S            1.025583060805     0.011779737725    -0.721579209950    31.972071174400
         S           -1.675869939195    -1.146549262275     0.063638790050    31.972071174400
         O            1.154176060805    -1.322639262275    -1.304711209950    15.994914619570
         O            1.406035060805     1.233177737725    -1.426273209950    15.994914619570
         N            1.797453960805     0.009022237725     0.761608690050    14.003074004430
         C           -0.665899939195     0.206618737725    -0.264157209950    12.000000000000
         C            1.890488060805     1.257665737725     1.448204790050    12.000000000000
         C            1.713439060805    -1.189220262275     1.546090790050    12.000000000000
         C           -1.313776939195     1.410082737725    -0.049771209950    12.000000000000
         C           -2.647226939195     1.218614737725     0.379178790050    12.000000000000
         C           -2.978242939195    -0.116007262275     0.493473790050    12.000000000000
         H            2.104248060805     2.077692737725     0.763939790050     1.007825032230
         H            2.685843060805     1.204161737725     2.194895790050     1.007825032230
         H            0.931767060805     1.434360737725     1.957476790050     1.007825032230
         H            1.749610060805    -2.080755262275     0.921621790050     1.007825032230
         H            0.767340060805    -1.161859262275     2.105453790050     1.007825032230
         H            2.543697060805    -1.220579262275     2.255434790050     1.007825032230
         H           -0.843190939195     2.368612737725    -0.242008209950     1.007825032230
         H           -3.344413939195     2.023170737725     0.588602790050     1.007825032230
         H           -3.930335939195    -0.544421262275     0.782422790050     1.007825032230

  Basis Set: AUG-CC-PVTZ
    Blend: AUG-CC-PVTZ
  Basis Set: (AUG-CC-PVTZ AUX)
    Blend: AUG-CC-PVTZ-JKFIT
	 Reference Energy          =   -1231.7853782675326784 [Eh]
	 Singles Energy            =      -0.0000000000000000 [Eh]
	 Same-Spin Energy          =      -0.5865795527052132 [Eh]
	 Opposite-Spin Energy      =      -1.7439335725520517 [Eh]
	 Correlation Energy        =      -2.3305131252572648 [Eh]
	 Total Energy              =   -1234.1158913927899903 [Eh]

	 ================> DF-SCS-MP2 Energies <==================
	-----------------------------------------------------------
	 SCS Same-Spin Scale       =       0.3333333333333333 [-]
	 SCS Opposite-Spin Scale   =       1.2000000000000000 [-]
	 SCS Same-Spin Energy      =      -0.1955265175684044 [Eh]
	 SCS Opposite-Spin Energy  =      -2.0927202870624622 [Eh]
	 SCS Correlation Energy    =      -2.2882468046308664 [Eh]
	 SCS Total Energy          =   -1234.0736250721636225 [Eh]
	-----------------------------------------------------------

  Dipole Moment: [D]
     X:    -2.1962      Y:     0.7027      Z:     4.5662     Total:     5.1154

*** Psi4 exiting successfully. Buy a developer a beer!
