                               Psi4 1.3.2 release

  ==> Input File <==

--------------------------------------------------------------------------
#psi4
#
memory 32 gb

molecule  {
0 1
  S        1.0053540    -0.0074810    -0.7736030
  S       -1.7403452    -1.1279284     0.0261684
  O        1.1339470    -1.3419000    -1.3567350
  O        1.3858060     1.2139170    -1.4782970
  N        1.8781370    -0.0233820     0.6524530
  C       -0.6861290     0.1873580    -0.3161810
  C        1.8702590     1.2384050     1.3961810
  C        1.6932100    -1.2084810     1.4940670
  C       -1.3340060     1.3908220    -0.1017950
  C       -2.6674560     1.1993540     0.3271550
  C       -2.9984720    -0.1352680     0.4414500
  H        2.0840190     2.0584320     0.7119160
  H        2.6656140     1.1849010     2.1428720
  H        0.9115380     1.4151000     1.9054530
  H        1.7293810    -2.1000160     0.8695980
  H        0.7471110    -1.1811200     2.0534300
  H        2.5234680    -1.2398400     2.2034110
  H       -0.8634200     2.3493520    -0.2940320
  H       -3.3646430     2.0039100     0.5365790
  H       -3.9505650    -0.5636820     0.7303990
units angstrom
no_reorient  #important for SAPT in psi4, default
symmetry c1  #important for SAPT in psi4, default
}

set PROPERTIES_ORIGIN ["COM"]
properties('MP2/aug-cc-pvtz', properties = ['dipole'])
--------------------------------------------------------------------------

    Molecular point group: c1
  Charge       = 0
  Multiplicity = 1
  Basis Set: AUG-CC-PVTZ
    Blend: AUG-CC-PVTZ
  Basis Set: (AUG-CC-PVTZ AUX)
    Blend: AUG-CC-PVTZ-JKFIT

    Orbital Energies [Eh]
    ---------------------

    Doubly Occupied:

       1A    -92.209050     2A    -92.014636     3A    -20.549956
       4A    -20.549461     5A    -15.606596     6A    -11.296750
       7A    -11.290717     8A    -11.276143     9A    -11.272112
      10A    -11.270885    11A    -11.261566    12A     -9.173046
      13A     -9.015611    14A     -6.858178    15A     -6.857916
      16A     -6.857531    17A     -6.696528    18A     -6.696000
      19A     -6.695175    20A     -1.455811    21A     -1.339971
      22A     -1.252906    23A     -1.209583    24A     -1.035060
      25A     -1.019393    26A     -0.981842    27A     -0.946136
      28A     -0.853308    29A     -0.786730    30A     -0.754808
      31A     -0.727746    32A     -0.704092    33A     -0.662086
      34A     -0.660138    35A     -0.630239    36A     -0.616206
      37A     -0.588274    38A     -0.579767    39A     -0.572460
      40A     -0.565813    41A     -0.554748    42A     -0.541950
      43A     -0.509536    44A     -0.501008    45A     -0.496598
      46A     -0.473316    47A     -0.468577    48A     -0.418181
      49A     -0.372225    50A     -0.354427

  @DF-RHF Final Energy: -1231.78795794871257

   => Energetics <=

    Nuclear Repulsion Energy =            893.1635716391380129
    One-Electron Energy =               -3469.7414817281642172
    Two-Electron Energy =                1344.7899521403137442
    Total Energy =                      -1231.7879579487125739
  Basis Set: (AUG-CC-PVTZ AUX)
    Blend: AUG-CC-PVTZ-RI
    Molecular point group: c1

    Geometry (in Angstrom), charge = 0, multiplicity = 1:

       Center              X                  Y                   Z               Mass
    ------------   -----------------  -----------------  -----------------  -----------------
         S            1.025591244000     0.006402441206    -0.719826818373    31.972071174400
         S           -1.720107956000    -1.114044958794     0.079944581627    31.972071174400
         O            1.154184244000    -1.328016558794    -1.302958818373    15.994914619570
         O            1.406043244000     1.227800441206    -1.424520818373    15.994914619570
         N            1.898374244000    -0.009498558794     0.706229181627    14.003074004430
         C           -0.665891756000     0.201241441206    -0.262404818373    12.000000000000
         C            1.890496244000     1.252288441206     1.449957181627    12.000000000000
         C            1.713447244000    -1.194597558794     1.547843181627    12.000000000000
         C           -1.313768756000     1.404705441206    -0.048018818373    12.000000000000
         C           -2.647218756000     1.213237441206     0.380931181627    12.000000000000
         C           -2.978234756000    -0.121384558794     0.495226181627    12.000000000000
         H            2.104256244000     2.072315441206     0.765692181627     1.007825032230
         H            2.685851244000     1.198784441206     2.196648181627     1.007825032230
         H            0.931775244000     1.428983441206     1.959229181627     1.007825032230
         H            1.749618244000    -2.086132558794     0.923374181627     1.007825032230
         H            0.767348244000    -1.167236558794     2.107206181627     1.007825032230
         H            2.543705244000    -1.225956558794     2.257187181627     1.007825032230
         H           -0.843182756000     2.363235441206    -0.240255818373     1.007825032230
         H           -3.344405756000     2.017793441206     0.590355181627     1.007825032230
         H           -3.930327756000    -0.549798558794     0.784175181627     1.007825032230

  Basis Set: AUG-CC-PVTZ
    Blend: AUG-CC-PVTZ
  Basis Set: (AUG-CC-PVTZ AUX)
    Blend: AUG-CC-PVTZ-JKFIT
	 Reference Energy          =   -1231.7879579487125739 [Eh]
	 Singles Energy            =      -0.0000000000000000 [Eh]
	 Same-Spin Energy          =      -0.5865355491667907 [Eh]
	 Opposite-Spin Energy      =      -1.7432788357157645 [Eh]
	 Correlation Energy        =      -2.3298143848825550 [Eh]
	 Total Energy              =   -1234.1177723335952123 [Eh]

	 ================> DF-SCS-MP2 Energies <==================
	-----------------------------------------------------------
	 SCS Same-Spin Scale       =       0.3333333333333333 [-]
	 SCS Opposite-Spin Scale   =       1.2000000000000000 [-]
	 SCS Same-Spin Energy      =      -0.1955118497222636 [Eh]
	 SCS Opposite-Spin Energy  =      -2.0919346028589172 [Eh]
	 SCS Correlation Energy    =      -2.2874464525811806 [Eh]
	 SCS Total Energy          =   -1234.0754044012937811 [Eh]
	-----------------------------------------------------------

  Dipole Moment: [D]
     X:    -2.5831      Y:     0.7281      Z:     4.7790     Total:     5.4810

*** Psi4 exiting successfully. Buy a developer a beer!
