                               Psi4 1.3.2 release

  ==> Input File <==

--------------------------------------------------------------------------
#psi4
#
memory 32 gb

molecule  {
0 1
  S        0.9748164    -0.1894685    -0.7717839
  S       -1.6960990    -1.1658100     0.0116150
  O        1.1339470    -1.3419000    -1.3567350
  O        1.3858060     1.2139170    -1.4782970
  N        1.8781370    -0.0233820     0.6524530
  C       -0.6861290     0.1873580    -0.3161810
  C        1.8702590     1.2384050     1.3961810
  C        1.6932100    -1.2084810     1.4940670
  C       -1.3340060     1.3908220    -0.1017950
  C       -2.6674560     1.1993540     0.3271550
  C       -2.9984720    -0.1352680     0.4414500
  H        2.0840190     2.0584320     0.7119160
  H        2.6656140     1.1849010     2.1428720
  H        0.9115380     1.4151000     1.9054530
  H        1.7293810    -2.1000160     0.8695980
  H        0.7471110    -1.1811200     2.0534300
  H        2.5234680    -1.2398400     2.2034110
  H       -0.8634200     2.3493520    -0.2940320
  H       -3.3646430     2.0039100     0.5365790
  H       -3.9505650    -0.5636820     0.7303990
units angstrom
no_reorient  #important for SAPT in psi4, default
symmetry c1  #important for SAPT in psi4, default
}

set PROPERTIES_ORIGIN ["COM"]
properties('MP2/aug-cc-pvtz', properties = ['dipole'])
--------------------------------------------------------------------------

    Molecular point group: c1
  Charge       = 0
  Multiplicity = 1
  Basis Set: AUG-CC-PVTZ
    Blend: AUG-CC-PVTZ
  Basis Set: (AUG-CC-PVTZ AUX)
    Blend: AUG-CC-PVTZ-JKFIT

    Orbital Energies [Eh]
    ---------------------

    Doubly Occupied:

       1A    -92.197791     2A    -92.015536     3A    -20.587854
       4A    -20.511419     5A    -15.604096     6A    -11.300923
       7A    -11.296601     8A    -11.278448     9A    -11.270938
      10A    -11.268471    11A    -11.265813    12A     -9.168404
      13A     -9.015735    14A     -6.854492    15A     -6.852295
      16A     -6.851640    17A     -6.696659    18A     -6.696040
      19A     -6.695335    20A     -1.544349    21A     -1.290849
      22A     -1.230474    23A     -1.201948    24A     -1.033466
      25A     -1.016997    26A     -0.980526    27A     -0.941279
      28A     -0.855630    29A     -0.788235    30A     -0.759687
      31A     -0.732288    32A     -0.725071    33A     -0.675599
      34A     -0.660400    35A     -0.641891    36A     -0.621131
      37A     -0.594270    38A     -0.589369    39A     -0.570618
      40A     -0.563170    41A     -0.552421    42A     -0.543078
      43A     -0.527373    44A     -0.508677    45A     -0.484608
      46A     -0.437702    47A     -0.429957    48A     -0.411340
      49A     -0.373743    50A     -0.353321

  @DF-RHF Final Energy: -1231.72241788031829

   => Energetics <=

    Nuclear Repulsion Energy =            893.6397586198410181
    One-Electron Energy =               -3470.5884363722580019
    Two-Electron Energy =                1345.2262598720988080
    Total Energy =                      -1231.7224178803182895
  Basis Set: (AUG-CC-PVTZ AUX)
    Blend: AUG-CC-PVTZ-RI
    Molecular point group: c1

    Geometry (in Angstrom), charge = 0, multiplicity = 1:

       Center              X                  Y                   Z               Mass
    ------------   -----------------  -----------------  -----------------  -----------------
         S            0.992759009487    -0.138781940666    -0.715876168523    31.972071174400
         S           -1.678156390513    -1.115123440666     0.067522731477    31.972071174400
         O            1.151889609487    -1.291213440666    -1.300827268523    15.994914619570
         O            1.403748609487     1.264603559334    -1.422389268523    15.994914619570
         N            1.896079609487     0.027304559334     0.708360731477    14.003074004430
         C           -0.668186390513     0.238044559334    -0.260273268523    12.000000000000
         C            1.888201609487     1.289091559334     1.452088731477    12.000000000000
         C            1.711152609487    -1.157794440666     1.549974731477    12.000000000000
         C           -1.316063390513     1.441508559334    -0.045887268523    12.000000000000
         C           -2.649513390513     1.250040559334     0.383062731477    12.000000000000
         C           -2.980529390513    -0.084581440666     0.497357731477    12.000000000000
         H            2.101961609487     2.109118559334     0.767823731477     1.007825032230
         H            2.683556609487     1.235587559334     2.198779731477     1.007825032230
         H            0.929480609487     1.465786559334     1.961360731477     1.007825032230
         H            1.747323609487    -2.049329440666     0.925505731477     1.007825032230
         H            0.765053609487    -1.130433440666     2.109337731477     1.007825032230
         H            2.541410609487    -1.189153440666     2.259318731477     1.007825032230
         H           -0.845477390513     2.400038559334    -0.238124268523     1.007825032230
         H           -3.346700390513     2.054596559334     0.592486731477     1.007825032230
         H           -3.932622390513    -0.512995440666     0.786306731477     1.007825032230

  Basis Set: AUG-CC-PVTZ
    Blend: AUG-CC-PVTZ
  Basis Set: (AUG-CC-PVTZ AUX)
    Blend: AUG-CC-PVTZ-JKFIT
	 Reference Energy          =   -1231.7224178803182895 [Eh]
	 Singles Energy            =      -0.0000000000000000 [Eh]
	 Same-Spin Energy          =      -0.5855061765746394 [Eh]
	 Opposite-Spin Energy      =      -1.7438582704386860 [Eh]
	 Correlation Energy        =      -2.3293644470133255 [Eh]
	 Total Energy              =   -1234.0517823273316935 [Eh]

	 ================> DF-SCS-MP2 Energies <==================
	-----------------------------------------------------------
	 SCS Same-Spin Scale       =       0.3333333333333333 [-]
	 SCS Opposite-Spin Scale   =       1.2000000000000000 [-]
	 SCS Same-Spin Energy      =      -0.1951687255248798 [Eh]
	 SCS Opposite-Spin Energy  =      -2.0926299245264230 [Eh]
	 SCS Correlation Energy    =      -2.2877986500513030 [Eh]
	 SCS Total Energy          =   -1234.0102165303696893 [Eh]
	-----------------------------------------------------------

  Dipole Moment: [D]
     X:    -2.8744      Y:    -0.6399      Z:     4.8314     Total:     5.6581

*** Psi4 exiting successfully. Buy a developer a beer!
