                               Psi4 1.3.2 release

  ==> Input File <==

--------------------------------------------------------------------------
#psi4
#
memory 32 gb

molecule  {
0 1
  S        1.0053540    -0.0074810    -0.7736030
  S       -1.6960990    -1.1658100     0.0116150
  O        1.0460018    -1.2915045    -1.4713741
  O        1.3858060     1.2139170    -1.4782970
  N        1.8781370    -0.0233820     0.6524530
  C       -0.6861290     0.1873580    -0.3161810
  C        1.8702590     1.2384050     1.3961810
  C        1.6932100    -1.2084810     1.4940670
  C       -1.3340060     1.3908220    -0.1017950
  C       -2.6674560     1.1993540     0.3271550
  C       -2.9984720    -0.1352680     0.4414500
  H        2.0840190     2.0584320     0.7119160
  H        2.6656140     1.1849010     2.1428720
  H        0.9115380     1.4151000     1.9054530
  H        1.7293810    -2.1000160     0.8695980
  H        0.7471110    -1.1811200     2.0534300
  H        2.5234680    -1.2398400     2.2034110
  H       -0.8634200     2.3493520    -0.2940320
  H       -3.3646430     2.0039100     0.5365790
  H       -3.9505650    -0.5636820     0.7303990
units angstrom
no_reorient  #important for SAPT in psi4, default
symmetry c1  #important for SAPT in psi4, default
}

set PROPERTIES_ORIGIN ["COM"]
properties('MP2/aug-cc-pvtz', properties = ['dipole'])
--------------------------------------------------------------------------

    Molecular point group: c1
  Charge       = 0
  Multiplicity = 1
  Basis Set: AUG-CC-PVTZ
    Blend: AUG-CC-PVTZ
  Basis Set: (AUG-CC-PVTZ AUX)
    Blend: AUG-CC-PVTZ-JKFIT

    Orbital Energies [Eh]
    ---------------------

    Doubly Occupied:

       1A    -92.208101     2A    -92.013934     3A    -20.550815
       4A    -20.544228     5A    -15.613334     6A    -11.295608
       7A    -11.293251     8A    -11.276240     9A    -11.275964
      10A    -11.274197    11A    -11.262341    12A     -9.172375
      13A     -9.013492    14A     -6.857478    15A     -6.857129
      16A     -6.856879    17A     -6.694339    18A     -6.693809
      19A     -6.693050    20A     -1.455138    21A     -1.335738
      22A     -1.259383    23A     -1.198985    24A     -1.029407
      25A     -1.015117    26A     -0.986314    27A     -0.949740
      28A     -0.852499    29A     -0.784513    30A     -0.754584
      31A     -0.726888    32A     -0.703423    33A     -0.663334
      34A     -0.661120    35A     -0.627621    36A     -0.616091
      37A     -0.586377    38A     -0.583916    39A     -0.575466
      40A     -0.562223    41A     -0.548489    42A     -0.545985
      43A     -0.509237    44A     -0.500536    45A     -0.494944
      46A     -0.469856    47A     -0.468217    48A     -0.420784
      49A     -0.370527    50A     -0.351976

  @DF-RHF Final Energy: -1231.78714299280159

   => Energetics <=

    Nuclear Repulsion Energy =            892.1445073138252155
    One-Electron Energy =               -3467.7533213637493645
    Two-Electron Energy =                1343.8216710571225576
    Total Energy =                      -1231.7871429928015914
  Basis Set: (AUG-CC-PVTZ AUX)
    Blend: AUG-CC-PVTZ-RI
    Molecular point group: c1

    Geometry (in Angstrom), charge = 0, multiplicity = 1:

       Center              X                  Y                   Z               Mass
    ------------   -----------------  -----------------  -----------------  -----------------
         S            1.025549535211     0.008523203760    -0.707790928119    31.972071174400
         S           -1.675903464789    -1.149805796240     0.077427071881    31.972071174400
         O            1.066197335211    -1.275500296240    -1.405562028119    15.994914619570
         O            1.406001535211     1.229921203760    -1.412484928119    15.994914619570
         N            1.898332535211    -0.007377796240     0.718265071881    14.003074004430
         C           -0.665933464789     0.203362203760    -0.250368928119    12.000000000000
         C            1.890454535211     1.254409203760     1.461993071881    12.000000000000
         C            1.713405535211    -1.192476796240     1.559879071881    12.000000000000
         C           -1.313810464789     1.406826203760    -0.035982928119    12.000000000000
         C           -2.647260464789     1.215358203760     0.392967071881    12.000000000000
         C           -2.978276464789    -0.119263796240     0.507262071881    12.000000000000
         H            2.104214535211     2.074436203760     0.777728071881     1.007825032230
         H            2.685809535211     1.200905203760     2.208684071881     1.007825032230
         H            0.931733535211     1.431104203760     1.971265071881     1.007825032230
         H            1.749576535211    -2.084011796240     0.935410071881     1.007825032230
         H            0.767306535211    -1.165115796240     2.119242071881     1.007825032230
         H            2.543663535211    -1.223835796240     2.269223071881     1.007825032230
         H           -0.843224464789     2.365356203760    -0.228219928119     1.007825032230
         H           -3.344447464789     2.019914203760     0.602391071881     1.007825032230
         H           -3.930369464789    -0.547677796240     0.796211071881     1.007825032230

  Basis Set: AUG-CC-PVTZ
    Blend: AUG-CC-PVTZ
  Basis Set: (AUG-CC-PVTZ AUX)
    Blend: AUG-CC-PVTZ-JKFIT
	 Reference Energy          =   -1231.7871429928015914 [Eh]
	 Singles Energy            =      -0.0000000000000000 [Eh]
	 Same-Spin Energy          =      -0.5859169541355183 [Eh]
	 Opposite-Spin Energy      =      -1.7438307546554432 [Eh]
	 Correlation Energy        =      -2.3297477087909613 [Eh]
	 Total Energy              =   -1234.1168907015926379 [Eh]

	 ================> DF-SCS-MP2 Energies <==================
	-----------------------------------------------------------
	 SCS Same-Spin Scale       =       0.3333333333333333 [-]
	 SCS Opposite-Spin Scale   =       1.2000000000000000 [-]
	 SCS Same-Spin Energy      =      -0.1953056513785061 [Eh]
	 SCS Opposite-Spin Energy  =      -2.0925969055865319 [Eh]
	 SCS Correlation Energy    =      -2.2879025569650380 [Eh]
	 SCS Total Energy          =   -1234.0750455497666280 [Eh]
	-----------------------------------------------------------

  Dipole Moment: [D]
     X:    -2.2694      Y:     0.6320      Z:     5.0593     Total:     5.5808

*** Psi4 exiting successfully. Buy a developer a beer!
