                               Psi4 1.3.2 release

  ==> Input File <==

--------------------------------------------------------------------------
#psi4
#
memory 32 gb

molecule  {
0 1
  S        1.0154290     0.1151542    -0.7720305
  S       -1.6960990    -1.1658100     0.0116150
  O        1.1339470    -1.3419000    -1.3567350
  O        1.3858060     1.2139170    -1.4782970
  N        1.8781370    -0.0233820     0.6524530
  C       -0.6861290     0.1873580    -0.3161810
  C        1.8702590     1.2384050     1.3961810
  C        1.6932100    -1.2084810     1.4940670
  C       -1.3340060     1.3908220    -0.1017950
  C       -2.6674560     1.1993540     0.3271550
  C       -2.9984720    -0.1352680     0.4414500
  H        2.0840190     2.0584320     0.7119160
  H        2.6656140     1.1849010     2.1428720
  H        0.9115380     1.4151000     1.9054530
  H        1.7293810    -2.1000160     0.8695980
  H        0.7471110    -1.1811200     2.0534300
  H        2.5234680    -1.2398400     2.2034110
  H       -0.8634200     2.3493520    -0.2940320
  H       -3.3646430     2.0039100     0.5365790
  H       -3.9505650    -0.5636820     0.7303990
units angstrom
no_reorient  #important for SAPT in psi4, default
symmetry c1  #important for SAPT in psi4, default
}

set PROPERTIES_ORIGIN ["COM"]
properties('MP2/aug-cc-pvtz', properties = ['dipole'])
--------------------------------------------------------------------------

    Molecular point group: c1
  Charge       = 0
  Multiplicity = 1
  Basis Set: AUG-CC-PVTZ
    Blend: AUG-CC-PVTZ
  Basis Set: (AUG-CC-PVTZ AUX)
    Blend: AUG-CC-PVTZ-JKFIT

    Orbital Energies [Eh]
    ---------------------

    Doubly Occupied:

       1A    -92.202899     2A    -92.016884     3A    -20.573794
       4A    -20.522451     5A    -15.606816     6A    -11.298741
       7A    -11.295225     8A    -11.276693     9A    -11.273758
      10A    -11.269837    11A    -11.263657    12A     -9.169856
      13A     -9.015974    14A     -6.855281    15A     -6.854438
      16A     -6.853757    17A     -6.696756    18A     -6.696269
      19A     -6.695476    20A     -1.499550    21A     -1.308494
      22A     -1.245293    23A     -1.200873    24A     -1.032670
      25A     -1.016568    26A     -0.982502    27A     -0.946120
      28A     -0.854218    29A     -0.786078    30A     -0.755810
      31A     -0.729699    32A     -0.713026    33A     -0.666331
      34A     -0.660582    35A     -0.635374    36A     -0.618924
      37A     -0.588159    38A     -0.586089    39A     -0.572937
      40A     -0.566096    41A     -0.550477    42A     -0.544414
      43A     -0.514583    44A     -0.502541    45A     -0.497516
      46A     -0.451911    47A     -0.445380    48A     -0.416786
      49A     -0.372088    50A     -0.353909

  @DF-RHF Final Energy: -1231.76135322519644

   => Energetics <=

    Nuclear Repulsion Energy =            892.4206124044986836
    One-Electron Energy =               -3468.2568038848939977
    Two-Electron Energy =                1344.0748382551989835
    Total Energy =                      -1231.7613532251964443
  Basis Set: (AUG-CC-PVTZ AUX)
    Blend: AUG-CC-PVTZ-RI
    Molecular point group: c1

    Geometry (in Angstrom), charge = 0, multiplicity = 1:

       Center              X                  Y                   Z               Mass
    ------------   -----------------  -----------------  -----------------  -----------------
         S            1.026573608698     0.114851033117    -0.716081491013    31.972071174400
         S           -1.684954391302    -1.166113166883     0.067564008987    31.972071174400
         O            1.145091608698    -1.342203166883    -1.300785991013    15.994914619570
         O            1.396950608698     1.213613833117    -1.422347991013    15.994914619570
         N            1.889281608698    -0.023685166883     0.708402008987    14.003074004430
         C           -0.674984391302     0.187054833117    -0.260231991013    12.000000000000
         C            1.881403608698     1.238101833117     1.452130008987    12.000000000000
         C            1.704354608698    -1.208784166883     1.550016008987    12.000000000000
         C           -1.322861391302     1.390518833117    -0.045845991013    12.000000000000
         C           -2.656311391302     1.199050833117     0.383104008987    12.000000000000
         C           -2.987327391302    -0.135571166883     0.497399008987    12.000000000000
         H            2.095163608698     2.058128833117     0.767865008987     1.007825032230
         H            2.676758608698     1.184597833117     2.198821008987     1.007825032230
         H            0.922682608698     1.414796833117     1.961402008987     1.007825032230
         H            1.740525608698    -2.100319166883     0.925547008987     1.007825032230
         H            0.758255608698    -1.181423166883     2.109379008987     1.007825032230
         H            2.534612608698    -1.240143166883     2.259360008987     1.007825032230
         H           -0.852275391302     2.349048833117    -0.238082991013     1.007825032230
         H           -3.353498391302     2.003606833117     0.592528008987     1.007825032230
         H           -3.939420391302    -0.563985166883     0.786348008987     1.007825032230

  Basis Set: AUG-CC-PVTZ
    Blend: AUG-CC-PVTZ
  Basis Set: (AUG-CC-PVTZ AUX)
    Blend: AUG-CC-PVTZ-JKFIT
	 Reference Energy          =   -1231.7613532251964443 [Eh]
	 Singles Energy            =      -0.0000000000000000 [Eh]
	 Same-Spin Energy          =      -0.5855058347310698 [Eh]
	 Opposite-Spin Energy      =      -1.7436085255791507 [Eh]
	 Correlation Energy        =      -2.3291143603102205 [Eh]
	 Total Energy              =   -1234.0904675855067580 [Eh]

	 ================> DF-SCS-MP2 Energies <==================
	-----------------------------------------------------------
	 SCS Same-Spin Scale       =       0.3333333333333333 [-]
	 SCS Opposite-Spin Scale   =       1.2000000000000000 [-]
	 SCS Same-Spin Energy      =      -0.1951686115770233 [Eh]
	 SCS Opposite-Spin Energy  =      -2.0923302306949809 [Eh]
	 SCS Correlation Energy    =      -2.2874988422720044 [Eh]
	 SCS Total Energy          =   -1234.0488520674684878 [Eh]
	-----------------------------------------------------------

  Dipole Moment: [D]
     X:    -2.5136      Y:     1.6988      Z:     4.8191     Total:     5.6945

*** Psi4 exiting successfully. Buy a developer a beer!
