                               Psi4 1.3.2 release

  ==> Input File <==

--------------------------------------------------------------------------
#psi4
#
memory 32 gb

molecule  {
0 1
  S        1.0053540    -0.0074810    -0.7736030
  S       -1.6960990    -1.1658100     0.0116150
  O        1.0341458    -1.3549522    -1.3399470
  O        1.3858060     1.2139170    -1.4782970
  N        1.8781370    -0.0233820     0.6524530
  C       -0.6861290     0.1873580    -0.3161810
  C        1.8702590     1.2384050     1.3961810
  C        1.6932100    -1.2084810     1.4940670
  C       -1.3340060     1.3908220    -0.1017950
  C       -2.6674560     1.1993540     0.3271550
  C       -2.9984720    -0.1352680     0.4414500
  H        2.0840190     2.0584320     0.7119160
  H        2.6656140     1.1849010     2.1428720
  H        0.9115380     1.4151000     1.9054530
  H        1.7293810    -2.1000160     0.8695980
  H        0.7471110    -1.1811200     2.0534300
  H        2.5234680    -1.2398400     2.2034110
  H       -0.8634200     2.3493520    -0.2940320
  H       -3.3646430     2.0039100     0.5365790
  H       -3.9505650    -0.5636820     0.7303990
units angstrom
no_reorient  #important for SAPT in psi4, default
symmetry c1  #important for SAPT in psi4, default
}

set PROPERTIES_ORIGIN ["COM"]
properties('MP2/aug-cc-pvtz', properties = ['dipole'])
--------------------------------------------------------------------------

    Molecular point group: c1
  Charge       = 0
  Multiplicity = 1
  Basis Set: AUG-CC-PVTZ
    Blend: AUG-CC-PVTZ
  Basis Set: (AUG-CC-PVTZ AUX)
    Blend: AUG-CC-PVTZ-JKFIT

    Orbital Energies [Eh]
    ---------------------

    Doubly Occupied:

       1A    -92.209687     2A    -92.013013     3A    -20.553032
       4A    -20.551458     5A    -15.609095     6A    -11.294210
       7A    -11.292449     8A    -11.273648     9A    -11.273368
      10A    -11.271752    11A    -11.261496    12A     -9.173731
      13A     -9.012501    14A     -6.858831    15A     -6.858640
      16A     -6.858177    17A     -6.693329    18A     -6.692805
      19A     -6.692045    20A     -1.457504    21A     -1.343991
      22A     -1.254812    23A     -1.198012    24A     -1.027891
      25A     -1.014180    26A     -0.983014    27A     -0.947044
      28A     -0.851705    29A     -0.783616    30A     -0.753667
      31A     -0.726502    32A     -0.705505    33A     -0.664086
      34A     -0.658875    35A     -0.626736    36A     -0.617969
      37A     -0.585833    38A     -0.580468    39A     -0.572935
      40A     -0.562632    41A     -0.547078    42A     -0.543274
      43A     -0.509114    44A     -0.500514    45A     -0.499931
      46A     -0.476446    47A     -0.467459    48A     -0.417943
      49A     -0.369570    50A     -0.351193

  @DF-RHF Final Energy: -1231.78735321224485

   => Energetics <=

    Nuclear Repulsion Energy =            893.4252224138264182
    One-Electron Energy =               -3470.3396131768163286
    Two-Electron Energy =                1345.1270375507451718
    Total Energy =                      -1231.7873532122448523
  Basis Set: (AUG-CC-PVTZ AUX)
    Blend: AUG-CC-PVTZ-RI
    Molecular point group: c1

    Geometry (in Angstrom), charge = 0, multiplicity = 1:

       Center              X                  Y                   Z               Mass
    ------------   -----------------  -----------------  -----------------  -----------------
         S            1.026542353486     0.013836297219    -0.718796598387    31.972071174400
         S           -1.674910646514    -1.144492702781     0.066421401613    31.972071174400
         O            1.055334153486    -1.333634902781    -1.285140598387    15.994914619570
         O            1.406994353486     1.235234297219    -1.423490598387    15.994914619570
         N            1.899325353486    -0.002064702781     0.707259401613    14.003074004430
         C           -0.664940646514     0.208675297219    -0.261374598387    12.000000000000
         C            1.891447353486     1.259722297219     1.450987401613    12.000000000000
         C            1.714398353486    -1.187163702781     1.548873401613    12.000000000000
         C           -1.312817646514     1.412139297219    -0.046988598387    12.000000000000
         C           -2.646267646514     1.220671297219     0.381961401613    12.000000000000
         C           -2.977283646514    -0.113950702781     0.496256401613    12.000000000000
         H            2.105207353486     2.079749297219     0.766722401613     1.007825032230
         H            2.686802353486     1.206218297219     2.197678401613     1.007825032230
         H            0.932726353486     1.436417297219     1.960259401613     1.007825032230
         H            1.750569353486    -2.078698702781     0.924404401613     1.007825032230
         H            0.768299353486    -1.159802702781     2.108236401613     1.007825032230
         H            2.544656353486    -1.218522702781     2.258217401613     1.007825032230
         H           -0.842231646514     2.370669297219    -0.239225598387     1.007825032230
         H           -3.343454646514     2.025227297219     0.591385401613     1.007825032230
         H           -3.929376646514    -0.542364702781     0.785205401613     1.007825032230

  Basis Set: AUG-CC-PVTZ
    Blend: AUG-CC-PVTZ
  Basis Set: (AUG-CC-PVTZ AUX)
    Blend: AUG-CC-PVTZ-JKFIT
	 Reference Energy          =   -1231.7873532122448523 [Eh]
	 Singles Energy            =      -0.0000000000000000 [Eh]
	 Same-Spin Energy          =      -0.5863595677885963 [Eh]
	 Opposite-Spin Energy      =      -1.7444672636906540 [Eh]
	 Correlation Energy        =      -2.3308268314792504 [Eh]
	 Total Energy              =   -1234.1181800437241236 [Eh]

	 ================> DF-SCS-MP2 Energies <==================
	-----------------------------------------------------------
	 SCS Same-Spin Scale       =       0.3333333333333333 [-]
	 SCS Opposite-Spin Scale   =       1.2000000000000000 [-]
	 SCS Same-Spin Energy      =      -0.1954531892628654 [Eh]
	 SCS Opposite-Spin Energy  =      -2.0933607164287849 [Eh]
	 SCS Correlation Energy    =      -2.2888139056916503 [Eh]
	 SCS Total Energy          =   -1234.0761671179363930 [Eh]
	-----------------------------------------------------------

  Dipole Moment: [D]
     X:    -2.2320      Y:     0.7610      Z:     4.7153     Total:     5.2721

*** Psi4 exiting successfully. Buy a developer a beer!
