                               Psi4 1.3.2 release

  ==> Input File <==

--------------------------------------------------------------------------
#psi4
#
memory 32 gb

molecule  {
0 1
  S        1.0015448    -0.0380148    -0.7736480
  S       -1.6960990    -1.1658100     0.0116150
  O        1.1339470    -1.3419000    -1.3567350
  O        1.3858060     1.2139170    -1.4782970
  N        1.8781370    -0.0233820     0.6524530
  C       -0.6861290     0.1873580    -0.3161810
  C        1.8702590     1.2384050     1.3961810
  C        1.6932100    -1.2084810     1.4940670
  C       -1.3340060     1.3908220    -0.1017950
  C       -2.6674560     1.1993540     0.3271550
  C       -2.9984720    -0.1352680     0.4414500
  H        2.0840190     2.0584320     0.7119160
  H        2.6656140     1.1849010     2.1428720
  H        0.9115380     1.4151000     1.9054530
  H        1.7293810    -2.1000160     0.8695980
  H        0.7471110    -1.1811200     2.0534300
  H        2.5234680    -1.2398400     2.2034110
  H       -0.8634200     2.3493520    -0.2940320
  H       -3.3646430     2.0039100     0.5365790
  H       -3.9505650    -0.5636820     0.7303990
units angstrom
no_reorient  #important for SAPT in psi4, default
symmetry c1  #important for SAPT in psi4, default
}

set PROPERTIES_ORIGIN ["COM"]
properties('MP2/aug-cc-pvtz', properties = ['dipole'])
--------------------------------------------------------------------------

    Molecular point group: c1
  Charge       = 0
  Multiplicity = 1
  Basis Set: AUG-CC-PVTZ
    Blend: AUG-CC-PVTZ
  Basis Set: (AUG-CC-PVTZ AUX)
    Blend: AUG-CC-PVTZ-JKFIT

    Orbital Energies [Eh]
    ---------------------

    Doubly Occupied:

       1A    -92.208082     2A    -92.015905     3A    -20.556574
       4A    -20.542957     5A    -15.606297     6A    -11.298808
       7A    -11.295682     8A    -11.277200     9A    -11.271565
      10A    -11.270852    11A    -11.264431    12A     -9.172413
      13A     -9.015526    14A     -6.857512    15A     -6.857300
      16A     -6.856845    17A     -6.696378    18A     -6.695837
      19A     -6.695085    20A     -1.459975    21A     -1.337610
      22A     -1.251892    23A     -1.201361    24A     -1.031460
      25A     -1.017241    26A     -0.981543    27A     -0.945732
      28A     -0.853465    29A     -0.786716    30A     -0.753625
      31A     -0.727660    32A     -0.704641    33A     -0.662275
      34A     -0.658590    35A     -0.628381    36A     -0.616502
      37A     -0.588685    38A     -0.579754    39A     -0.571792
      40A     -0.563341    41A     -0.549765    42A     -0.542013
      43A     -0.510892    44A     -0.501846    45A     -0.499100
      46A     -0.471732    47A     -0.465047    48A     -0.417073
      49A     -0.372494    50A     -0.353975

  @DF-RHF Final Energy: -1231.78752366438243

   => Energetics <=

    Nuclear Repulsion Energy =            892.5659508781336626
    One-Electron Energy =               -3468.5840884543918037
    Two-Electron Energy =                1344.2306139118757073
    Total Energy =                      -1231.7875236643824337
  Basis Set: (AUG-CC-PVTZ AUX)
    Blend: AUG-CC-PVTZ-RI
    Molecular point group: c1

    Geometry (in Angstrom), charge = 0, multiplicity = 1:

       Center              X                  Y                   Z               Mass
    ------------   -----------------  -----------------  -----------------  -----------------
         S            1.015013436280    -0.012679544746    -0.717428243356    31.972071174400
         S           -1.682630363720    -1.140474744746     0.067834756644    31.972071174400
         O            1.147415636280    -1.316564744746    -1.300515243356    15.994914619570
         O            1.399274636280     1.239252255254    -1.422077243356    15.994914619570
         N            1.891605636280     0.001953255254     0.708672756644    14.003074004430
         C           -0.672660363720     0.212693255254    -0.259961243356    12.000000000000
         C            1.883727636280     1.263740255254     1.452400756644    12.000000000000
         C            1.706678636280    -1.183145744746     1.550286756644    12.000000000000
         C           -1.320537363720     1.416157255254    -0.045575243356    12.000000000000
         C           -2.653987363720     1.224689255254     0.383374756644    12.000000000000
         C           -2.985003363720    -0.109932744746     0.497669756644    12.000000000000
         H            2.097487636280     2.083767255254     0.768135756644     1.007825032230
         H            2.679082636280     1.210236255254     2.199091756644     1.007825032230
         H            0.925006636280     1.440435255254     1.961672756644     1.007825032230
         H            1.742849636280    -2.074680744746     0.925817756644     1.007825032230
         H            0.760579636280    -1.155784744746     2.109649756644     1.007825032230
         H            2.536936636280    -1.214504744746     2.259630756644     1.007825032230
         H           -0.849951363720     2.374687255254    -0.237812243356     1.007825032230
         H           -3.351174363720     2.029245255254     0.592798756644     1.007825032230
         H           -3.937096363720    -0.538346744746     0.786618756644     1.007825032230

  Basis Set: AUG-CC-PVTZ
    Blend: AUG-CC-PVTZ
  Basis Set: (AUG-CC-PVTZ AUX)
    Blend: AUG-CC-PVTZ-JKFIT
	 Reference Energy          =   -1231.7875236643824337 [Eh]
	 Singles Energy            =      -0.0000000000000000 [Eh]
	 Same-Spin Energy          =      -0.5861667434356046 [Eh]
	 Opposite-Spin Energy      =      -1.7440639311626858 [Eh]
	 Correlation Energy        =      -2.3302306745982904 [Eh]
	 Total Energy              =   -1234.1177543389808307 [Eh]

	 ================> DF-SCS-MP2 Energies <==================
	-----------------------------------------------------------
	 SCS Same-Spin Scale       =       0.3333333333333333 [-]
	 SCS Opposite-Spin Scale   =       1.2000000000000000 [-]
	 SCS Same-Spin Energy      =      -0.1953889144785348 [Eh]
	 SCS Opposite-Spin Energy  =      -2.0928767173952227 [Eh]
	 SCS Correlation Energy    =      -2.2882656318737578 [Eh]
	 SCS Total Energy          =   -1234.0757892962562892 [Eh]
	-----------------------------------------------------------

  Dipole Moment: [D]
     X:    -2.6016      Y:     0.5154      Z:     4.7684     Total:     5.4564

*** Psi4 exiting successfully. Buy a developer a beer!
