                               Psi4 1.3.2 release

  ==> Input File <==

--------------------------------------------------------------------------
#psi4
#
memory 32 gb

molecule  {
0 1
  S        1.0053540    -0.0074810    -0.7736030
  S       -1.6960990    -1.1658100     0.0116150
  O        1.0768511    -1.3959901    -1.2254700
  O        1.3858060     1.2139170    -1.4782970
  N        1.8781370    -0.0233820     0.6524530
  C       -0.6861290     0.1873580    -0.3161810
  C        1.8702590     1.2384050     1.3961810
  C        1.6932100    -1.2084810     1.4940670
  C       -1.3340060     1.3908220    -0.1017950
  C       -2.6674560     1.1993540     0.3271550
  C       -2.9984720    -0.1352680     0.4414500
  H        2.0840190     2.0584320     0.7119160
  H        2.6656140     1.1849010     2.1428720
  H        0.9115380     1.4151000     1.9054530
  H        1.7293810    -2.1000160     0.8695980
  H        0.7471110    -1.1811200     2.0534300
  H        2.5234680    -1.2398400     2.2034110
  H       -0.8634200     2.3493520    -0.2940320
  H       -3.3646430     2.0039100     0.5365790
  H       -3.9505650    -0.5636820     0.7303990
units angstrom
no_reorient  #important for SAPT in psi4, default
symmetry c1  #important for SAPT in psi4, default
}

set PROPERTIES_ORIGIN ["COM"]
properties('MP2/aug-cc-pvtz', properties = ['dipole'])
--------------------------------------------------------------------------

    Molecular point group: c1
  Charge       = 0
  Multiplicity = 1
  Basis Set: AUG-CC-PVTZ
    Blend: AUG-CC-PVTZ
  Basis Set: (AUG-CC-PVTZ AUX)
    Blend: AUG-CC-PVTZ-JKFIT

    Orbital Energies [Eh]
    ---------------------

    Doubly Occupied:

       1A    -92.210210     2A    -92.013887     3A    -20.558650
       4A    -20.550654     5A    -15.603463     6A    -11.295537
       7A    -11.293458     8A    -11.274679     9A    -11.270083
      10A    -11.266904    11A    -11.262271    12A     -9.174169
      13A     -9.013327    14A     -6.859327    15A     -6.859130
      16A     -6.858552    17A     -6.694144    18A     -6.693622
      19A     -6.692862    20A     -1.458958    21A     -1.348863
      22A     -1.248870    23A     -1.198961    24A     -1.028577
      25A     -1.015015    26A     -0.978985    27A     -0.943981
      28A     -0.851883    29A     -0.784458    30A     -0.752641
      31A     -0.726733    32A     -0.706575    33A     -0.663966
      34A     -0.656640    35A     -0.626239    36A     -0.618503
      37A     -0.586774    38A     -0.576438    39A     -0.570220
      40A     -0.563458    41A     -0.547226    42A     -0.539835
      43A     -0.508763    44A     -0.503144    45A     -0.500522
      46A     -0.478863    47A     -0.466579    48A     -0.414701
      49A     -0.370260    50A     -0.352021

  @DF-RHF Final Energy: -1231.78463949190268

   => Energetics <=

    Nuclear Repulsion Energy =            894.2149881894091550
    One-Electron Energy =               -3471.9320899701838243
    Two-Electron Energy =                1345.9324622888718750
    Total Energy =                      -1231.7846394919026807
  Basis Set: (AUG-CC-PVTZ AUX)
    Blend: AUG-CC-PVTZ-RI
    Molecular point group: c1

    Geometry (in Angstrom), charge = 0, multiplicity = 1:

       Center              X                  Y                   Z               Mass
    ------------   -----------------  -----------------  -----------------  -----------------
         S            1.022966223064     0.017272800010    -0.728382871806    31.972071174400
         S           -1.678486776936    -1.141056199990     0.056835128194    31.972071174400
         O            1.094463323064    -1.371236299990    -1.180249871806    15.994914619570
         O            1.403418223064     1.238670800010    -1.433076871806    15.994914619570
         N            1.895749223064     0.001371800010     0.697673128194    14.003074004430
         C           -0.668516776936     0.212111800010    -0.270960871806    12.000000000000
         C            1.887871223064     1.263158800010     1.441401128194    12.000000000000
         C            1.710822223064    -1.183727199990     1.539287128194    12.000000000000
         C           -1.316393776936     1.415575800010    -0.056574871806    12.000000000000
         C           -2.649843776936     1.224107800010     0.372375128194    12.000000000000
         C           -2.980859776936    -0.110514199990     0.486670128194    12.000000000000
         H            2.101631223064     2.083185800010     0.757136128194     1.007825032230
         H            2.683226223064     1.209654800010     2.188092128194     1.007825032230
         H            0.929150223064     1.439853800010     1.950673128194     1.007825032230
         H            1.746993223064    -2.075262199990     0.914818128194     1.007825032230
         H            0.764723223064    -1.156366199990     2.098650128194     1.007825032230
         H            2.541080223064    -1.215086199990     2.248631128194     1.007825032230
         H           -0.845807776936     2.374105800010    -0.248811871806     1.007825032230
         H           -3.347030776936     2.028663800010     0.581799128194     1.007825032230
         H           -3.932952776936    -0.538928199990     0.775619128194     1.007825032230

  Basis Set: AUG-CC-PVTZ
    Blend: AUG-CC-PVTZ
  Basis Set: (AUG-CC-PVTZ AUX)
    Blend: AUG-CC-PVTZ-JKFIT
	 Reference Energy          =   -1231.7846394919026807 [Eh]
	 Singles Energy            =      -0.0000000000000000 [Eh]
	 Same-Spin Energy          =      -0.5868742331011469 [Eh]
	 Opposite-Spin Energy      =      -1.7452615688592046 [Eh]
	 Correlation Energy        =      -2.3321358019603515 [Eh]
	 Total Energy              =   -1234.1167752938629292 [Eh]

	 ================> DF-SCS-MP2 Energies <==================
	-----------------------------------------------------------
	 SCS Same-Spin Scale       =       0.3333333333333333 [-]
	 SCS Opposite-Spin Scale   =       1.2000000000000000 [-]
	 SCS Same-Spin Energy      =      -0.1956247443670490 [Eh]
	 SCS Opposite-Spin Energy  =      -2.0943138826310452 [Eh]
	 SCS Correlation Energy    =      -2.2899386269980941 [Eh]
	 SCS Total Energy          =   -1234.0745781189007175 [Eh]
	-----------------------------------------------------------

  Dipole Moment: [D]
     X:    -2.3882      Y:     0.8527      Z:     4.4122     Total:     5.0890

*** Psi4 exiting successfully. Buy a developer a beer!
