                               Psi4 1.3.2 release

  ==> Input File <==

--------------------------------------------------------------------------
#psi4
#
memory 32 gb

molecule  {
0 1
  S        1.0080870     0.0231096    -0.7754919
  S       -1.6960990    -1.1658100     0.0116150
  O        1.1339470    -1.3419000    -1.3567350
  O        1.3858060     1.2139170    -1.4782970
  N        1.8781370    -0.0233820     0.6524530
  C       -0.6861290     0.1873580    -0.3161810
  C        1.8702590     1.2384050     1.3961810
  C        1.6932100    -1.2084810     1.4940670
  C       -1.3340060     1.3908220    -0.1017950
  C       -2.6674560     1.1993540     0.3271550
  C       -2.9984720    -0.1352680     0.4414500
  H        2.0840190     2.0584320     0.7119160
  H        2.6656140     1.1849010     2.1428720
  H        0.9115380     1.4151000     1.9054530
  H        1.7293810    -2.1000160     0.8695980
  H        0.7471110    -1.1811200     2.0534300
  H        2.5234680    -1.2398400     2.2034110
  H       -0.8634200     2.3493520    -0.2940320
  H       -3.3646430     2.0039100     0.5365790
  H       -3.9505650    -0.5636820     0.7303990
units angstrom
no_reorient  #important for SAPT in psi4, default
symmetry c1  #important for SAPT in psi4, default
}

set PROPERTIES_ORIGIN ["COM"]
properties('MP2/aug-cc-pvtz', properties = ['dipole'])
--------------------------------------------------------------------------

    Molecular point group: c1
  Charge       = 0
  Multiplicity = 1
  Basis Set: AUG-CC-PVTZ
    Blend: AUG-CC-PVTZ
  Basis Set: (AUG-CC-PVTZ AUX)
    Blend: AUG-CC-PVTZ-JKFIT

    Orbital Energies [Eh]
    ---------------------

    Doubly Occupied:

       1A    -92.207901     2A    -92.016241     3A    -20.555930
       4A    -20.543192     5A    -15.606374     6A    -11.298569
       7A    -11.295461     8A    -11.276943     9A    -11.272315
      10A    -11.270312    11A    -11.264072    12A     -9.172240
      13A     -9.015644    14A     -6.857331    15A     -6.857138
      16A     -6.856666    17A     -6.696468    18A     -6.695951
      19A     -6.695182    20A     -1.459649    21A     -1.337295
      22A     -1.252208    23A     -1.201161    24A     -1.031576
      25A     -1.017099    26A     -0.981638    27A     -0.945928
      28A     -0.853346    29A     -0.786361    30A     -0.753664
      31A     -0.727635    32A     -0.704541    33A     -0.662186
      34A     -0.658832    35A     -0.628480    36A     -0.616480
      37A     -0.588021    38A     -0.579751    39A     -0.572279
      40A     -0.564729    41A     -0.549634    42A     -0.542030
      43A     -0.508141    44A     -0.503173    45A     -0.497466
      46A     -0.471541    47A     -0.466243    48A     -0.417295
      49A     -0.372248    50A     -0.354018

  @DF-RHF Final Energy: -1231.78761513376435

   => Energetics <=

    Nuclear Repulsion Energy =            892.3703379626284686
    One-Electron Energy =               -3468.1987530711003274
    Two-Electron Energy =                1344.0407999747073973
    Total Energy =                      -1231.7876151337643478
  Basis Set: (AUG-CC-PVTZ AUX)
    Blend: AUG-CC-PVTZ-RI
    Molecular point group: c1

    Geometry (in Angstrom), charge = 0, multiplicity = 1:

       Center              X                  Y                   Z               Mass
    ------------   -----------------  -----------------  -----------------  -----------------
         S            1.020460560349     0.038213456145    -0.718963499397    31.972071174400
         S           -1.683725439651    -1.150706143855     0.068143400603    31.972071174400
         O            1.146320560349    -1.326796143855    -1.300206599397    15.994914619570
         O            1.398179560349     1.229020856145    -1.421768599397    15.994914619570
         N            1.890510560349    -0.008278143855     0.708981400603    14.003074004430
         C           -0.673755439651     0.202461856145    -0.259652599397    12.000000000000
         C            1.882632560349     1.253508856145     1.452709400603    12.000000000000
         C            1.705583560349    -1.193377143855     1.550595400603    12.000000000000
         C           -1.321632439651     1.405925856145    -0.045266599397    12.000000000000
         C           -2.655082439651     1.214457856145     0.383683400603    12.000000000000
         C           -2.986098439651    -0.120164143855     0.497978400603    12.000000000000
         H            2.096392560349     2.073535856145     0.768444400603     1.007825032230
         H            2.677987560349     1.200004856145     2.199400400603     1.007825032230
         H            0.923911560349     1.430203856145     1.961981400603     1.007825032230
         H            1.741754560349    -2.084912143855     0.926126400603     1.007825032230
         H            0.759484560349    -1.166016143855     2.109958400603     1.007825032230
         H            2.535841560349    -1.224736143855     2.259939400603     1.007825032230
         H           -0.851046439651     2.364455856145    -0.237503599397     1.007825032230
         H           -3.352269439651     2.019013856145     0.593107400603     1.007825032230
         H           -3.938191439651    -0.548578143855     0.786927400603     1.007825032230

  Basis Set: AUG-CC-PVTZ
    Blend: AUG-CC-PVTZ
  Basis Set: (AUG-CC-PVTZ AUX)
    Blend: AUG-CC-PVTZ-JKFIT
	 Reference Energy          =   -1231.7876151337643478 [Eh]
	 Singles Energy            =      -0.0000000000000000 [Eh]
	 Same-Spin Energy          =      -0.5860483682047103 [Eh]
	 Opposite-Spin Energy      =      -1.7439450070837932 [Eh]
	 Correlation Energy        =      -2.3299933752885034 [Eh]
	 Total Energy              =   -1234.1176085090528431 [Eh]

	 ================> DF-SCS-MP2 Energies <==================
	-----------------------------------------------------------
	 SCS Same-Spin Scale       =       0.3333333333333333 [-]
	 SCS Opposite-Spin Scale   =       1.2000000000000000 [-]
	 SCS Same-Spin Energy      =      -0.1953494560682368 [Eh]
	 SCS Opposite-Spin Energy  =      -2.0927340085005519 [Eh]
	 SCS Correlation Energy    =      -2.2880834645687886 [Eh]
	 SCS Total Energy          =   -1234.0756985983332470 [Eh]
	-----------------------------------------------------------

  Dipole Moment: [D]
     X:    -2.5514      Y:     0.9848      Z:     4.7540     Total:     5.4846

*** Psi4 exiting successfully. Buy a developer a beer!
