                               Psi4 1.4a3.dev225

  ==> Input File <==

--------------------------------------------------------------------------
#psi4
#
memory 32 gb

molecule  {
0 1
  S        1.0053540    -0.0074810    -0.7736030
  S       -1.6960990    -1.1658100     0.0116150
  O        1.1339470    -1.3419000    -1.3567350
  O        1.3858060     1.2139170    -1.4782970
  N        1.8781370    -0.0233820     0.6524530
  C       -0.7053172     0.1895683    -0.3109920
  C        1.8702590     1.2384050     1.3961810
  C        1.6932100    -1.2084810     1.4940670
  C       -1.3340060     1.3908220    -0.1017950
  C       -2.6674560     1.1993540     0.3271550
  C       -2.9984720    -0.1352680     0.4414500
  H        2.0840190     2.0584320     0.7119160
  H        2.6656140     1.1849010     2.1428720
  H        0.9115380     1.4151000     1.9054530
  H        1.7293810    -2.1000160     0.8695980
  H        0.7471110    -1.1811200     2.0534300
  H        2.5234680    -1.2398400     2.2034110
  H       -0.8634200     2.3493520    -0.2940320
  H       -3.3646430     2.0039100     0.5365790
  H       -3.9505650    -0.5636820     0.7303990
units angstrom
no_reorient  #important for SAPT in psi4, default
symmetry c1  #important for SAPT in psi4, default
}

set PROPERTIES_ORIGIN ["COM"]
properties('MP2/aug-cc-pvtz', properties = ['dipole'])
--------------------------------------------------------------------------

    Molecular point group: c1
  Charge       = 0
  Multiplicity = 1
  Basis Set: AUG-CC-PVTZ
    Blend: AUG-CC-PVTZ
  Basis Set: (AUG-CC-PVTZ AUX)
    Blend: AUG-CC-PVTZ-JKFIT

    Orbital Energies [Eh]
    ---------------------

    Doubly Occupied:

       1A    -92.208632     2A    -92.015348     3A    -20.550324
       4A    -20.549851     5A    -15.607070     6A    -11.298223
       7A    -11.293907     8A    -11.274230     9A    -11.272337
      10A    -11.271009    11A    -11.263563    12A     -9.172644
      13A     -9.015149    14A     -6.857750    15A     -6.857446
      16A     -6.857116    17A     -6.696011    18A     -6.695454
      19A     -6.694677    20A     -1.455587    21A     -1.340206
      22A     -1.253124    23A     -1.203485    24A     -1.029186
      25A     -1.018483    26A     -0.982024    27A     -0.946198
      28A     -0.850512    29A     -0.786975    30A     -0.753551
      31A     -0.728033    32A     -0.703868    33A     -0.662201
      34A     -0.658733    35A     -0.626689    36A     -0.616265
      37A     -0.587497    38A     -0.579453    39A     -0.572415
      40A     -0.565126    41A     -0.551047    42A     -0.542218
      43A     -0.510151    44A     -0.501808    45A     -0.498160
      46A     -0.473514    47A     -0.466766    48A     -0.416938
      49A     -0.372536    50A     -0.354336

  @DF-RHF Final Energy: -1231.78930914465468

   => Energetics <=

    Nuclear Repulsion Energy =            892.3490106696009434
    One-Electron Energy =               -3468.1609844411159429
    Two-Electron Energy =                1344.0226646268604327
    Total Energy =                      -1231.7893091446546805
  Basis Set: (AUG-CC-PVTZ AUX)
    Blend: AUG-CC-PVTZ-RI
    Molecular point group: c1

    Geometry (in Angstrom), charge = 0, multiplicity = 1:

       Center              X                  Y                   Z               Mass
    ------------   -----------------  -----------------  -----------------  -----------------
         S            1.019390521850     0.012604447892    -0.717716773469    31.972071174400
         S           -1.682062478150    -1.145724552108     0.067501226531    31.972071174400
         O            1.147983521850    -1.321814552108    -1.300848773469    15.994914619570
         O            1.399842521850     1.234002447892    -1.422410773469    15.994914619570
         N            1.892173521850    -0.003296552108     0.708339226531    14.003074004430
         C           -0.691280678150     0.209653747892    -0.255105773469    12.000000000000
         C            1.884295521850     1.258490447892     1.452067226531    12.000000000000
         C            1.707246521850    -1.188395552108     1.549953226531    12.000000000000
         C           -1.319969478150     1.410907447892    -0.045908773469    12.000000000000
         C           -2.653419478150     1.219439447892     0.383041226531    12.000000000000
         C           -2.984435478150    -0.115182552108     0.497336226531    12.000000000000
         H            2.098055521850     2.078517447892     0.767802226531     1.007825032230
         H            2.679650521850     1.204986447892     2.198758226531     1.007825032230
         H            0.925574521850     1.435185447892     1.961339226531     1.007825032230
         H            1.743417521850    -2.079930552108     0.925484226531     1.007825032230
         H            0.761147521850    -1.161034552108     2.109316226531     1.007825032230
         H            2.537504521850    -1.219754552108     2.259297226531     1.007825032230
         H           -0.849383478150     2.369437447892    -0.238145773469     1.007825032230
         H           -3.350606478150     2.023995447892     0.592465226531     1.007825032230
         H           -3.936528478150    -0.543596552108     0.786285226531     1.007825032230

  Basis Set: AUG-CC-PVTZ
    Blend: AUG-CC-PVTZ
  Basis Set: (AUG-CC-PVTZ AUX)
    Blend: AUG-CC-PVTZ-JKFIT
	 Reference Energy          =   -1231.7893091446546805 [Eh]
	 Singles Energy            =      -0.0000000000000000 [Eh]
	 Same-Spin Energy          =      -0.5859898124395038 [Eh]
	 Opposite-Spin Energy      =      -1.7438442497387738 [Eh]
	 Correlation Energy        =      -2.3298340621782776 [Eh]
	 Total Energy              =   -1234.1191432068328595 [Eh]

	 ================> DF-SCS-MP2 Energies <==================
	-----------------------------------------------------------
	 SCS Same-Spin Scale       =       0.3333333333333333 [-]
	 SCS Opposite-Spin Scale   =       1.2000000000000000 [-]
	 SCS Same-Spin Energy      =      -0.1953299374798346 [Eh]
	 SCS Opposite-Spin Energy  =      -2.0926130996865284 [Eh]
	 SCS Correlation Energy    =      -2.2879430371663632 [Eh]
	 SCS Total Energy          =   -1234.0772521818209952 [Eh]
	-----------------------------------------------------------

  Dipole Moment: [D]
     X:    -2.5148      Y:     0.7374      Z:     4.7583     Total:     5.4322

*** Psi4 exiting successfully. Buy a developer a beer!
