                               Psi4 1.3.2 release

  ==> Input File <==

--------------------------------------------------------------------------
#psi4
#
memory 32 gb

molecule  {
0 1
  S        1.0053540    -0.0074810    -0.7736030
  S       -1.6960990    -1.1658100     0.0116150
  O        0.9841621    -1.3590193    -1.3305126
  O        1.3858060     1.2139170    -1.4782970
  N        1.8781370    -0.0233820     0.6524530
  C       -0.6861290     0.1873580    -0.3161810
  C        1.8702590     1.2384050     1.3961810
  C        1.6932100    -1.2084810     1.4940670
  C       -1.3340060     1.3908220    -0.1017950
  C       -2.6674560     1.1993540     0.3271550
  C       -2.9984720    -0.1352680     0.4414500
  H        2.0840190     2.0584320     0.7119160
  H        2.6656140     1.1849010     2.1428720
  H        0.9115380     1.4151000     1.9054530
  H        1.7293810    -2.1000160     0.8695980
  H        0.7471110    -1.1811200     2.0534300
  H        2.5234680    -1.2398400     2.2034110
  H       -0.8634200     2.3493520    -0.2940320
  H       -3.3646430     2.0039100     0.5365790
  H       -3.9505650    -0.5636820     0.7303990
units angstrom
no_reorient  #important for SAPT in psi4, default
symmetry c1  #important for SAPT in psi4, default
}

set PROPERTIES_ORIGIN ["COM"]
properties('MP2/aug-cc-pvtz', properties = ['dipole'])
--------------------------------------------------------------------------

    Molecular point group: c1
  Charge       = 0
  Multiplicity = 1
  Basis Set: AUG-CC-PVTZ
    Blend: AUG-CC-PVTZ
  Basis Set: (AUG-CC-PVTZ AUX)
    Blend: AUG-CC-PVTZ-JKFIT

    Orbital Energies [Eh]
    ---------------------

    Doubly Occupied:

       1A    -92.210367     2A    -92.011415     3A    -20.554860
       4A    -20.552228     5A    -15.610356     6A    -11.291934
       7A    -11.290809     8A    -11.274418     9A    -11.272297
      10A    -11.271424    11A    -11.260060    12A     -9.174375
      13A     -9.010892    14A     -6.859465    15A     -6.859313
      16A     -6.858796    17A     -6.691716    18A     -6.691192
      19A     -6.690433    20A     -1.458428    21A     -1.345979
      22A     -1.255795    23A     -1.196304    24A     -1.026022
      25A     -1.012607    26A     -0.983659    27A     -0.947520
      28A     -0.850826    29A     -0.782102    30A     -0.753856
      31A     -0.725836    32A     -0.706343    33A     -0.665109
      34A     -0.658936    35A     -0.626239    36A     -0.618689
      37A     -0.584597    38A     -0.581052    39A     -0.573307
      40A     -0.562007    41A     -0.545779    42A     -0.543933
      43A     -0.509307    44A     -0.501196    45A     -0.499591
      46A     -0.478014    47A     -0.466916    48A     -0.418059
      49A     -0.368117    50A     -0.349653

  @DF-RHF Final Energy: -1231.78534264431551

   => Energetics <=

    Nuclear Repulsion Energy =            893.9576660563403721
    One-Electron Energy =               -3471.4217582020064583
    Two-Electron Energy =                1345.6787495013506941
    Total Energy =                      -1231.7853426443155058
  Basis Set: (AUG-CC-PVTZ AUX)
    Blend: AUG-CC-PVTZ-RI
    Molecular point group: c1

    Geometry (in Angstrom), charge = 0, multiplicity = 1:

       Center              X                  Y                   Z               Mass
    ------------   -----------------  -----------------  -----------------  -----------------
         S            1.030727975180     0.014176875088    -0.719586632524    31.972071174400
         S           -1.670725024820    -1.144152124912     0.065631367476    31.972071174400
         O            1.009536075180    -1.337361424912    -1.276496232524    15.994914619570
         O            1.411179975180     1.235574875088    -1.424280632524    15.994914619570
         N            1.903510975180    -0.001724124912     0.706469367476    14.003074004430
         C           -0.660755024820     0.209015875088    -0.262164632524    12.000000000000
         C            1.895632975180     1.260062875088     1.450197367476    12.000000000000
         C            1.718583975180    -1.186823124912     1.548083367476    12.000000000000
         C           -1.308632024820     1.412479875088    -0.047778632524    12.000000000000
         C           -2.642082024820     1.221011875088     0.381171367476    12.000000000000
         C           -2.973098024820    -0.113610124912     0.495466367476    12.000000000000
         H            2.109392975180     2.080089875088     0.765932367476     1.007825032230
         H            2.690987975180     1.206558875088     2.196888367476     1.007825032230
         H            0.936911975180     1.436757875088     1.959469367476     1.007825032230
         H            1.754754975180    -2.078358124912     0.923614367476     1.007825032230
         H            0.772484975180    -1.159462124912     2.107446367476     1.007825032230
         H            2.548841975180    -1.218182124912     2.257427367476     1.007825032230
         H           -0.838046024820     2.371009875088    -0.240015632524     1.007825032230
         H           -3.339269024820     2.025567875088     0.590595367476     1.007825032230
         H           -3.925191024820    -0.542024124912     0.784415367476     1.007825032230

  Basis Set: AUG-CC-PVTZ
    Blend: AUG-CC-PVTZ
  Basis Set: (AUG-CC-PVTZ AUX)
    Blend: AUG-CC-PVTZ-JKFIT
	 Reference Energy          =   -1231.7853426443155058 [Eh]
	 Singles Energy            =      -0.0000000000000000 [Eh]
	 Same-Spin Energy          =      -0.5865184600799673 [Eh]
	 Opposite-Spin Energy      =      -1.7447866989149623 [Eh]
	 Correlation Energy        =      -2.3313051589949296 [Eh]
	 Total Energy              =   -1234.1166478033103431 [Eh]

	 ================> DF-SCS-MP2 Energies <==================
	-----------------------------------------------------------
	 SCS Same-Spin Scale       =       0.3333333333333333 [-]
	 SCS Opposite-Spin Scale   =       1.2000000000000000 [-]
	 SCS Same-Spin Energy      =      -0.1955061533599891 [Eh]
	 SCS Opposite-Spin Energy  =      -2.0937440386979547 [Eh]
	 SCS Correlation Energy    =      -2.2892501920579438 [Eh]
	 SCS Total Energy          =   -1234.0745928363735402 [Eh]
	-----------------------------------------------------------

  Dipole Moment: [D]
     X:    -2.0582      Y:     0.7611      Z:     4.6844     Total:     5.1729

*** Psi4 exiting successfully. Buy a developer a beer!
