                               Psi4 1.3.2 release

  ==> Input File <==

--------------------------------------------------------------------------
#psi4
#
memory 32 gb

molecule  {
0 1
  S        1.0053540    -0.0074810    -0.7736030
  S       -1.6960990    -1.1658100     0.0116150
  O        1.1339470    -1.3419000    -1.3567350
  O        1.3858060     1.2139170    -1.4782970
  N        1.8781370    -0.0233820     0.6524530
  C       -0.6861290     0.1873580    -0.3161810
  C        1.8702590     1.2384050     1.3961810
  C        1.6932100    -1.2084810     1.4940670
  C       -1.3340060     1.3908220    -0.1017950
  C       -2.6674560     1.1993540     0.3271550
  C       -2.8466363    -0.2554126     0.3913382
  H        2.0840190     2.0584320     0.7119160
  H        2.6656140     1.1849010     2.1428720
  H        0.9115380     1.4151000     1.9054530
  H        1.7293810    -2.1000160     0.8695980
  H        0.7471110    -1.1811200     2.0534300
  H        2.5234680    -1.2398400     2.2034110
  H       -0.8634200     2.3493520    -0.2940320
  H       -3.3646430     2.0039100     0.5365790
  H       -3.9505650    -0.5636820     0.7303990
units angstrom
no_reorient  #important for SAPT in psi4, default
symmetry c1  #important for SAPT in psi4, default
}

set PROPERTIES_ORIGIN ["COM"]
properties('MP2/aug-cc-pvtz', properties = ['dipole'])
--------------------------------------------------------------------------

    Molecular point group: c1
  Charge       = 0
  Multiplicity = 1
  Basis Set: AUG-CC-PVTZ
    Blend: AUG-CC-PVTZ
  Basis Set: (AUG-CC-PVTZ AUX)
    Blend: AUG-CC-PVTZ-JKFIT

    Orbital Energies [Eh]
    ---------------------

    Doubly Occupied:

       1A    -92.204381     2A    -92.024425     3A    -20.546979
       4A    -20.545890     5A    -15.602879     6A    -11.298756
       7A    -11.286899     8A    -11.274773     9A    -11.270304
      10A    -11.270160    11A    -11.265205    12A     -9.168444
      13A     -9.029270    14A     -6.853555    15A     -6.853259
      16A     -6.852991    17A     -6.710825    18A     -6.709045
      19A     -6.708477    20A     -1.452601    21A     -1.337076
      22A     -1.250257    23A     -1.226720    24A     -1.051604
      25A     -1.012515    26A     -0.980360    27A     -0.937929
      28A     -0.841075    29A     -0.779562    30A     -0.755470
      31A     -0.726961    32A     -0.701344    33A     -0.659514
      34A     -0.655371    35A     -0.622235    36A     -0.614265
      37A     -0.585649    38A     -0.579881    39A     -0.570751
      40A     -0.564385    41A     -0.554493    42A     -0.540307
      43A     -0.519177    44A     -0.500711    45A     -0.493223
      46A     -0.470728    47A     -0.464181    48A     -0.416224
      49A     -0.385948    50A     -0.336736

  @DF-RHF Final Energy: -1231.74136551424681

   => Energetics <=

    Nuclear Repulsion Energy =            897.0124622730211286
    One-Electron Energy =               -3477.3801163213133805
    Two-Electron Energy =                1348.6262885340452158
    Total Energy =                      -1231.7413655142468087
  Basis Set: (AUG-CC-PVTZ AUX)
    Blend: AUG-CC-PVTZ-RI
    Molecular point group: c1

    Geometry (in Angstrom), charge = 0, multiplicity = 1:

       Center              X                  Y                   Z               Mass
    ------------   -----------------  -----------------  -----------------  -----------------
         S            1.008645985050     0.020291366069    -0.714242513551    31.972071174400
         S           -1.692807014950    -1.138037633931     0.070975486449    31.972071174400
         O            1.137238985050    -1.314127633931    -1.297374513551    15.994914619570
         O            1.389097985050     1.241689366069    -1.418936513551    15.994914619570
         N            1.881428985050     0.004390366069     0.711813486449    14.003074004430
         C           -0.682837014950     0.215130366069    -0.256820513551    12.000000000000
         C            1.873550985050     1.266177366069     1.455541486449    12.000000000000
         C            1.696501985050    -1.180708633931     1.553427486449    12.000000000000
         C           -1.330714014950     1.418594366069    -0.042434513551    12.000000000000
         C           -2.664164014950     1.227126366069     0.386515486449    12.000000000000
         C           -2.843344314950    -0.227640233931     0.450698686449    12.000000000000
         H            2.087310985050     2.086204366069     0.771276486449     1.007825032230
         H            2.668905985050     1.212673366069     2.202232486449     1.007825032230
         H            0.914829985050     1.442872366069     1.964813486449     1.007825032230
         H            1.732672985050    -2.072243633931     0.928958486449     1.007825032230
         H            0.750402985050    -1.153347633931     2.112790486449     1.007825032230
         H            2.526759985050    -1.212067633931     2.262771486449     1.007825032230
         H           -0.860128014950     2.377124366069    -0.234671513551     1.007825032230
         H           -3.361351014950     2.031682366069     0.595939486449     1.007825032230
         H           -3.947273014950    -0.535909633931     0.789759486449     1.007825032230

  Basis Set: AUG-CC-PVTZ
    Blend: AUG-CC-PVTZ
  Basis Set: (AUG-CC-PVTZ AUX)
    Blend: AUG-CC-PVTZ-JKFIT
	 Reference Energy          =   -1231.7413655142468087 [Eh]
	 Singles Energy            =      -0.0000000000000000 [Eh]
	 Same-Spin Energy          =      -0.5894664216920724 [Eh]
	 Opposite-Spin Energy      =      -1.7461426618610922 [Eh]
	 Correlation Energy        =      -2.3356090835531647 [Eh]
	 Total Energy              =   -1234.0769745978000174 [Eh]

	 ================> DF-SCS-MP2 Energies <==================
	-----------------------------------------------------------
	 SCS Same-Spin Scale       =       0.3333333333333333 [-]
	 SCS Opposite-Spin Scale   =       1.2000000000000000 [-]
	 SCS Same-Spin Energy      =      -0.1964888072306908 [Eh]
	 SCS Opposite-Spin Energy  =      -2.0953711942333104 [Eh]
	 SCS Correlation Energy    =      -2.2918600014640012 [Eh]
	 SCS Total Energy          =   -1234.0332255157109103 [Eh]
	-----------------------------------------------------------

  Dipole Moment: [D]
     X:    -2.6961      Y:     0.5614      Z:     4.7611     Total:     5.5002

*** Psi4 exiting successfully. Buy a developer a beer!
