                               Psi4 1.4a3.dev225

  ==> Input File <==

--------------------------------------------------------------------------
#psi4
#
memory 32 gb

molecule  {
0 1
  S        1.0053540    -0.0074810    -0.7736030
  S       -1.6960990    -1.1658100     0.0116150
  O        1.1339470    -1.3419000    -1.3567350
  O        1.3858060     1.2139170    -1.4782970
  N        1.8781370    -0.0233820     0.6524530
  C       -0.6567702     0.2266933    -0.3257097
  C        1.8702590     1.2384050     1.3961810
  C        1.6932100    -1.2084810     1.4940670
  C       -1.3340060     1.3908220    -0.1017950
  C       -2.6674560     1.1993540     0.3271550
  C       -2.9984720    -0.1352680     0.4414500
  H        2.0840190     2.0584320     0.7119160
  H        2.6656140     1.1849010     2.1428720
  H        0.9115380     1.4151000     1.9054530
  H        1.7293810    -2.1000160     0.8695980
  H        0.7471110    -1.1811200     2.0534300
  H        2.5234680    -1.2398400     2.2034110
  H       -0.8634200     2.3493520    -0.2940320
  H       -3.3646430     2.0039100     0.5365790
  H       -3.9505650    -0.5636820     0.7303990
units angstrom
no_reorient  #important for SAPT in psi4, default
symmetry c1  #important for SAPT in psi4, default
}

set PROPERTIES_ORIGIN ["COM"]
properties('MP2/aug-cc-pvtz', properties = ['dipole'])
--------------------------------------------------------------------------

    Molecular point group: c1
  Charge       = 0
  Multiplicity = 1
  Basis Set: AUG-CC-PVTZ
    Blend: AUG-CC-PVTZ
  Basis Set: (AUG-CC-PVTZ AUX)
    Blend: AUG-CC-PVTZ-JKFIT

    Orbital Energies [Eh]
    ---------------------

    Doubly Occupied:

       1A    -92.208217     2A    -92.014447     3A    -20.551376
       4A    -20.547360     5A    -15.606315     6A    -11.298493
       7A    -11.298455     8A    -11.278069     9A    -11.272112
      10A    -11.270412    11A    -11.264631    12A     -9.172632
      13A     -9.013284    14A     -6.857775    15A     -6.857541
      16A     -6.857095    17A     -6.694082    18A     -6.693528
      19A     -6.692815    20A     -1.456605    21A     -1.340075
      22A     -1.252847    23A     -1.198265    24A     -1.036586
      25A     -1.014089    26A     -0.981608    27A     -0.946756
      28A     -0.857567    29A     -0.787985    30A     -0.753026
      31A     -0.727842    32A     -0.704047    33A     -0.662273
      34A     -0.658702    35A     -0.630168    36A     -0.616506
      37A     -0.590511    38A     -0.579492    39A     -0.571870
      40A     -0.559813    41A     -0.547376    42A     -0.541736
      43A     -0.510773    44A     -0.498864    45A     -0.495753
      46A     -0.473075    47A     -0.467509    48A     -0.418517
      49A     -0.373620    50A     -0.355252

  @DF-RHF Final Energy: -1231.78818955227985

   => Energetics <=

    Nuclear Repulsion Energy =            892.4064481830839668
    One-Electron Energy =               -3468.2737795430221013
    Two-Electron Energy =                1344.0791418076585160
    Total Energy =                      -1231.7881895522798459
  Basis Set: (AUG-CC-PVTZ AUX)
    Blend: AUG-CC-PVTZ-RI
    Molecular point group: c1

    Geometry (in Angstrom), charge = 0, multiplicity = 1:

       Center              X                  Y                   Z               Mass
    ------------   -----------------  -----------------  -----------------  -----------------
         S            1.016340567849     0.010272078388    -0.716792137384    31.972071174400
         S           -1.685112432151    -1.148056921612     0.068425862616    31.972071174400
         O            1.144933567849    -1.324146921612    -1.299924137384    15.994914619570
         O            1.396792567849     1.231670078388    -1.421486137384    15.994914619570
         N            1.889123567849    -0.005628921612     0.709263862616    14.003074004430
         C           -0.645783632151     0.244446378388    -0.268898837384    12.000000000000
         C            1.881245567849     1.256158078388     1.452991862616    12.000000000000
         C            1.704196567849    -1.190727921612     1.550877862616    12.000000000000
         C           -1.323019432151     1.408575078388    -0.044984137384    12.000000000000
         C           -2.656469432151     1.217107078388     0.383965862616    12.000000000000
         C           -2.987485432151    -0.117514921612     0.498260862616    12.000000000000
         H            2.095005567849     2.076185078388     0.768726862616     1.007825032230
         H            2.676600567849     1.202654078388     2.199682862616     1.007825032230
         H            0.922524567849     1.432853078388     1.962263862616     1.007825032230
         H            1.740367567849    -2.082262921612     0.926408862616     1.007825032230
         H            0.758097567849    -1.163366921612     2.110240862616     1.007825032230
         H            2.534454567849    -1.222086921612     2.260221862616     1.007825032230
         H           -0.852433432151     2.367105078388    -0.237221137384     1.007825032230
         H           -3.353656432151     2.021663078388     0.593389862616     1.007825032230
         H           -3.939578432151    -0.545928921612     0.787209862616     1.007825032230

  Basis Set: AUG-CC-PVTZ
    Blend: AUG-CC-PVTZ
  Basis Set: (AUG-CC-PVTZ AUX)
    Blend: AUG-CC-PVTZ-JKFIT
	 Reference Energy          =   -1231.7881895522798459 [Eh]
	 Singles Energy            =      -0.0000000000000000 [Eh]
	 Same-Spin Energy          =      -0.5856251081734998 [Eh]
	 Opposite-Spin Energy      =      -1.7437989570159158 [Eh]
	 Correlation Energy        =      -2.3294240651894156 [Eh]
	 Total Energy              =   -1234.1176136174692601 [Eh]

	 ================> DF-SCS-MP2 Energies <==================
	-----------------------------------------------------------
	 SCS Same-Spin Scale       =       0.3333333333333333 [-]
	 SCS Opposite-Spin Scale   =       1.2000000000000000 [-]
	 SCS Same-Spin Energy      =      -0.1952083693911666 [Eh]
	 SCS Opposite-Spin Energy  =      -2.0925587484190991 [Eh]
	 SCS Correlation Energy    =      -2.2877671178102656 [Eh]
	 SCS Total Energy          =   -1234.0759566700901360 [Eh]
	-----------------------------------------------------------

  Dipole Moment: [D]
     X:    -2.6046      Y:     0.7915      Z:     4.7815     Total:     5.5021

*** Psi4 exiting successfully. Buy a developer a beer!
