                               Psi4 1.3.2 release

  ==> Input File <==

--------------------------------------------------------------------------
#psi4
#
memory 32 gb

molecule  {
0 1
  S        1.0053540    -0.0074810    -0.7736030
  S       -1.6960990    -1.1658100     0.0116150
  O        1.1339470    -1.3419000    -1.3567350
  O        1.3858060     1.2139170    -1.4782970
  N        1.8281822    -0.0168159     0.6819056
  C       -0.6861290     0.1873580    -0.3161810
  C        1.8702590     1.2384050     1.3961810
  C        1.6932100    -1.2084810     1.4940670
  C       -1.3340060     1.3908220    -0.1017950
  C       -2.6674560     1.1993540     0.3271550
  C       -2.9984720    -0.1352680     0.4414500
  H        2.0840190     2.0584320     0.7119160
  H        2.6656140     1.1849010     2.1428720
  H        0.9115380     1.4151000     1.9054530
  H        1.7293810    -2.1000160     0.8695980
  H        0.7471110    -1.1811200     2.0534300
  H        2.5234680    -1.2398400     2.2034110
  H       -0.8634200     2.3493520    -0.2940320
  H       -3.3646430     2.0039100     0.5365790
  H       -3.9505650    -0.5636820     0.7303990
units angstrom
no_reorient  #important for SAPT in psi4, default
symmetry c1  #important for SAPT in psi4, default
}

set PROPERTIES_ORIGIN ["COM"]
properties('MP2/aug-cc-pvtz', properties = ['dipole'])
--------------------------------------------------------------------------

    Molecular point group: c1
  Charge       = 0
  Multiplicity = 1
  Basis Set: AUG-CC-PVTZ
    Blend: AUG-CC-PVTZ
  Basis Set: (AUG-CC-PVTZ AUX)
    Blend: AUG-CC-PVTZ-JKFIT

    Orbital Energies [Eh]
    ---------------------

    Doubly Occupied:

       1A    -92.210313     2A    -92.015022     3A    -20.552103
       4A    -20.551564     5A    -15.603026     6A    -11.297429
       7A    -11.294076     8A    -11.275471     9A    -11.271131
      10A    -11.270108    11A    -11.263271    12A     -9.174161
      13A     -9.014550    14A     -6.859324    15A     -6.858999
      16A     -6.858705    17A     -6.695394    18A     -6.694864
      19A     -6.694103    20A     -1.457220    21A     -1.341683
      22A     -1.259041    23A     -1.200151    24A     -1.031282
      25A     -1.016127    26A     -0.985996    27A     -0.947038
      28A     -0.850786    29A     -0.785471    30A     -0.754149
      31A     -0.727726    32A     -0.706489    33A     -0.664530
      34A     -0.661832    35A     -0.628162    36A     -0.617911
      37A     -0.587291    38A     -0.579855    39A     -0.571986
      40A     -0.563197    41A     -0.548633    42A     -0.548377
      43A     -0.510633    44A     -0.501540    45A     -0.498920
      46A     -0.474908    47A     -0.468349    48A     -0.411229
      49A     -0.371425    50A     -0.351823

  @DF-RHF Final Energy: -1231.78864025559051

   => Energetics <=

    Nuclear Repulsion Energy =            893.2653438835237694
    One-Electron Energy =               -3469.9532192947312979
    Two-Electron Energy =                1344.8992351556171343
    Total Energy =                      -1231.7886402555905079
  Basis Set: (AUG-CC-PVTZ AUX)
    Blend: AUG-CC-PVTZ-RI
    Molecular point group: c1

    Geometry (in Angstrom), charge = 0, multiplicity = 1:

       Center              X                  Y                   Z               Mass
    ------------   -----------------  -----------------  -----------------  -----------------
         S            1.021847296756     0.012261937811    -0.719549994629    31.972071174400
         S           -1.679605703244    -1.146067062189     0.065668005371    31.972071174400
         O            1.150440296756    -1.322157062189    -1.302681994629    15.994914619570
         O            1.402299296756     1.233659937811    -1.424243994629    15.994914619570
         N            1.844675496756     0.002927037811     0.735958605371    14.003074004430
         C           -0.669635703244     0.207100937811    -0.262127994629    12.000000000000
         C            1.886752296756     1.258147937811     1.450234005371    12.000000000000
         C            1.709703296756    -1.188738062189     1.548120005371    12.000000000000
         C           -1.317512703244     1.410564937811    -0.047741994629    12.000000000000
         C           -2.650962703244     1.219096937811     0.381208005371    12.000000000000
         C           -2.981978703244    -0.115525062189     0.495503005371    12.000000000000
         H            2.100512296756     2.078174937811     0.765969005371     1.007825032230
         H            2.682107296756     1.204643937811     2.196925005371     1.007825032230
         H            0.928031296756     1.434842937811     1.959506005371     1.007825032230
         H            1.745874296756    -2.080273062189     0.923651005371     1.007825032230
         H            0.763604296756    -1.161377062189     2.107483005371     1.007825032230
         H            2.539961296756    -1.220097062189     2.257464005371     1.007825032230
         H           -0.846926703244     2.369094937811    -0.239978994629     1.007825032230
         H           -3.348149703244     2.023652937811     0.590632005371     1.007825032230
         H           -3.934071703244    -0.543939062189     0.784452005371     1.007825032230

  Basis Set: AUG-CC-PVTZ
    Blend: AUG-CC-PVTZ
  Basis Set: (AUG-CC-PVTZ AUX)
    Blend: AUG-CC-PVTZ-JKFIT
	 Reference Energy          =   -1231.7886402555905079 [Eh]
	 Singles Energy            =      -0.0000000000000000 [Eh]
	 Same-Spin Energy          =      -0.5863089866975970 [Eh]
	 Opposite-Spin Energy      =      -1.7438293608251447 [Eh]
	 Correlation Energy        =      -2.3301383475227420 [Eh]
	 Total Energy              =   -1234.1187786031132418 [Eh]

	 ================> DF-SCS-MP2 Energies <==================
	-----------------------------------------------------------
	 SCS Same-Spin Scale       =       0.3333333333333333 [-]
	 SCS Opposite-Spin Scale   =       1.2000000000000000 [-]
	 SCS Same-Spin Energy      =      -0.1954363288991990 [Eh]
	 SCS Opposite-Spin Energy  =      -2.0925952329901736 [Eh]
	 SCS Correlation Energy    =      -2.2880315618893725 [Eh]
	 SCS Total Energy          =   -1234.0766718174797916 [Eh]
	-----------------------------------------------------------

  Dipole Moment: [D]
     X:    -2.3851      Y:     0.7266      Z:     4.6659     Total:     5.2903

*** Psi4 exiting successfully. Buy a developer a beer!
