                               Psi4 1.3.2 release

  ==> Input File <==

--------------------------------------------------------------------------
#psi4
#
memory 32 gb

molecule  {
0 1
  S        1.0053540    -0.0074810    -0.7736030
  S       -1.6960990    -1.1658100     0.0116150
  O        1.1526964    -1.3205871    -1.3991394
  O        1.3858060     1.2139170    -1.4782970
  N        1.8781370    -0.0233820     0.6524530
  C       -0.6861290     0.1873580    -0.3161810
  C        1.8702590     1.2384050     1.3961810
  C        1.6932100    -1.2084810     1.4940670
  C       -1.3340060     1.3908220    -0.1017950
  C       -2.6674560     1.1993540     0.3271550
  C       -2.9984720    -0.1352680     0.4414500
  H        2.0840190     2.0584320     0.7119160
  H        2.6656140     1.1849010     2.1428720
  H        0.9115380     1.4151000     1.9054530
  H        1.7293810    -2.1000160     0.8695980
  H        0.7471110    -1.1811200     2.0534300
  H        2.5234680    -1.2398400     2.2034110
  H       -0.8634200     2.3493520    -0.2940320
  H       -3.3646430     2.0039100     0.5365790
  H       -3.9505650    -0.5636820     0.7303990
units angstrom
no_reorient  #important for SAPT in psi4, default
symmetry c1  #important for SAPT in psi4, default
}

set PROPERTIES_ORIGIN ["COM"]
properties('MP2/aug-cc-pvtz', properties = ['dipole'])
--------------------------------------------------------------------------

    Molecular point group: c1
  Charge       = 0
  Multiplicity = 1
  Basis Set: AUG-CC-PVTZ
    Blend: AUG-CC-PVTZ
  Basis Set: (AUG-CC-PVTZ AUX)
    Blend: AUG-CC-PVTZ-JKFIT

    Orbital Energies [Eh]
    ---------------------

    Doubly Occupied:

       1A    -92.207607     2A    -92.016734     3A    -20.549364
       4A    -20.546096     5A    -15.607530     6A    -11.299648
       7A    -11.296216     8A    -11.277796     9A    -11.272700
      10A    -11.271934    11A    -11.264853    12A     -9.171853
      13A     -9.016269    14A     -6.856965    15A     -6.856653
      16A     -6.856355    17A     -6.697113    18A     -6.696582
      19A     -6.695822    20A     -1.454832    21A     -1.336800
      22A     -1.254058    23A     -1.201969    24A     -1.032373
      25A     -1.017866    26A     -0.982610    27A     -0.946893
      28A     -0.853882    29A     -0.787166    30A     -0.753849
      31A     -0.727782    32A     -0.702971    33A     -0.661570
      34A     -0.659411    35A     -0.628307    36A     -0.615375
      37A     -0.588796    38A     -0.580302    39A     -0.572811
      40A     -0.564230    41A     -0.550396    42A     -0.542601
      43A     -0.509823    44A     -0.500908    45A     -0.495513
      46A     -0.470679    47A     -0.468199    48A     -0.418355
      49A     -0.373009    50A     -0.354658

  @DF-RHF Final Energy: -1231.78951758422090

   => Energetics <=

    Nuclear Repulsion Energy =            891.9406596309809174
    One-Electron Energy =               -3467.3281883935246697
    Two-Electron Energy =                1343.5980111783228494
    Total Energy =                      -1231.7895175842209028
  Basis Set: (AUG-CC-PVTZ AUX)
    Blend: AUG-CC-PVTZ-RI
    Molecular point group: c1

    Geometry (in Angstrom), charge = 0, multiplicity = 1:

       Center              X                  Y                   Z               Mass
    ------------   -----------------  -----------------  -----------------  -----------------
         S            1.016614957890     0.010958572920    -0.713839842613    31.972071174400
         S           -1.684838042110    -1.147370427080     0.071378157387    31.972071174400
         O            1.163957357890    -1.302147527080    -1.339376242613    15.994914619570
         O            1.397066957890     1.232356572920    -1.418533842613    15.994914619570
         N            1.889397957890    -0.004942427080     0.712216157387    14.003074004430
         C           -0.674868042110     0.205797572920    -0.256417842613    12.000000000000
         C            1.881519957890     1.256844572920     1.455944157387    12.000000000000
         C            1.704470957890    -1.190041427080     1.553830157387    12.000000000000
         C           -1.322745042110     1.409261572920    -0.042031842613    12.000000000000
         C           -2.656195042110     1.217793572920     0.386918157387    12.000000000000
         C           -2.987211042110    -0.116828427080     0.501213157387    12.000000000000
         H            2.095279957890     2.076871572920     0.771679157387     1.007825032230
         H            2.676874957890     1.203340572920     2.202635157387     1.007825032230
         H            0.922798957890     1.433539572920     1.965216157387     1.007825032230
         H            1.740641957890    -2.081576427080     0.929361157387     1.007825032230
         H            0.758371957890    -1.162680427080     2.113193157387     1.007825032230
         H            2.534728957890    -1.221400427080     2.263174157387     1.007825032230
         H           -0.852159042110     2.367791572920    -0.234268842613     1.007825032230
         H           -3.353382042110     2.022349572920     0.596342157387     1.007825032230
         H           -3.939304042110    -0.545242427080     0.790162157387     1.007825032230

  Basis Set: AUG-CC-PVTZ
    Blend: AUG-CC-PVTZ
  Basis Set: (AUG-CC-PVTZ AUX)
    Blend: AUG-CC-PVTZ-JKFIT
	 Reference Energy          =   -1231.7895175842209028 [Eh]
	 Singles Energy            =      -0.0000000000000000 [Eh]
	 Same-Spin Energy          =      -0.5859780333434249 [Eh]
	 Opposite-Spin Energy      =      -1.7437695358042353 [Eh]
	 Correlation Energy        =      -2.3297475691476603 [Eh]
	 Total Energy              =   -1234.1192651533685876 [Eh]

	 ================> DF-SCS-MP2 Energies <==================
	-----------------------------------------------------------
	 SCS Same-Spin Scale       =       0.3333333333333333 [-]
	 SCS Opposite-Spin Scale   =       1.2000000000000000 [-]
	 SCS Same-Spin Energy      =      -0.1953260111144750 [Eh]
	 SCS Opposite-Spin Energy  =      -2.0925234429650823 [Eh]
	 SCS Correlation Energy    =      -2.2878494540795571 [Eh]
	 SCS Total Energy          =   -1234.0773670383005083 [Eh]
	-----------------------------------------------------------

  Dipole Moment: [D]
     X:    -2.6281      Y:     0.7082      Z:     4.8840     Total:     5.5912

*** Psi4 exiting successfully. Buy a developer a beer!
