                               Psi4 1.3.2 release

  ==> Input File <==

--------------------------------------------------------------------------
#psi4
#
memory 32 gb

molecule  {
0 1
  S        1.0139997     0.1766262    -0.7828278
  S       -1.6960990    -1.1658100     0.0116150
  O        1.1339470    -1.3419000    -1.3567350
  O        1.3858060     1.2139170    -1.4782970
  N        1.8781370    -0.0233820     0.6524530
  C       -0.6861290     0.1873580    -0.3161810
  C        1.8702590     1.2384050     1.3961810
  C        1.6932100    -1.2084810     1.4940670
  C       -1.3340060     1.3908220    -0.1017950
  C       -2.6674560     1.1993540     0.3271550
  C       -2.9984720    -0.1352680     0.4414500
  H        2.0840190     2.0584320     0.7119160
  H        2.6656140     1.1849010     2.1428720
  H        0.9115380     1.4151000     1.9054530
  H        1.7293810    -2.1000160     0.8695980
  H        0.7471110    -1.1811200     2.0534300
  H        2.5234680    -1.2398400     2.2034110
  H       -0.8634200     2.3493520    -0.2940320
  H       -3.3646430     2.0039100     0.5365790
  H       -3.9505650    -0.5636820     0.7303990
units angstrom
no_reorient  #important for SAPT in psi4, default
symmetry c1  #important for SAPT in psi4, default
}

set PROPERTIES_ORIGIN ["COM"]
properties('MP2/aug-cc-pvtz', properties = ['dipole'])
--------------------------------------------------------------------------

    Molecular point group: c1
  Charge       = 0
  Multiplicity = 1
  Basis Set: AUG-CC-PVTZ
    Blend: AUG-CC-PVTZ
  Basis Set: (AUG-CC-PVTZ AUX)
    Blend: AUG-CC-PVTZ-JKFIT

    Orbital Energies [Eh]
    ---------------------

    Doubly Occupied:

       1A    -92.196860     2A    -92.017631     3A    -20.586296
       4A    -20.510613     5A    -15.604510     6A    -11.299494
       7A    -11.295335     8A    -11.276883     9A    -11.272904
      10A    -11.267716    11A    -11.263652    12A     -9.167428
      13A     -9.016521    14A     -6.853514    15A     -6.851318
      16A     -6.850679    17A     -6.697277    18A     -6.696806
      19A     -6.695997    20A     -1.541959    21A     -1.290924
      22A     -1.230837    23A     -1.200721    24A     -1.034041
      25A     -1.016288    26A     -0.981106    27A     -0.942267
      28A     -0.854889    29A     -0.786402    30A     -0.758806
      31A     -0.732743    32A     -0.724049    33A     -0.675277
      34A     -0.661459    35A     -0.642227    36A     -0.621253
      37A     -0.594511    38A     -0.589437    39A     -0.572327
      40A     -0.566243    41A     -0.551236    42A     -0.543597
      43A     -0.522339    44A     -0.502803    45A     -0.486421
      46A     -0.437417    47A     -0.430222    48A     -0.412361
      49A     -0.372269    50A     -0.353625

  @DF-RHF Final Energy: -1231.72363179996591

   => Energetics <=

    Nuclear Repulsion Energy =            892.4526228168064108
    One-Electron Energy =               -3468.2495269107203058
    Two-Electron Energy =                1344.0732722939478663
    Total Energy =                      -1231.7236317999659150
  Basis Set: (AUG-CC-PVTZ AUX)
    Blend: AUG-CC-PVTZ-RI
    Molecular point group: c1

    Geometry (in Angstrom), charge = 0, multiplicity = 1:

       Center              X                  Y                   Z               Mass
    ------------   -----------------  -----------------  -----------------  -----------------
         S            1.025383554216     0.166033450463    -0.725071468805    31.972071174400
         S           -1.684715145784    -1.176402749537     0.069371331195    31.972071174400
         O            1.145330854216    -1.352492749537    -1.298978668805    15.994914619570
         O            1.397189854216     1.203324250463    -1.420540668805    15.994914619570
         N            1.889520854216    -0.033974749537     0.710209331195    14.003074004430
         C           -0.674745145784     0.176765250463    -0.258424668805    12.000000000000
         C            1.881642854216     1.227812250463     1.453937331195    12.000000000000
         C            1.704593854216    -1.219073749537     1.551823331195    12.000000000000
         C           -1.322622145784     1.380229250463    -0.044038668805    12.000000000000
         C           -2.656072145784     1.188761250463     0.384911331195    12.000000000000
         C           -2.987088145784    -0.145860749537     0.499206331195    12.000000000000
         H            2.095402854216     2.047839250463     0.769672331195     1.007825032230
         H            2.676997854216     1.174308250463     2.200628331195     1.007825032230
         H            0.922921854216     1.404507250463     1.963209331195     1.007825032230
         H            1.740764854216    -2.110608749537     0.927354331195     1.007825032230
         H            0.758494854216    -1.191712749537     2.111186331195     1.007825032230
         H            2.534851854216    -1.250432749537     2.261167331195     1.007825032230
         H           -0.852036145784     2.338759250463    -0.236275668805     1.007825032230
         H           -3.353259145784     1.993317250463     0.594335331195     1.007825032230
         H           -3.939181145784    -0.574274749537     0.788155331195     1.007825032230

  Basis Set: AUG-CC-PVTZ
    Blend: AUG-CC-PVTZ
  Basis Set: (AUG-CC-PVTZ AUX)
    Blend: AUG-CC-PVTZ-JKFIT
	 Reference Energy          =   -1231.7236317999659150 [Eh]
	 Singles Energy            =      -0.0000000000000000 [Eh]
	 Same-Spin Energy          =      -0.5848198268428189 [Eh]
	 Opposite-Spin Energy      =      -1.7432024844118397 [Eh]
	 Correlation Energy        =      -2.3280223112546583 [Eh]
	 Total Energy              =   -1234.0516541112206141 [Eh]

	 ================> DF-SCS-MP2 Energies <==================
	-----------------------------------------------------------
	 SCS Same-Spin Scale       =       0.3333333333333333 [-]
	 SCS Opposite-Spin Scale   =       1.2000000000000000 [-]
	 SCS Same-Spin Energy      =      -0.1949399422809396 [Eh]
	 SCS Opposite-Spin Energy  =      -2.0918429812942074 [Eh]
	 SCS Correlation Energy    =      -2.2867829235751471 [Eh]
	 SCS Total Energy          =   -1234.0104147235410892 [Eh]
	-----------------------------------------------------------

  Dipole Moment: [D]
     X:    -2.5705      Y:     2.1759      Z:     4.7423     Total:     5.8165

*** Psi4 exiting successfully. Buy a developer a beer!
