                               Psi4 1.3.2 release

  ==> Input File <==

--------------------------------------------------------------------------
#psi4
#
memory 32 gb

molecule  {
0 1
  S        0.9870382    -0.1291670    -0.7729470
  S       -1.6960990    -1.1658100     0.0116150
  O        1.1339470    -1.3419000    -1.3567350
  O        1.3858060     1.2139170    -1.4782970
  N        1.8781370    -0.0233820     0.6524530
  C       -0.6861290     0.1873580    -0.3161810
  C        1.8702590     1.2384050     1.3961810
  C        1.6932100    -1.2084810     1.4940670
  C       -1.3340060     1.3908220    -0.1017950
  C       -2.6674560     1.1993540     0.3271550
  C       -2.9984720    -0.1352680     0.4414500
  H        2.0840190     2.0584320     0.7119160
  H        2.6656140     1.1849010     2.1428720
  H        0.9115380     1.4151000     1.9054530
  H        1.7293810    -2.1000160     0.8695980
  H        0.7471110    -1.1811200     2.0534300
  H        2.5234680    -1.2398400     2.2034110
  H       -0.8634200     2.3493520    -0.2940320
  H       -3.3646430     2.0039100     0.5365790
  H       -3.9505650    -0.5636820     0.7303990
units angstrom
no_reorient  #important for SAPT in psi4, default
symmetry c1  #important for SAPT in psi4, default
}

set PROPERTIES_ORIGIN ["COM"]
properties('MP2/aug-cc-pvtz', properties = ['dipole'])
--------------------------------------------------------------------------

    Molecular point group: c1
  Charge       = 0
  Multiplicity = 1
  Basis Set: AUG-CC-PVTZ
    Blend: AUG-CC-PVTZ
  Basis Set: (AUG-CC-PVTZ AUX)
    Blend: AUG-CC-PVTZ-JKFIT

    Orbital Energies [Eh]
    ---------------------

    Doubly Occupied:

       1A    -92.203619     2A    -92.015616     3A    -20.576015
       4A    -20.523793     5A    -15.605151     6A    -11.299818
       7A    -11.296183     8A    -11.277854     9A    -11.271005
      10A    -11.269797    11A    -11.265184    12A     -9.170635
      13A     -9.015579    14A     -6.856099    15A     -6.855203
      16A     -6.854521    17A     -6.696474    18A     -6.695889
      19A     -6.695165    20A     -1.503890    21A     -1.310153
      22A     -1.242906    23A     -1.201778    24A     -1.032289
      25A     -1.017184    26A     -0.980939    27A     -0.943482
      28A     -0.854368    29A     -0.787529    30A     -0.755826
      31A     -0.729687    32A     -0.714208    33A     -0.666622
      34A     -0.658852    35A     -0.635580    36A     -0.619049
      37A     -0.589347    38A     -0.586292    39A     -0.570828
      40A     -0.562503    41A     -0.551262    42A     -0.543076
      43A     -0.519667    44A     -0.509909    45A     -0.494485
      46A     -0.453528    47A     -0.444919    48A     -0.414407
      49A     -0.373146    50A     -0.353687

  @DF-RHF Final Energy: -1231.76039750693803

   => Energetics <=

    Nuclear Repulsion Energy =            893.0974188034351755
    One-Electron Energy =               -3469.5856390700341763
    Two-Electron Energy =                1344.7278227596609668
    Total Energy =                      -1231.7603975069380340
  Basis Set: (AUG-CC-PVTZ AUX)
    Blend: AUG-CC-PVTZ-RI
    Molecular point group: c1

    Geometry (in Angstrom), charge = 0, multiplicity = 1:

       Center              X                  Y                   Z               Mass
    ------------   -----------------  -----------------  -----------------  -----------------
         S            1.002935045216    -0.088574097427    -0.716844581290    31.972071174400
         S           -1.680202154784    -1.125217097427     0.067717418710    31.972071174400
         O            1.149843845216    -1.301307097427    -1.300632581290    15.994914619570
         O            1.401702845216     1.254509902573    -1.422194581290    15.994914619570
         N            1.894033845216     0.017210902573     0.708555418710    14.003074004430
         C           -0.670232154784     0.227950902573    -0.260078581290    12.000000000000
         C            1.886155845216     1.278997902573     1.452283418710    12.000000000000
         C            1.709106845216    -1.167888097427     1.550169418710    12.000000000000
         C           -1.318109154784     1.431414902573    -0.045692581290    12.000000000000
         C           -2.651559154784     1.239946902573     0.383257418710    12.000000000000
         C           -2.982575154784    -0.094675097427     0.497552418710    12.000000000000
         H            2.099915845216     2.099024902573     0.768018418710     1.007825032230
         H            2.681510845216     1.225493902573     2.198974418710     1.007825032230
         H            0.927434845216     1.455692902573     1.961555418710     1.007825032230
         H            1.745277845216    -2.059423097427     0.925700418710     1.007825032230
         H            0.763007845216    -1.140527097427     2.109532418710     1.007825032230
         H            2.539364845216    -1.199247097427     2.259513418710     1.007825032230
         H           -0.847523154784     2.389944902573    -0.237929581290     1.007825032230
         H           -3.348746154784     2.044502902573     0.592681418710     1.007825032230
         H           -3.934668154784    -0.523089097427     0.786501418710     1.007825032230

  Basis Set: AUG-CC-PVTZ
    Blend: AUG-CC-PVTZ
  Basis Set: (AUG-CC-PVTZ AUX)
    Blend: AUG-CC-PVTZ-JKFIT
	 Reference Energy          =   -1231.7603975069380340 [Eh]
	 Singles Energy            =      -0.0000000000000000 [Eh]
	 Same-Spin Energy          =      -0.5858895770018369 [Eh]
	 Opposite-Spin Energy      =      -1.7439637874429894 [Eh]
	 Correlation Energy        =      -2.3298533644448263 [Eh]
	 Total Energy              =   -1234.0902508713827501 [Eh]

	 ================> DF-SCS-MP2 Energies <==================
	-----------------------------------------------------------
	 SCS Same-Spin Scale       =       0.3333333333333333 [-]
	 SCS Opposite-Spin Scale   =       1.2000000000000000 [-]
	 SCS Same-Spin Energy      =      -0.1952965256672790 [Eh]
	 SCS Opposite-Spin Energy  =      -2.0927565449315870 [Eh]
	 SCS Correlation Energy    =      -2.2880530705988660 [Eh]
	 SCS Total Energy          =   -1234.0484505775368689 [Eh]
	-----------------------------------------------------------

  Dipole Moment: [D]
     X:    -2.7435      Y:    -0.1809      Z:     4.7929     Total:     5.5255

*** Psi4 exiting successfully. Buy a developer a beer!
