                               Psi4 1.3.2 release

  ==> Input File <==

--------------------------------------------------------------------------
#psi4
#
memory 32 gb

molecule  {
0 1
  S        1.0053540    -0.0074810    -0.7736030
  S       -1.6960990    -1.1658100     0.0116150
  O        1.1339470    -1.3419000    -1.3567350
  O        1.3858060     1.2139170    -1.4782970
  N        1.8781370    -0.0233820     0.6524530
  C       -0.4942465     0.1652554    -0.3680711
  C        1.8702590     1.2384050     1.3961810
  C        1.6932100    -1.2084810     1.4940670
  C       -1.3340060     1.3908220    -0.1017950
  C       -2.6674560     1.1993540     0.3271550
  C       -2.9984720    -0.1352680     0.4414500
  H        2.0840190     2.0584320     0.7119160
  H        2.6656140     1.1849010     2.1428720
  H        0.9115380     1.4151000     1.9054530
  H        1.7293810    -2.1000160     0.8695980
  H        0.7471110    -1.1811200     2.0534300
  H        2.5234680    -1.2398400     2.2034110
  H       -0.8634200     2.3493520    -0.2940320
  H       -3.3646430     2.0039100     0.5365790
  H       -3.9505650    -0.5636820     0.7303990
units angstrom
no_reorient  #important for SAPT in psi4, default
symmetry c1  #important for SAPT in psi4, default
}

set PROPERTIES_ORIGIN ["COM"]
properties('MP2/aug-cc-pvtz', properties = ['dipole'])
--------------------------------------------------------------------------

    Molecular point group: c1
  Charge       = 0
  Multiplicity = 1
  Basis Set: AUG-CC-PVTZ
    Blend: AUG-CC-PVTZ
  Basis Set: (AUG-CC-PVTZ AUX)
    Blend: AUG-CC-PVTZ-JKFIT

    Orbital Energies [Eh]
    ---------------------

    Doubly Occupied:

       1A    -92.194730     2A    -92.025171     3A    -20.540343
       4A    -20.539836     5A    -15.596874     6A    -11.316967
       7A    -11.309845     8A    -11.298778     9A    -11.274352
      10A    -11.267718    11A    -11.265835    12A     -9.162472
      13A     -9.022176    14A     -6.848150    15A     -6.847175
      16A     -6.846745    17A     -6.702846    18A     -6.702336
      19A     -6.701796    20A     -1.456316    21A     -1.333634
      22A     -1.246789    23A     -1.187127    24A     -1.062445
      25A     -1.011674    26A     -0.976702    27A     -0.943442
      28A     -0.879027    29A     -0.784759    30A     -0.750209
      31A     -0.723334    32A     -0.702262    33A     -0.659503
      34A     -0.658475    35A     -0.636112    36A     -0.614517
      37A     -0.599250    38A     -0.577087    39A     -0.568231
      40A     -0.556703    41A     -0.539821    42A     -0.536581
      43A     -0.506402    44A     -0.497048    45A     -0.478297
      46A     -0.470673    47A     -0.460534    48A     -0.419988
      49A     -0.374580    50A     -0.349399

  @DF-RHF Final Energy: -1231.73678438723982

   => Energetics <=

    Nuclear Repulsion Energy =            894.2636334510902998
    One-Electron Energy =               -3471.9507089948569956
    Two-Electron Energy =                1345.9502911565268732
    Total Energy =                      -1231.7367843872398225
  Basis Set: (AUG-CC-PVTZ AUX)
    Blend: AUG-CC-PVTZ-RI
    Molecular point group: c1

    Geometry (in Angstrom), charge = 0, multiplicity = 1:

       Center              X                  Y                   Z               Mass
    ------------   -----------------  -----------------  -----------------  -----------------
         S            1.006130054140     0.014131900188    -0.714130792267    31.972071174400
         S           -1.695322945860    -1.144197099812     0.071087207733    31.972071174400
         O            1.134723054140    -1.320287099812    -1.297262792267    15.994914619570
         O            1.386582054140     1.235529900188    -1.418824792267    15.994914619570
         N            1.878913054140    -0.001769099812     0.711925207733    14.003074004430
         C           -0.493470445860     0.186868300188    -0.308598892267    12.000000000000
         C            1.871035054140     1.260017900188     1.455653207733    12.000000000000
         C            1.693986054140    -1.186868099812     1.553539207733    12.000000000000
         C           -1.333229945860     1.412434900188    -0.042322792267    12.000000000000
         C           -2.666679945860     1.220966900188     0.386627207733    12.000000000000
         C           -2.997695945860    -0.113655099812     0.500922207733    12.000000000000
         H            2.084795054140     2.080044900188     0.771388207733     1.007825032230
         H            2.666390054140     1.206513900188     2.202344207733     1.007825032230
         H            0.912314054140     1.436712900188     1.964925207733     1.007825032230
         H            1.730157054140    -2.078403099812     0.929070207733     1.007825032230
         H            0.747887054140    -1.159507099812     2.112902207733     1.007825032230
         H            2.524244054140    -1.218227099812     2.262883207733     1.007825032230
         H           -0.862643945860     2.370964900188    -0.234559792267     1.007825032230
         H           -3.363866945860     2.025522900188     0.596051207733     1.007825032230
         H           -3.949788945860    -0.542069099812     0.789871207733     1.007825032230

  Basis Set: AUG-CC-PVTZ
    Blend: AUG-CC-PVTZ
  Basis Set: (AUG-CC-PVTZ AUX)
    Blend: AUG-CC-PVTZ-JKFIT
	 Reference Energy          =   -1231.7367843872398225 [Eh]
	 Singles Energy            =      -0.0000000000000000 [Eh]
	 Same-Spin Energy          =      -0.5897616666851643 [Eh]
	 Opposite-Spin Energy      =      -1.7496280971619675 [Eh]
	 Correlation Energy        =      -2.3393897638471319 [Eh]
	 Total Energy              =   -1234.0761741510868887 [Eh]

	 ================> DF-SCS-MP2 Energies <==================
	-----------------------------------------------------------
	 SCS Same-Spin Scale       =       0.3333333333333333 [-]
	 SCS Opposite-Spin Scale   =       1.2000000000000000 [-]
	 SCS Same-Spin Energy      =      -0.1965872222283881 [Eh]
	 SCS Opposite-Spin Energy  =      -2.0995537165943610 [Eh]
	 SCS Correlation Energy    =      -2.2961409388227492 [Eh]
	 SCS Total Energy          =   -1234.0329253260624682 [Eh]
	-----------------------------------------------------------

  Dipole Moment: [D]
     X:    -3.1446      Y:     0.8372      Z:     4.8925     Total:     5.8759

*** Psi4 exiting successfully. Buy a developer a beer!
