                               Psi4 1.3.2 release

  ==> Input File <==

--------------------------------------------------------------------------
#psi4
#
memory 32 gb

molecule  {
0 1
  S        1.0053540    -0.0074810    -0.7736030
  S       -1.6960990    -1.1658100     0.0116150
  O        1.1339470    -1.3419000    -1.3567350
  O        1.3858060     1.2139170    -1.4782970
  N        1.8781370    -0.0233820     0.6524530
  C       -0.8259770     0.2909361    -0.2700438
  C        1.8702590     1.2384050     1.3961810
  C        1.6932100    -1.2084810     1.4940670
  C       -1.3340060     1.3908220    -0.1017950
  C       -2.6674560     1.1993540     0.3271550
  C       -2.9984720    -0.1352680     0.4414500
  H        2.0840190     2.0584320     0.7119160
  H        2.6656140     1.1849010     2.1428720
  H        0.9115380     1.4151000     1.9054530
  H        1.7293810    -2.1000160     0.8695980
  H        0.7471110    -1.1811200     2.0534300
  H        2.5234680    -1.2398400     2.2034110
  H       -0.8634200     2.3493520    -0.2940320
  H       -3.3646430     2.0039100     0.5365790
  H       -3.9505650    -0.5636820     0.7303990
units angstrom
no_reorient  #important for SAPT in psi4, default
symmetry c1  #important for SAPT in psi4, default
}

set PROPERTIES_ORIGIN ["COM"]
properties('MP2/aug-cc-pvtz', properties = ['dipole'])
--------------------------------------------------------------------------

    Molecular point group: c1
  Charge       = 0
  Multiplicity = 1
  Basis Set: AUG-CC-PVTZ
    Blend: AUG-CC-PVTZ
  Basis Set: (AUG-CC-PVTZ AUX)
    Blend: AUG-CC-PVTZ-JKFIT

    Orbital Energies [Eh]
    ---------------------

    Doubly Occupied:

       1A    -92.206453     2A    -92.008181     3A    -20.555673
       4A    -20.548645     5A    -15.608823     6A    -11.292099
       7A    -11.287269     8A    -11.273691     9A    -11.271712
      10A    -11.260941    11A    -11.249246    12A     -9.170364
      13A     -9.008741    14A     -6.855342    15A     -6.854883
      16A     -6.854638    17A     -6.689658    18A     -6.688925
      19A     -6.688053    20A     -1.453368    21A     -1.340545
      22A     -1.253834    23A     -1.224391    24A     -1.041440
      25A     -1.008926    26A     -0.983075    27A     -0.945842
      28A     -0.832030    29A     -0.795269    30A     -0.752076
      31A     -0.732085    32A     -0.702946    33A     -0.662224
      34A     -0.657606    35A     -0.622352    36A     -0.615666
      37A     -0.586995    38A     -0.580244    39A     -0.573040
      40A     -0.568214    41A     -0.563533    42A     -0.543358
      43A     -0.518008    44A     -0.501981    45A     -0.497803
      46A     -0.474737    47A     -0.451960    48A     -0.408470
      49A     -0.387077    50A     -0.354544

  @DF-RHF Final Energy: -1231.75361454811741

   => Energetics <=

    Nuclear Repulsion Energy =            891.4139087510347963
    One-Electron Energy =               -3466.3210996088737375
    Two-Electron Energy =                1343.1535763097215295
    Total Energy =                      -1231.7536145481174117
  Basis Set: (AUG-CC-PVTZ AUX)
    Blend: AUG-CC-PVTZ-RI
    Molecular point group: c1

    Geometry (in Angstrom), charge = 0, multiplicity = 1:

       Center              X                  Y                   Z               Mass
    ------------   -----------------  -----------------  -----------------  -----------------
         S            1.026970945764     0.006236039398    -0.720289334624    31.972071174400
         S           -1.674482054236    -1.152092960602     0.064928665376    31.972071174400
         O            1.155563945764    -1.328182960602    -1.303421334624    15.994914619570
         O            1.407422945764     1.227634039398    -1.424983334624    15.994914619570
         N            1.899753945764    -0.009664960602     0.705766665376    14.003074004430
         C           -0.804360054236     0.304653139398    -0.216730134624    12.000000000000
         C            1.891875945764     1.252122039398     1.449494665376    12.000000000000
         C            1.714826945764    -1.194763960602     1.547380665376    12.000000000000
         C           -1.312389054236     1.404539039398    -0.048481334624    12.000000000000
         C           -2.645839054236     1.213071039398     0.380468665376    12.000000000000
         C           -2.976855054236    -0.121550960602     0.494763665376    12.000000000000
         H            2.105635945764     2.072149039398     0.765229665376     1.007825032230
         H            2.687230945764     1.198618039398     2.196185665376     1.007825032230
         H            0.933154945764     1.428817039398     1.958766665376     1.007825032230
         H            1.750997945764    -2.086298960602     0.922911665376     1.007825032230
         H            0.768727945764    -1.167402960602     2.106743665376     1.007825032230
         H            2.545084945764    -1.226122960602     2.256724665376     1.007825032230
         H           -0.841803054236     2.363069039398    -0.240718334624     1.007825032230
         H           -3.343026054236     2.017627039398     0.589892665376     1.007825032230
         H           -3.928948054236    -0.549964960602     0.783712665376     1.007825032230

  Basis Set: AUG-CC-PVTZ
    Blend: AUG-CC-PVTZ
  Basis Set: (AUG-CC-PVTZ AUX)
    Blend: AUG-CC-PVTZ-JKFIT
	 Reference Energy          =   -1231.7536145481174117 [Eh]
	 Singles Energy            =      -0.0000000000000000 [Eh]
	 Same-Spin Energy          =      -0.5841817440760344 [Eh]
	 Opposite-Spin Energy      =      -1.7430271333629075 [Eh]
	 Correlation Energy        =      -2.3272088774389417 [Eh]
	 Total Energy              =   -1234.0808234255564457 [Eh]

	 ================> DF-SCS-MP2 Energies <==================
	-----------------------------------------------------------
	 SCS Same-Spin Scale       =       0.3333333333333333 [-]
	 SCS Opposite-Spin Scale   =       1.2000000000000000 [-]
	 SCS Same-Spin Energy      =      -0.1947272480253448 [Eh]
	 SCS Opposite-Spin Energy  =      -2.0916325600354888 [Eh]
	 SCS Correlation Energy    =      -2.2863598080608334 [Eh]
	 SCS Total Energy          =   -1234.0399743561781634 [Eh]
	-----------------------------------------------------------

  Dipole Moment: [D]
     X:    -2.1879      Y:     0.7487      Z:     4.6774     Total:     5.2178

*** Psi4 exiting successfully. Buy a developer a beer!
