                               Psi4 1.3.2 release

  ==> Input File <==

--------------------------------------------------------------------------
#psi4
#
memory 32 gb

molecule  {
0 1
  S        1.0053540    -0.0074810    -0.7736030
  S       -1.6960990    -1.1658100     0.0116150
  O        1.0960012    -1.3796245    -1.2698474
  O        1.3858060     1.2139170    -1.4782970
  N        1.8781370    -0.0233820     0.6524530
  C       -0.6861290     0.1873580    -0.3161810
  C        1.8702590     1.2384050     1.3961810
  C        1.6932100    -1.2084810     1.4940670
  C       -1.3340060     1.3908220    -0.1017950
  C       -2.6674560     1.1993540     0.3271550
  C       -2.9984720    -0.1352680     0.4414500
  H        2.0840190     2.0584320     0.7119160
  H        2.6656140     1.1849010     2.1428720
  H        0.9115380     1.4151000     1.9054530
  H        1.7293810    -2.1000160     0.8695980
  H        0.7471110    -1.1811200     2.0534300
  H        2.5234680    -1.2398400     2.2034110
  H       -0.8634200     2.3493520    -0.2940320
  H       -3.3646430     2.0039100     0.5365790
  H       -3.9505650    -0.5636820     0.7303990
units angstrom
no_reorient  #important for SAPT in psi4, default
symmetry c1  #important for SAPT in psi4, default
}

set PROPERTIES_ORIGIN ["COM"]
properties('MP2/aug-cc-pvtz', properties = ['dipole'])
--------------------------------------------------------------------------

    Molecular point group: c1
  Charge       = 0
  Multiplicity = 1
  Basis Set: AUG-CC-PVTZ
    Blend: AUG-CC-PVTZ
  Basis Set: (AUG-CC-PVTZ AUX)
    Blend: AUG-CC-PVTZ-JKFIT

    Orbital Energies [Eh]
    ---------------------

    Doubly Occupied:

       1A    -92.209603     2A    -92.014623     3A    -20.555627
       4A    -20.550443     5A    -15.604509     6A    -11.296576
       7A    -11.294171     8A    -11.275483     9A    -11.270774
      10A    -11.268208    11A    -11.262937    12A     -9.173617
      13A     -9.014087    14A     -6.858755    15A     -6.858551
      16A     -6.858034    17A     -6.694911    18A     -6.694387
      19A     -6.693627    20A     -1.457876    21A     -1.345987
      22A     -1.250246    23A     -1.199738    24A     -1.029548
      25A     -1.015752    26A     -0.979924    27A     -0.944700
      28A     -0.852395    29A     -0.785153    30A     -0.752937
      31A     -0.727001    32A     -0.705672    33A     -0.663283
      34A     -0.657380    35A     -0.626795    36A     -0.617792
      37A     -0.587298    38A     -0.577409    39A     -0.570862
      40A     -0.563642    41A     -0.548035    42A     -0.540519
      43A     -0.509028    44A     -0.501768    45A     -0.500410
      46A     -0.477223    47A     -0.467126    48A     -0.415681
      49A     -0.370969    50A     -0.352695

  @DF-RHF Final Energy: -1231.78686107686690

   => Energetics <=

    Nuclear Repulsion Energy =            893.6014596234208511
    One-Electron Energy =               -3470.6891078512530839
    Two-Electron Energy =                1345.3007871509653341
    Total Energy =                      -1231.7868610768668987
  Basis Set: (AUG-CC-PVTZ AUX)
    Blend: AUG-CC-PVTZ-RI
    Molecular point group: c1

    Geometry (in Angstrom), charge = 0, multiplicity = 1:

       Center              X                  Y                   Z               Mass
    ------------   -----------------  -----------------  -----------------  -----------------
         S            1.021362598803     0.015902349035    -0.724666720177    31.972071174400
         S           -1.680090401197    -1.142426650965     0.060551279823    31.972071174400
         O            1.112009798803    -1.356241150965    -1.220911120177    15.994914619570
         O            1.401814598803     1.237300349035    -1.429360720177    15.994914619570
         N            1.894145598803     0.000001349035     0.701389279823    14.003074004430
         C           -0.670120401197     0.210741349035    -0.267244720177    12.000000000000
         C            1.886267598803     1.261788349035     1.445117279823    12.000000000000
         C            1.709218598803    -1.185097650965     1.543003279823    12.000000000000
         C           -1.317997401197     1.414205349035    -0.052858720177    12.000000000000
         C           -2.651447401197     1.222737349035     0.376091279823    12.000000000000
         C           -2.982463401197    -0.111884650965     0.490386279823    12.000000000000
         H            2.100027598803     2.081815349035     0.760852279823     1.007825032230
         H            2.681622598803     1.208284349035     2.191808279823     1.007825032230
         H            0.927546598803     1.438483349035     1.954389279823     1.007825032230
         H            1.745389598803    -2.076632650965     0.918534279823     1.007825032230
         H            0.763119598803    -1.157736650965     2.102366279823     1.007825032230
         H            2.539476598803    -1.216456650965     2.252347279823     1.007825032230
         H           -0.847411401197     2.372735349035    -0.245095720177     1.007825032230
         H           -3.348634401197     2.027293349035     0.585515279823     1.007825032230
         H           -3.934556401197    -0.540298650965     0.779335279823     1.007825032230

  Basis Set: AUG-CC-PVTZ
    Blend: AUG-CC-PVTZ
  Basis Set: (AUG-CC-PVTZ AUX)
    Blend: AUG-CC-PVTZ-JKFIT
	 Reference Energy          =   -1231.7868610768668987 [Eh]
	 Singles Energy            =      -0.0000000000000000 [Eh]
	 Same-Spin Energy          =      -0.5865953165132940 [Eh]
	 Opposite-Spin Energy      =      -1.7447795746227039 [Eh]
	 Correlation Energy        =      -2.3313748911359982 [Eh]
	 Total Energy              =   -1234.1182359680028640 [Eh]

	 ================> DF-SCS-MP2 Energies <==================
	-----------------------------------------------------------
	 SCS Same-Spin Scale       =       0.3333333333333333 [-]
	 SCS Opposite-Spin Scale   =       1.2000000000000000 [-]
	 SCS Same-Spin Energy      =      -0.1955317721710980 [Eh]
	 SCS Opposite-Spin Energy  =      -2.0937354895472446 [Eh]
	 SCS Correlation Energy    =      -2.2892672617183427 [Eh]
	 SCS Total Energy          =   -1234.0761283385852494 [Eh]
	-----------------------------------------------------------

  Dipole Moment: [D]
     X:    -2.4493      Y:     0.8220      Z:     4.5333     Total:     5.2178

*** Psi4 exiting successfully. Buy a developer a beer!
