                               Psi4 1.3.2 release

  ==> Input File <==

--------------------------------------------------------------------------
#psi4
#
memory 32 gb

molecule  {
0 1
  S        1.0053540    -0.0074810    -0.7736030
  S       -1.6960990    -1.1658100     0.0116150
  O        1.1339470    -1.3419000    -1.3567350
  O        1.3858060     1.2139170    -1.4782970
  N        1.8781370    -0.0233820     0.6524530
  C       -0.6861290     0.1873580    -0.3161810
  C        1.8702590     1.2384050     1.3961810
  C        1.6932100    -1.2084810     1.4940670
  C       -1.3340060     1.3908220    -0.1017950
  C       -2.6674560     1.1993540     0.3271550
  C       -2.9984720    -0.1352680     0.4414500
  H        2.0840190     2.0584320     0.7119160
  H        2.6656140     1.1849010     2.1428720
  H        0.9115380     1.4151000     1.9054530
  H        1.7293810    -2.1000160     0.8695980
  H        0.7471110    -1.1811200     2.0534300
  H        2.5234680    -1.2398400     2.2034110
  H       -0.8634200     2.3493520    -0.2940320
  H       -3.3646430     2.0039100     0.5365790
  H       -3.9505650    -0.5636820     0.7303990
units angstrom
no_reorient  #important for SAPT in psi4, default
symmetry c1  #important for SAPT in psi4, default
}

set PROPERTIES_ORIGIN ["COM"]
properties('MP2/aug-cc-pvtz', properties = ['dipole'])
--------------------------------------------------------------------------

    Molecular point group: c1
  Charge       = 0
  Multiplicity = 1
  Basis Set: AUG-CC-PVTZ
    Blend: AUG-CC-PVTZ
  Basis Set: (AUG-CC-PVTZ AUX)
    Blend: AUG-CC-PVTZ-JKFIT

    Orbital Energies [Eh]
    ---------------------

    Doubly Occupied:

       1A    -92.208301     2A    -92.016048     3A    -20.549798
       4A    -20.549349     5A    -15.606544     6A    -11.298633
       7A    -11.295550     8A    -11.277042     9A    -11.272084
      10A    -11.270726    11A    -11.264229    12A     -9.172459
      13A     -9.015559    14A     -6.857577    15A     -6.857307
      16A     -6.856937    17A     -6.696396    18A     -6.695868
      19A     -6.695108    20A     -1.455811    21A     -1.339961
      22A     -1.252842    23A     -1.201242    24A     -1.031448
      25A     -1.017178    26A     -0.981739    27A     -0.946160
      28A     -0.853396    29A     -0.786508    30A     -0.753543
      31A     -0.727526    32A     -0.703868    33A     -0.662071
      34A     -0.658783    35A     -0.627830    36A     -0.616235
      37A     -0.588311    38A     -0.579348    39A     -0.572167
      40A     -0.564029    41A     -0.549622    42A     -0.541912
      43A     -0.509548    44A     -0.501012    45A     -0.497525
      46A     -0.473098    47A     -0.467971    48A     -0.417507
      49A     -0.372344    50A     -0.354014

  @DF-RHF Final Energy: -1231.78929263424970

   => Energetics <=

    Nuclear Repulsion Energy =            892.4642181006566943
    One-Electron Energy =               -3468.3868891292722765
    Two-Electron Energy =                1344.1333783943659910
    Total Energy =                      -1231.7892926342497049
  Basis Set: (AUG-CC-PVTZ AUX)
    Blend: AUG-CC-PVTZ-RI
    Molecular point group: c1

    Geometry (in Angstrom), charge = 0, multiplicity = 1:

       Center              X                  Y                   Z               Mass
    ------------   -----------------  -----------------  -----------------  -----------------
         S            1.018185027641     0.012743309476    -0.717390775749    31.972071174400
         S           -1.683267972359    -1.145585690524     0.067827224251    31.972071174400
         O            1.146778027641    -1.321675690524    -1.300522775749    15.994914619570
         O            1.398637027641     1.234141309476    -1.422084775749    15.994914619570
         N            1.890968027641    -0.003157690524     0.708665224251    14.003074004430
         C           -0.673297972359     0.207582309476    -0.259968775749    12.000000000000
         C            1.883090027641     1.258629309476     1.452393224251    12.000000000000
         C            1.706041027641    -1.188256690524     1.550279224251    12.000000000000
         C           -1.321174972359     1.411046309476    -0.045582775749    12.000000000000
         C           -2.654624972359     1.219578309476     0.383367224251    12.000000000000
         C           -2.985640972359    -0.115043690524     0.497662224251    12.000000000000
         H            2.096850027641     2.078656309476     0.768128224251     1.007825032230
         H            2.678445027641     1.205125309476     2.199084224251     1.007825032230
         H            0.924369027641     1.435324309476     1.961665224251     1.007825032230
         H            1.742212027641    -2.079791690524     0.925810224251     1.007825032230
         H            0.759942027641    -1.160895690524     2.109642224251     1.007825032230
         H            2.536299027641    -1.219615690524     2.259623224251     1.007825032230
         H           -0.850588972359     2.369576309476    -0.237819775749     1.007825032230
         H           -3.351811972359     2.024134309476     0.592791224251     1.007825032230
         H           -3.937733972359    -0.543457690524     0.786611224251     1.007825032230

  Basis Set: AUG-CC-PVTZ
    Blend: AUG-CC-PVTZ
  Basis Set: (AUG-CC-PVTZ AUX)
    Blend: AUG-CC-PVTZ-JKFIT
	 Reference Energy          =   -1231.7892926342497049 [Eh]
	 Singles Energy            =      -0.0000000000000000 [Eh]
	 Same-Spin Energy          =      -0.5861473912664756 [Eh]
	 Opposite-Spin Energy      =      -1.7440342768996113 [Eh]
	 Correlation Energy        =      -2.3301816681660870 [Eh]
	 Total Energy              =   -1234.1194743024157106 [Eh]

	 ================> DF-SCS-MP2 Energies <==================
	-----------------------------------------------------------
	 SCS Same-Spin Scale       =       0.3333333333333333 [-]
	 SCS Opposite-Spin Scale   =       1.2000000000000000 [-]
	 SCS Same-Spin Energy      =      -0.1953824637554919 [Eh]
	 SCS Opposite-Spin Energy  =      -2.0928411322795335 [Eh]
	 SCS Correlation Energy    =      -2.2882235960350252 [Eh]
	 SCS Total Energy          =   -1234.0775162302848003 [Eh]
	-----------------------------------------------------------

  Dipole Moment: [D]
     X:    -2.5693      Y:     0.7496      Z:     4.7695     Total:     5.4691

*** Psi4 exiting successfully. Buy a developer a beer!
