                               Psi4 1.3.2 release

  ==> Input File <==

--------------------------------------------------------------------------
#psi4
#
memory 32 gb

molecule  {
0 1
  S        1.0053540    -0.0074810    -0.7736030
  S       -1.6960990    -1.1658100     0.0116150
  O        1.1339470    -1.3419000    -1.3567350
  O        1.3858060     1.2139170    -1.4782970
  N        1.8781370    -0.0233820     0.6524530
  C       -0.7782238     0.2581309    -0.2857915
  C        1.8702590     1.2384050     1.3961810
  C        1.6932100    -1.2084810     1.4940670
  C       -1.3340060     1.3908220    -0.1017950
  C       -2.6674560     1.1993540     0.3271550
  C       -2.9984720    -0.1352680     0.4414500
  H        2.0840190     2.0584320     0.7119160
  H        2.6656140     1.1849010     2.1428720
  H        0.9115380     1.4151000     1.9054530
  H        1.7293810    -2.1000160     0.8695980
  H        0.7471110    -1.1811200     2.0534300
  H        2.5234680    -1.2398400     2.2034110
  H       -0.8634200     2.3493520    -0.2940320
  H       -3.3646430     2.0039100     0.5365790
  H       -3.9505650    -0.5636820     0.7303990
units angstrom
no_reorient  #important for SAPT in psi4, default
symmetry c1  #important for SAPT in psi4, default
}

set PROPERTIES_ORIGIN ["COM"]
properties('MP2/aug-cc-pvtz', properties = ['dipole'])
--------------------------------------------------------------------------

    Molecular point group: c1
  Charge       = 0
  Multiplicity = 1
  Basis Set: AUG-CC-PVTZ
    Blend: AUG-CC-PVTZ
  Basis Set: (AUG-CC-PVTZ AUX)
    Blend: AUG-CC-PVTZ-JKFIT

    Orbital Energies [Eh]
    ---------------------

    Doubly Occupied:

       1A    -92.208536     2A    -92.010062     3A    -20.554672
       4A    -20.549402     5A    -15.608712     6A    -11.294440
       7A    -11.289318     8A    -11.273430     9A    -11.271700
      10A    -11.261307    11A    -11.258122    12A     -9.172321
      13A     -9.010333    14A     -6.857364    15A     -6.856943
      16A     -6.856694    17A     -6.691232    18A     -6.690560
      19A     -6.689728    20A     -1.454711    21A     -1.341015
      22A     -1.254002    23A     -1.214879    24A     -1.033868
      25A     -1.013943    26A     -0.982969    27A     -0.946469
      28A     -0.839002    29A     -0.792229    30A     -0.752377
      31A     -0.731157    32A     -0.703676    33A     -0.662630
      34A     -0.658077    35A     -0.623702    36A     -0.616252
      37A     -0.586650    38A     -0.579993    39A     -0.572925
      40A     -0.566465    41A     -0.557783    42A     -0.543228
      43A     -0.515207    44A     -0.502230    45A     -0.498628
      46A     -0.474850    47A     -0.458342    48A     -0.413055
      49A     -0.380044    50A     -0.355478

  @DF-RHF Final Energy: -1231.77582245292979

   => Energetics <=

    Nuclear Repulsion Energy =            891.6871534046161969
    One-Electron Energy =               -3466.8645257923599274
    Two-Electron Energy =                1343.4015499348138292
    Total Energy =                      -1231.7758224529297877
  Basis Set: (AUG-CC-PVTZ AUX)
    Blend: AUG-CC-PVTZ-RI
    Molecular point group: c1

    Geometry (in Angstrom), charge = 0, multiplicity = 1:

       Center              X                  Y                   Z               Mass
    ------------   -----------------  -----------------  -----------------  -----------------
         S            1.023970862063     0.008297018469    -0.719299989029    31.972071174400
         S           -1.677482137937    -1.150031981531     0.065918010971    31.972071174400
         O            1.152563862063    -1.326121981531    -1.302431989029    15.994914619570
         O            1.404422862063     1.229695018469    -1.423993989029    15.994914619570
         N            1.896753862063    -0.007603981531     0.706756010971    14.003074004430
         C           -0.759606937937     0.273908918469    -0.231488489029    12.000000000000
         C            1.888875862063     1.254183018469     1.450484010971    12.000000000000
         C            1.711826862063    -1.192702981531     1.548370010971    12.000000000000
         C           -1.315389137937     1.406600018469    -0.047491989029    12.000000000000
         C           -2.648839137937     1.215132018469     0.381458010971    12.000000000000
         C           -2.979855137937    -0.119489981531     0.495753010971    12.000000000000
         H            2.102635862063     2.074210018469     0.766219010971     1.007825032230
         H            2.684230862063     1.200679018469     2.197175010971     1.007825032230
         H            0.930154862063     1.430878018469     1.959756010971     1.007825032230
         H            1.747997862063    -2.084237981531     0.923901010971     1.007825032230
         H            0.765727862063    -1.165341981531     2.107733010971     1.007825032230
         H            2.542084862063    -1.224061981531     2.257714010971     1.007825032230
         H           -0.844803137937     2.365130018469    -0.239728989029     1.007825032230
         H           -3.346026137937     2.019688018469     0.590882010971     1.007825032230
         H           -3.931948137937    -0.547903981531     0.784702010971     1.007825032230

  Basis Set: AUG-CC-PVTZ
    Blend: AUG-CC-PVTZ
  Basis Set: (AUG-CC-PVTZ AUX)
    Blend: AUG-CC-PVTZ-JKFIT
	 Reference Energy          =   -1231.7758224529297877 [Eh]
	 Singles Energy            =      -0.0000000000000000 [Eh]
	 Same-Spin Energy          =      -0.5845219840757948 [Eh]
	 Opposite-Spin Energy      =      -1.7428780456961293 [Eh]
	 Correlation Energy        =      -2.3274000297719240 [Eh]
	 Total Energy              =   -1234.1032224827017671 [Eh]

	 ================> DF-SCS-MP2 Energies <==================
	-----------------------------------------------------------
	 SCS Same-Spin Scale       =       0.3333333333333333 [-]
	 SCS Opposite-Spin Scale   =       1.2000000000000000 [-]
	 SCS Same-Spin Energy      =      -0.1948406613585983 [Eh]
	 SCS Opposite-Spin Energy  =      -2.0914536548353548 [Eh]
	 SCS Correlation Energy    =      -2.2862943161939531 [Eh]
	 SCS Total Energy          =   -1234.0621167691238043 [Eh]
	-----------------------------------------------------------

  Dipole Moment: [D]
     X:    -2.2816      Y:     0.7392      Z:     4.7027     Total:     5.2789

*** Psi4 exiting successfully. Buy a developer a beer!
