                               Psi4 1.3.2 release

  ==> Input File <==

--------------------------------------------------------------------------
#psi4
#
memory 32 gb

molecule  {
0 1
  S        1.0053540    -0.0074810    -0.7736030
  S       -1.6960990    -1.1658100     0.0116150
  O        1.1339470    -1.3419000    -1.3567350
  O        1.3858060     1.2139170    -1.4782970
  N        1.8532887    -0.0201009     0.6673988
  C       -0.6861290     0.1873580    -0.3161810
  C        1.8702590     1.2384050     1.3961810
  C        1.6932100    -1.2084810     1.4940670
  C       -1.3340060     1.3908220    -0.1017950
  C       -2.6674560     1.1993540     0.3271550
  C       -2.9984720    -0.1352680     0.4414500
  H        2.0840190     2.0584320     0.7119160
  H        2.6656140     1.1849010     2.1428720
  H        0.9115380     1.4151000     1.9054530
  H        1.7293810    -2.1000160     0.8695980
  H        0.7471110    -1.1811200     2.0534300
  H        2.5234680    -1.2398400     2.2034110
  H       -0.8634200     2.3493520    -0.2940320
  H       -3.3646430     2.0039100     0.5365790
  H       -3.9505650    -0.5636820     0.7303990
units angstrom
no_reorient  #important for SAPT in psi4, default
symmetry c1  #important for SAPT in psi4, default
}

set PROPERTIES_ORIGIN ["COM"]
properties('MP2/aug-cc-pvtz', properties = ['dipole'])
--------------------------------------------------------------------------

    Molecular point group: c1
  Charge       = 0
  Multiplicity = 1
  Basis Set: AUG-CC-PVTZ
    Blend: AUG-CC-PVTZ
  Basis Set: (AUG-CC-PVTZ AUX)
    Blend: AUG-CC-PVTZ-JKFIT

    Orbital Energies [Eh]
    ---------------------

    Doubly Occupied:

       1A    -92.209314     2A    -92.015538     3A    -20.550961
       4A    -20.550468     5A    -15.604731     6A    -11.298023
       7A    -11.294820     8A    -11.276266     9A    -11.271579
      10A    -11.270385    11A    -11.263752    12A     -9.173315
      13A     -9.015057    14A     -6.858457    15A     -6.858158
      16A     -6.857827    17A     -6.695898    18A     -6.695369
      19A     -6.694608    20A     -1.456519    21A     -1.340828
      22A     -1.256028    23A     -1.200700    24A     -1.031358
      25A     -1.016655    26A     -0.983898    27A     -0.946605
      28A     -0.852081    29A     -0.785992    30A     -0.753833
      31A     -0.727647    32A     -0.705202    33A     -0.663308
      34A     -0.660344    35A     -0.628022    36A     -0.617058
      37A     -0.587806    38A     -0.579607    39A     -0.572057
      40A     -0.563607    41A     -0.549027    42A     -0.545438
      43A     -0.510008    44A     -0.501352    45A     -0.498248
      46A     -0.474015    47A     -0.468177    48A     -0.414315
      49A     -0.371886    50A     -0.352951

  @DF-RHF Final Energy: -1231.78931166106031

   => Energetics <=

    Nuclear Repulsion Energy =            892.8693521682201890
    One-Electron Energy =               -3469.1791323778070364
    Two-Electron Energy =                1344.5204685485264235
    Total Energy =                      -1231.7893116610603101
  Basis Set: (AUG-CC-PVTZ AUX)
    Blend: AUG-CC-PVTZ-RI
    Molecular point group: c1

    Geometry (in Angstrom), charge = 0, multiplicity = 1:

       Center              X                  Y                   Z               Mass
    ------------   -----------------  -----------------  -----------------  -----------------
         S            1.020006697663     0.012502766601    -0.718486477097    31.972071174400
         S           -1.681446302337    -1.145826233399     0.066731522903    31.972071174400
         O            1.148599697663    -1.321916233399    -1.301618477097    15.994914619570
         O            1.400458697663     1.233900766601    -1.423180477097    15.994914619570
         N            1.867941397663    -0.000117133399     0.722515322903    14.003074004430
         C           -0.671476302337     0.207341766601    -0.261064477097    12.000000000000
         C            1.884911697663     1.258388766601     1.451297522903    12.000000000000
         C            1.707862697663    -1.188497233399     1.549183522903    12.000000000000
         C           -1.319353302337     1.410805766601    -0.046678477097    12.000000000000
         C           -2.652803302337     1.219337766601     0.382271522903    12.000000000000
         C           -2.983819302337    -0.115284233399     0.496566522903    12.000000000000
         H            2.098671697663     2.078415766601     0.767032522903     1.007825032230
         H            2.680266697663     1.204884766601     2.197988522903     1.007825032230
         H            0.926190697663     1.435083766601     1.960569522903     1.007825032230
         H            1.744033697663    -2.080032233399     0.924714522903     1.007825032230
         H            0.761763697663    -1.161136233399     2.108546522903     1.007825032230
         H            2.538120697663    -1.219856233399     2.258527522903     1.007825032230
         H           -0.848767302337     2.369335766601    -0.238915477097     1.007825032230
         H           -3.349990302337     2.023893766601     0.591695522903     1.007825032230
         H           -3.935912302337    -0.543698233399     0.785515522903     1.007825032230

  Basis Set: AUG-CC-PVTZ
    Blend: AUG-CC-PVTZ
  Basis Set: (AUG-CC-PVTZ AUX)
    Blend: AUG-CC-PVTZ-JKFIT
	 Reference Energy          =   -1231.7893116610603101 [Eh]
	 Singles Energy            =      -0.0000000000000000 [Eh]
	 Same-Spin Energy          =      -0.5862130835321819 [Eh]
	 Opposite-Spin Energy      =      -1.7438908547002494 [Eh]
	 Correlation Energy        =      -2.3301039382324316 [Eh]
	 Total Energy              =   -1234.1194155992927790 [Eh]

	 ================> DF-SCS-MP2 Energies <==================
	-----------------------------------------------------------
	 SCS Same-Spin Scale       =       0.3333333333333333 [-]
	 SCS Opposite-Spin Scale   =       1.2000000000000000 [-]
	 SCS Same-Spin Energy      =      -0.1954043611773940 [Eh]
	 SCS Opposite-Spin Energy  =      -2.0926690256402991 [Eh]
	 SCS Correlation Energy    =      -2.2880733868176932 [Eh]
	 SCS Total Energy          =   -1234.0773850478778968 [Eh]
	-----------------------------------------------------------

  Dipole Moment: [D]
     X:    -2.4780      Y:     0.7382      Z:     4.7175     Total:     5.3796

*** Psi4 exiting successfully. Buy a developer a beer!
