                               Psi4 1.3.2 release

  ==> Input File <==

--------------------------------------------------------------------------
#psi4
#
memory 32 gb

molecule  {
0 1
  S        1.0053540    -0.0074810    -0.7736030
  S       -1.6960990    -1.1658100     0.0116150
  O        1.1339470    -1.3419000    -1.3567350
  O        1.3858060     1.2139170    -1.4782970
  N        1.8781370    -0.0233820     0.6524530
  C       -0.6861290     0.1873580    -0.3161810
  C        1.8702590     1.2384050     1.3961810
  C        1.6932100    -1.2084810     1.4940670
  C       -1.3340060     1.3908220    -0.1017950
  C       -2.6674560     1.1993540     0.3271550
  C       -3.0743899    -0.0751957     0.4665059
  H        2.0840190     2.0584320     0.7119160
  H        2.6656140     1.1849010     2.1428720
  H        0.9115380     1.4151000     1.9054530
  H        1.7293810    -2.1000160     0.8695980
  H        0.7471110    -1.1811200     2.0534300
  H        2.5234680    -1.2398400     2.2034110
  H       -0.8634200     2.3493520    -0.2940320
  H       -3.3646430     2.0039100     0.5365790
  H       -3.9505650    -0.5636820     0.7303990
units angstrom
no_reorient  #important for SAPT in psi4, default
symmetry c1  #important for SAPT in psi4, default
}

set PROPERTIES_ORIGIN ["COM"]
properties('MP2/aug-cc-pvtz', properties = ['dipole'])
--------------------------------------------------------------------------

    Molecular point group: c1
  Charge       = 0
  Multiplicity = 1
  Basis Set: AUG-CC-PVTZ
    Blend: AUG-CC-PVTZ
  Basis Set: (AUG-CC-PVTZ AUX)
    Blend: AUG-CC-PVTZ-JKFIT

    Orbital Energies [Eh]
    ---------------------

    Doubly Occupied:

       1A    -92.209677     2A    -92.009867     3A    -20.550656
       4A    -20.550590     5A    -15.607937     6A    -11.303465
       7A    -11.295596     8A    -11.277903     9A    -11.272771
      10A    -11.270751    11A    -11.265143    12A     -9.173880
      13A     -9.008279    14A     -6.859004    15A     -6.858736
      16A     -6.858326    17A     -6.689119    18A     -6.688437
      19A     -6.687790    20A     -1.456906    21A     -1.340905
      22A     -1.253810    23A     -1.194798    24A     -1.039586
      25A     -1.004485    26A     -0.982095    27A     -0.949585
      28A     -0.857996    29A     -0.794103    30A     -0.752882
      31A     -0.728052    32A     -0.704430    33A     -0.663102
      34A     -0.659429    35A     -0.630550    36A     -0.618233
      37A     -0.606287    38A     -0.579629    39A     -0.572174
      40A     -0.555974    41A     -0.545016    42A     -0.542379
      43A     -0.506723    44A     -0.498243    45A     -0.486295
      46A     -0.472716    47A     -0.468820    48A     -0.418161
      49A     -0.374943    50A     -0.354619

  @DF-RHF Final Energy: -1231.78228016222261

   => Energetics <=

    Nuclear Repulsion Energy =            890.4599660307422937
    One-Electron Energy =               -3464.3827884402548989
    Two-Electron Energy =                1342.1405422472901137
    Total Energy =                      -1231.7822801622226052
  Basis Set: (AUG-CC-PVTZ AUX)
    Blend: AUG-CC-PVTZ-RI
    Molecular point group: c1

    Geometry (in Angstrom), charge = 0, multiplicity = 1:

       Center              X                  Y                   Z               Mass
    ------------   -----------------  -----------------  -----------------  -----------------
         S            1.022954552078     0.008969281179    -0.718964906847    31.972071174400
         S           -1.678498447922    -1.149359718821     0.066253093153    31.972071174400
         O            1.151547552078    -1.325449718821    -1.302096906847    15.994914619570
         O            1.403406552078     1.230367281179    -1.423658906847    15.994914619570
         N            1.895737552078    -0.006931718821     0.707091093153    14.003074004430
         C           -0.668528447922     0.203808281179    -0.261542906847    12.000000000000
         C            1.887859552078     1.254855281179     1.450819093153    12.000000000000
         C            1.710810552078    -1.192030718821     1.548705093153    12.000000000000
         C           -1.316405447922     1.407272281179    -0.047156906847    12.000000000000
         C           -2.649855447922     1.215804281179     0.381793093153    12.000000000000
         C           -3.056789347922    -0.058745418821     0.521143993153    12.000000000000
         H            2.101619552078     2.074882281179     0.766554093153     1.007825032230
         H            2.683214552078     1.201351281179     2.197510093153     1.007825032230
         H            0.929138552078     1.431550281179     1.960091093153     1.007825032230
         H            1.746981552078    -2.083565718821     0.924236093153     1.007825032230
         H            0.764711552078    -1.164669718821     2.108068093153     1.007825032230
         H            2.541068552078    -1.223389718821     2.258049093153     1.007825032230
         H           -0.845819447922     2.365802281179    -0.239393906847     1.007825032230
         H           -3.347042447922     2.020360281179     0.591217093153     1.007825032230
         H           -3.932964447922    -0.547231718821     0.785037093153     1.007825032230

  Basis Set: AUG-CC-PVTZ
    Blend: AUG-CC-PVTZ
  Basis Set: (AUG-CC-PVTZ AUX)
    Blend: AUG-CC-PVTZ-JKFIT
	 Reference Energy          =   -1231.7822801622226052 [Eh]
	 Singles Energy            =      -0.0000000000000000 [Eh]
	 Same-Spin Energy          =      -0.5852219148892480 [Eh]
	 Opposite-Spin Energy      =      -1.7443161920505683 [Eh]
	 Correlation Energy        =      -2.3295381069398164 [Eh]
	 Total Energy              =   -1234.1118182691623133 [Eh]

	 ================> DF-SCS-MP2 Energies <==================
	-----------------------------------------------------------
	 SCS Same-Spin Scale       =       0.3333333333333333 [-]
	 SCS Opposite-Spin Scale   =       1.2000000000000000 [-]
	 SCS Same-Spin Energy      =      -0.1950739716297493 [Eh]
	 SCS Opposite-Spin Energy  =      -2.0931794304606819 [Eh]
	 SCS Correlation Energy    =      -2.2882534020904313 [Eh]
	 SCS Total Energy          =   -1234.0705335643131093 [Eh]
	-----------------------------------------------------------

  Dipole Moment: [D]
     X:    -2.5750      Y:     0.8690      Z:     4.7902     Total:     5.5074

*** Psi4 exiting successfully. Buy a developer a beer!
