                               Psi4 1.3.2 release

  ==> Input File <==

--------------------------------------------------------------------------
#psi4
#
memory 32 gb

molecule  {
0 1
  S        1.0053540    -0.0074810    -0.7736030
  S       -1.6960990    -1.1658100     0.0116150
  O        1.1339470    -1.3419000    -1.3567350
  O        1.3858060     1.2139170    -1.4782970
  N        1.8781370    -0.0233820     0.6524530
  C       -0.6638571     0.1686205    -0.3235345
  C        1.8702590     1.2384050     1.3961810
  C        1.6932100    -1.2084810     1.4940670
  C       -1.3340060     1.3908220    -0.1017950
  C       -2.6674560     1.1993540     0.3271550
  C       -2.9984720    -0.1352680     0.4414500
  H        2.0840190     2.0584320     0.7119160
  H        2.6656140     1.1849010     2.1428720
  H        0.9115380     1.4151000     1.9054530
  H        1.7293810    -2.1000160     0.8695980
  H        0.7471110    -1.1811200     2.0534300
  H        2.5234680    -1.2398400     2.2034110
  H       -0.8634200     2.3493520    -0.2940320
  H       -3.3646430     2.0039100     0.5365790
  H       -3.9505650    -0.5636820     0.7303990
units angstrom
no_reorient  #important for SAPT in psi4, default
symmetry c1  #important for SAPT in psi4, default
}

set PROPERTIES_ORIGIN ["COM"]
properties('MP2/aug-cc-pvtz', properties = ['dipole'])
--------------------------------------------------------------------------

    Molecular point group: c1
  Charge       = 0
  Multiplicity = 1
  Basis Set: AUG-CC-PVTZ
    Blend: AUG-CC-PVTZ
  Basis Set: (AUG-CC-PVTZ AUX)
    Blend: AUG-CC-PVTZ-JKFIT

    Orbital Energies [Eh]
    ---------------------

    Doubly Occupied:

       1A    -92.207455     2A    -92.017912     3A    -20.549074
       4A    -20.548093     5A    -15.605674     6A    -11.299352
       7A    -11.297467     8A    -11.281695     9A    -11.271615
      10A    -11.270320    11A    -11.265369    12A     -9.171831
      13A     -9.017201    14A     -6.856963    15A     -6.856733
      16A     -6.856315    17A     -6.698019    18A     -6.697530
      19A     -6.696787    20A     -1.455849    21A     -1.339363
      22A     -1.252293    23A     -1.198832    24A     -1.034359
      25A     -1.015811    26A     -0.981264    27A     -0.945785
      28A     -0.856927    29A     -0.785294    30A     -0.753574
      31A     -0.726490    32A     -0.703737    33A     -0.661715
      34A     -0.658955    35A     -0.629011    36A     -0.616044
      37A     -0.589106    38A     -0.579114    39A     -0.571876
      40A     -0.563560    41A     -0.548207    42A     -0.541409
      43A     -0.508396    44A     -0.500822    45A     -0.496009
      46A     -0.472270    47A     -0.469445    48A     -0.418021
      49A     -0.372345    50A     -0.352319

  @DF-RHF Final Energy: -1231.78704413781247

   => Energetics <=

    Nuclear Repulsion Energy =            892.7028215985078532
    One-Electron Energy =               -3468.8525146351935291
    Two-Electron Energy =                1344.3626488988732035
    Total Energy =                      -1231.7870441378124724
  Basis Set: (AUG-CC-PVTZ AUX)
    Blend: AUG-CC-PVTZ-RI
    Molecular point group: c1

    Geometry (in Angstrom), charge = 0, multiplicity = 1:

       Center              X                  Y                   Z               Mass
    ------------   -----------------  -----------------  -----------------  -----------------
         S            1.016785800696     0.013920488562    -0.716928793819    31.972071174400
         S           -1.684667199304    -1.144408511438     0.068289206181    31.972071174400
         O            1.145378800696    -1.320498511438    -1.300060793819    15.994914619570
         O            1.397237800696     1.235318488562    -1.421622793819    15.994914619570
         N            1.889568800696    -0.001980511438     0.709127206181    14.003074004430
         C           -0.652425299304     0.190021988562    -0.266860293819    12.000000000000
         C            1.881690800696     1.259806488562     1.452855206181    12.000000000000
         C            1.704641800696    -1.187079511438     1.550741206181    12.000000000000
         C           -1.322574199304     1.412223488562    -0.045120793819    12.000000000000
         C           -2.656024199304     1.220755488562     0.383829206181    12.000000000000
         C           -2.987040199304    -0.113866511438     0.498124206181    12.000000000000
         H            2.095450800696     2.079833488562     0.768590206181     1.007825032230
         H            2.677045800696     1.206302488562     2.199546206181     1.007825032230
         H            0.922969800696     1.436501488562     1.962127206181     1.007825032230
         H            1.740812800696    -2.078614511438     0.926272206181     1.007825032230
         H            0.758542800696    -1.159718511438     2.110104206181     1.007825032230
         H            2.534899800696    -1.218438511438     2.260085206181     1.007825032230
         H           -0.851988199304     2.370753488562    -0.237357793819     1.007825032230
         H           -3.353211199304     2.025311488562     0.593253206181     1.007825032230
         H           -3.939133199304    -0.542280511438     0.787073206181     1.007825032230

  Basis Set: AUG-CC-PVTZ
    Blend: AUG-CC-PVTZ
  Basis Set: (AUG-CC-PVTZ AUX)
    Blend: AUG-CC-PVTZ-JKFIT
	 Reference Energy          =   -1231.7870441378124724 [Eh]
	 Singles Energy            =      -0.0000000000000000 [Eh]
	 Same-Spin Energy          =      -0.5867259310376118 [Eh]
	 Opposite-Spin Energy      =      -1.7446393381276444 [Eh]
	 Correlation Energy        =      -2.3313652691652562 [Eh]
	 Total Energy              =   -1234.1184094069776620 [Eh]

	 ================> DF-SCS-MP2 Energies <==================
	-----------------------------------------------------------
	 SCS Same-Spin Scale       =       0.3333333333333333 [-]
	 SCS Opposite-Spin Scale   =       1.2000000000000000 [-]
	 SCS Same-Spin Energy      =      -0.1955753103458706 [Eh]
	 SCS Opposite-Spin Energy  =      -2.0935672057531733 [Eh]
	 SCS Correlation Energy    =      -2.2891425160990440 [Eh]
	 SCS Total Energy          =   -1234.0761866539114635 [Eh]
	-----------------------------------------------------------

  Dipole Moment: [D]
     X:    -2.6513      Y:     0.7568      Z:     4.7880     Total:     5.5251

*** Psi4 exiting successfully. Buy a developer a beer!
