                               Psi4 1.3.2 release

  ==> Input File <==

--------------------------------------------------------------------------
#psi4
#
memory 32 gb

molecule  {
0 1
  S        1.0053540    -0.0074810    -0.7736030
  S       -1.6960990    -1.1658100     0.0116150
  O        1.1339470    -1.3419000    -1.3567350
  O        1.3858060     1.2139170    -1.4782970
  N        1.9747970    -0.0364480     0.5883734
  C       -0.6861290     0.1873580    -0.3161810
  C        1.8702590     1.2384050     1.3961810
  C        1.6932100    -1.2084810     1.4940670
  C       -1.3340060     1.3908220    -0.1017950
  C       -2.6674560     1.1993540     0.3271550
  C       -2.9984720    -0.1352680     0.4414500
  H        2.0840190     2.0584320     0.7119160
  H        2.6656140     1.1849010     2.1428720
  H        0.9115380     1.4151000     1.9054530
  H        1.7293810    -2.1000160     0.8695980
  H        0.7471110    -1.1811200     2.0534300
  H        2.5234680    -1.2398400     2.2034110
  H       -0.8634200     2.3493520    -0.2940320
  H       -3.3646430     2.0039100     0.5365790
  H       -3.9505650    -0.5636820     0.7303990
units angstrom
no_reorient  #important for SAPT in psi4, default
symmetry c1  #important for SAPT in psi4, default
}

set PROPERTIES_ORIGIN ["COM"]
properties('MP2/aug-cc-pvtz', properties = ['dipole'])
--------------------------------------------------------------------------

    Molecular point group: c1
  Charge       = 0
  Multiplicity = 1
  Basis Set: AUG-CC-PVTZ
    Blend: AUG-CC-PVTZ
  Basis Set: (AUG-CC-PVTZ AUX)
    Blend: AUG-CC-PVTZ-JKFIT

    Orbital Energies [Eh]
    ---------------------

    Doubly Occupied:

       1A    -92.204298     2A    -92.018022     3A    -20.545015
       4A    -20.544709     5A    -15.614577     6A    -11.301192
       7A    -11.298325     8A    -11.279968     9A    -11.274671
      10A    -11.272727    11A    -11.266081    12A     -9.169063
      13A     -9.017502    14A     -6.854080    15A     -6.853938
      16A     -6.853409    17A     -6.698328    18A     -6.697803
      19A     -6.697042    20A     -1.452945    21A     -1.336430
      22A     -1.238507    23A     -1.203316    24A     -1.031959
      25A     -1.019216    26A     -0.972829    27A     -0.944345
      28A     -0.858769    29A     -0.788509    30A     -0.752627
      31A     -0.726615    32A     -0.698116    33A     -0.657076
      34A     -0.652325    35A     -0.626336    36A     -0.613137
      37A     -0.590231    38A     -0.578171    39A     -0.572607
      40A     -0.565704    41A     -0.551887    42A     -0.525392
      43A     -0.509163    44A     -0.498350    45A     -0.493859
      46A     -0.469215    47A     -0.466950    48A     -0.430564
      49A     -0.374131    50A     -0.357679

  @DF-RHF Final Energy: -1231.78178439810745

   => Energetics <=

    Nuclear Repulsion Energy =            890.7702923031789624
    One-Electron Energy =               -3465.0687374859398915
    Two-Electron Energy =                1342.5166607846535953
    Total Energy =                      -1231.7817843981074475
  Basis Set: (AUG-CC-PVTZ AUX)
    Blend: AUG-CC-PVTZ-RI
    Molecular point group: c1

    Geometry (in Angstrom), charge = 0, multiplicity = 1:

       Center              X                  Y                   Z               Mass
    ------------   -----------------  -----------------  -----------------  -----------------
         S            1.011098722969     0.013701199573    -0.712692994155    31.972071174400
         S           -1.690354277031    -1.144627800427     0.072525005845    31.972071174400
         O            1.139691722969    -1.320717800427    -1.295824994155    15.994914619570
         O            1.391550722969     1.235099199573    -1.417386994155    15.994914619570
         N            1.980541722969    -0.015265800427     0.649283405845    14.003074004430
         C           -0.680384277031     0.208540199573    -0.255270994155    12.000000000000
         C            1.876003722969     1.259587199573     1.457091005845    12.000000000000
         C            1.698954722969    -1.187298800427     1.554977005845    12.000000000000
         C           -1.328261277031     1.412004199573    -0.040884994155    12.000000000000
         C           -2.661711277031     1.220536199573     0.388065005845    12.000000000000
         C           -2.992727277031    -0.114085800427     0.502360005845    12.000000000000
         H            2.089763722969     2.079614199573     0.772826005845     1.007825032230
         H            2.671358722969     1.206083199573     2.203782005845     1.007825032230
         H            0.917282722969     1.436282199573     1.966363005845     1.007825032230
         H            1.735125722969    -2.078833800427     0.930508005845     1.007825032230
         H            0.752855722969    -1.159937800427     2.114340005845     1.007825032230
         H            2.529212722969    -1.218657800427     2.264321005845     1.007825032230
         H           -0.857675277031     2.370534199573    -0.233121994155     1.007825032230
         H           -3.358898277031     2.025092199573     0.597489005845     1.007825032230
         H           -3.944820277031    -0.542499800427     0.791309005845     1.007825032230

  Basis Set: AUG-CC-PVTZ
    Blend: AUG-CC-PVTZ
  Basis Set: (AUG-CC-PVTZ AUX)
    Blend: AUG-CC-PVTZ-JKFIT
	 Reference Energy          =   -1231.7817843981074475 [Eh]
	 Singles Energy            =      -0.0000000000000000 [Eh]
	 Same-Spin Energy          =      -0.5862421010507139 [Eh]
	 Opposite-Spin Energy      =      -1.7455094350132616 [Eh]
	 Correlation Energy        =      -2.3317515360639756 [Eh]
	 Total Energy              =   -1234.1135359341715230 [Eh]

	 ================> DF-SCS-MP2 Energies <==================
	-----------------------------------------------------------
	 SCS Same-Spin Scale       =       0.3333333333333333 [-]
	 SCS Opposite-Spin Scale   =       1.2000000000000000 [-]
	 SCS Same-Spin Energy      =      -0.1954140336835713 [Eh]
	 SCS Opposite-Spin Energy  =      -2.0946113220159139 [Eh]
	 SCS Correlation Energy    =      -2.2900253556994854 [Eh]
	 SCS Total Energy          =   -1234.0718097538069742 [Eh]
	-----------------------------------------------------------

  Dipole Moment: [D]
     X:    -2.9136      Y:     0.7916      Z:     4.9744     Total:     5.8190

*** Psi4 exiting successfully. Buy a developer a beer!
