                               Psi4 1.3.2 release

  ==> Input File <==

--------------------------------------------------------------------------
#psi4
#
memory 32 gb

molecule  {
0 1
  S        1.0053540    -0.0074810    -0.7736030
  S       -1.7833070    -1.0884444     0.0403047
  O        1.1339470    -1.3419000    -1.3567350
  O        1.3858060     1.2139170    -1.4782970
  N        1.8781370    -0.0233820     0.6524530
  C       -0.6861290     0.1873580    -0.3161810
  C        1.8702590     1.2384050     1.3961810
  C        1.6932100    -1.2084810     1.4940670
  C       -1.3340060     1.3908220    -0.1017950
  C       -2.6674560     1.1993540     0.3271550
  C       -2.9984720    -0.1352680     0.4414500
  H        2.0840190     2.0584320     0.7119160
  H        2.6656140     1.1849010     2.1428720
  H        0.9115380     1.4151000     1.9054530
  H        1.7293810    -2.1000160     0.8695980
  H        0.7471110    -1.1811200     2.0534300
  H        2.5234680    -1.2398400     2.2034110
  H       -0.8634200     2.3493520    -0.2940320
  H       -3.3646430     2.0039100     0.5365790
  H       -3.9505650    -0.5636820     0.7303990
units angstrom
no_reorient  #important for SAPT in psi4, default
symmetry c1  #important for SAPT in psi4, default
}

set PROPERTIES_ORIGIN ["COM"]
properties('MP2/aug-cc-pvtz', properties = ['dipole'])
--------------------------------------------------------------------------

    Molecular point group: c1
  Charge       = 0
  Multiplicity = 1
  Basis Set: AUG-CC-PVTZ
    Blend: AUG-CC-PVTZ
  Basis Set: (AUG-CC-PVTZ AUX)
    Blend: AUG-CC-PVTZ-JKFIT

    Orbital Energies [Eh]
    ---------------------

    Doubly Occupied:

       1A    -92.209730     2A    -92.012830     3A    -20.550504
       4A    -20.549087     5A    -15.606603     6A    -11.294700
       7A    -11.285600     8A    -11.275175     9A    -11.272108
      10A    -11.271002    11A    -11.258879    12A     -9.173571
      13A     -9.015640    14A     -6.858717    15A     -6.858462
      16A     -6.858060    17A     -6.696766    18A     -6.695959
      19A     -6.695155    20A     -1.455777    21A     -1.339942
      22A     -1.252945    23A     -1.219710    24A     -1.042443
      25A     -1.018185    26A     -0.981894    27A     -0.946066
      28A     -0.853137    29A     -0.787937    30A     -0.755440
      31A     -0.727801    32A     -0.704322    33A     -0.662544
      34A     -0.661536    35A     -0.633003    36A     -0.616106
      37A     -0.588514    38A     -0.580448    39A     -0.572753
      40A     -0.567178    41A     -0.560568    42A     -0.541962
      43A     -0.509204    44A     -0.501093    45A     -0.494213
      46A     -0.473372    47A     -0.468965    48A     -0.418854
      49A     -0.374644    50A     -0.352488

  @DF-RHF Final Energy: -1231.78104089099975

   => Energetics <=

    Nuclear Repulsion Energy =            894.0352896995626679
    One-Electron Energy =               -3471.4294788766883357
    Two-Electron Energy =                1345.6131482861258064
    Total Energy =                      -1231.7810408909997477
  Basis Set: (AUG-CC-PVTZ AUX)
    Blend: AUG-CC-PVTZ-RI
    Molecular point group: c1

    Geometry (in Angstrom), charge = 0, multiplicity = 1:

       Center              X                  Y                   Z               Mass
    ------------   -----------------  -----------------  -----------------  -----------------
         S            1.032782469145    -0.000206647184    -0.722193044090    31.972071174400
         S           -1.755878530855    -1.081170047184     0.091714655910    31.972071174400
         O            1.161375469145    -1.334625647184    -1.305325044090    15.994914619570
         O            1.413234469145     1.221191352816    -1.426887044090    15.994914619570
         N            1.905565469145    -0.016107647184     0.703862955910    14.003074004430
         C           -0.658700530855     0.194632352816    -0.264771044090    12.000000000000
         C            1.897687469145     1.245679352816     1.447590955910    12.000000000000
         C            1.720638469145    -1.201206647184     1.545476955910    12.000000000000
         C           -1.306577530855     1.398096352816    -0.050385044090    12.000000000000
         C           -2.640027530855     1.206628352816     0.378564955910    12.000000000000
         C           -2.971043530855    -0.127993647184     0.492859955910    12.000000000000
         H            2.111447469145     2.065706352816     0.763325955910     1.007825032230
         H            2.693042469145     1.192175352816     2.194281955910     1.007825032230
         H            0.938966469145     1.422374352816     1.956862955910     1.007825032230
         H            1.756809469145    -2.092741647184     0.921007955910     1.007825032230
         H            0.774539469145    -1.173845647184     2.104839955910     1.007825032230
         H            2.550896469145    -1.232565647184     2.254820955910     1.007825032230
         H           -0.835991530855     2.356626352816    -0.242622044090     1.007825032230
         H           -3.337214530855     2.011184352816     0.587988955910     1.007825032230
         H           -3.923136530855    -0.556407647184     0.781808955910     1.007825032230

  Basis Set: AUG-CC-PVTZ
    Blend: AUG-CC-PVTZ
  Basis Set: (AUG-CC-PVTZ AUX)
    Blend: AUG-CC-PVTZ-JKFIT
	 Reference Energy          =   -1231.7810408909997477 [Eh]
	 Singles Energy            =      -0.0000000000000000 [Eh]
	 Same-Spin Energy          =      -0.5870354404714042 [Eh]
	 Opposite-Spin Energy      =      -1.7427353804018870 [Eh]
	 Correlation Energy        =      -2.3297708208732910 [Eh]
	 Total Energy              =   -1234.1108117118731116 [Eh]

	 ================> DF-SCS-MP2 Energies <==================
	-----------------------------------------------------------
	 SCS Same-Spin Scale       =       0.3333333333333333 [-]
	 SCS Opposite-Spin Scale   =       1.2000000000000000 [-]
	 SCS Same-Spin Energy      =      -0.1956784801571347 [Eh]
	 SCS Opposite-Spin Energy  =      -2.0912824564822645 [Eh]
	 SCS Correlation Energy    =      -2.2869609366393995 [Eh]
	 SCS Total Energy          =   -1234.0680018276391365 [Eh]
	-----------------------------------------------------------

  Dipole Moment: [D]
     X:    -2.6083      Y:     0.7105      Z:     4.7913     Total:     5.5014

*** Psi4 exiting successfully. Buy a developer a beer!
