                               Psi4 1.3.2 release

  ==> Input File <==

--------------------------------------------------------------------------
#psi4
#
memory 32 gb

molecule  {
0 1
  S        1.0086479     0.0231121    -0.7734187
  S       -1.6960990    -1.1658100     0.0116150
  O        1.1339470    -1.3419000    -1.3567350
  O        1.3858060     1.2139170    -1.4782970
  N        1.8781370    -0.0233820     0.6524530
  C       -0.6861290     0.1873580    -0.3161810
  C        1.8702590     1.2384050     1.3961810
  C        1.6932100    -1.2084810     1.4940670
  C       -1.3340060     1.3908220    -0.1017950
  C       -2.6674560     1.1993540     0.3271550
  C       -2.9984720    -0.1352680     0.4414500
  H        2.0840190     2.0584320     0.7119160
  H        2.6656140     1.1849010     2.1428720
  H        0.9115380     1.4151000     1.9054530
  H        1.7293810    -2.1000160     0.8695980
  H        0.7471110    -1.1811200     2.0534300
  H        2.5234680    -1.2398400     2.2034110
  H       -0.8634200     2.3493520    -0.2940320
  H       -3.3646430     2.0039100     0.5365790
  H       -3.9505650    -0.5636820     0.7303990
units angstrom
no_reorient  #important for SAPT in psi4, default
symmetry c1  #important for SAPT in psi4, default
}

set PROPERTIES_ORIGIN ["COM"]
properties('MP2/aug-cc-pvtz', properties = ['dipole'])
--------------------------------------------------------------------------

    Molecular point group: c1
  Charge       = 0
  Multiplicity = 1
  Basis Set: AUG-CC-PVTZ
    Blend: AUG-CC-PVTZ
  Basis Set: (AUG-CC-PVTZ AUX)
    Blend: AUG-CC-PVTZ-JKFIT

    Orbital Energies [Eh]
    ---------------------

    Doubly Occupied:

       1A    -92.207872     2A    -92.016215     3A    -20.555670
       4A    -20.542950     5A    -15.606719     6A    -11.298538
       7A    -11.295438     8A    -11.276912     9A    -11.272563
      10A    -11.270560    11A    -11.264050    12A     -9.172211
      13A     -9.015618    14A     -6.857304    15A     -6.857106
      16A     -6.856631    17A     -6.696442    18A     -6.695925
      19A     -6.695157    20A     -1.459122    21A     -1.336637
      22A     -1.252825    23A     -1.201139    24A     -1.031568
      25A     -1.017075    26A     -0.981933    27A     -0.946415
      28A     -0.853437    29A     -0.786335    30A     -0.753721
      31A     -0.727662    32A     -0.704419    33A     -0.662296
      34A     -0.659075    35A     -0.628353    36A     -0.616351
      37A     -0.587979    38A     -0.579758    39A     -0.572454
      40A     -0.564684    41A     -0.549641    42A     -0.542259
      43A     -0.508007    44A     -0.503087    45A     -0.497133
      46A     -0.471137    47A     -0.466199    48A     -0.417712
      49A     -0.372228    50A     -0.354028

  @DF-RHF Final Energy: -1231.78757154457548

   => Energetics <=

    Nuclear Repulsion Energy =            892.3996065741577013
    One-Electron Energy =               -3468.2572493749121350
    Two-Electron Energy =                1344.0700712561790624
    Total Energy =                      -1231.7875715445754849
  Basis Set: (AUG-CC-PVTZ AUX)
    Blend: AUG-CC-PVTZ-RI
    Molecular point group: c1

    Geometry (in Angstrom), charge = 0, multiplicity = 1:

       Center              X                  Y                   Z               Mass
    ------------   -----------------  -----------------  -----------------  -----------------
         S            1.020927573263     0.038215537679    -0.717237325080    31.972071174400
         S           -1.683819326737    -1.150706562321     0.067796374920    31.972071174400
         O            1.146226673263    -1.326796562321    -1.300553625080    15.994914619570
         O            1.398085673263     1.229020437679    -1.422115625080    15.994914619570
         N            1.890416673263    -0.008278562321     0.708634374920    14.003074004430
         C           -0.673849326737     0.202461437679    -0.259999625080    12.000000000000
         C            1.882538673263     1.253508437679     1.452362374920    12.000000000000
         C            1.705489673263    -1.193377562321     1.550248374920    12.000000000000
         C           -1.321726326737     1.405925437679    -0.045613625080    12.000000000000
         C           -2.655176326737     1.214457437679     0.383336374920    12.000000000000
         C           -2.986192326737    -0.120164562321     0.497631374920    12.000000000000
         H            2.096298673263     2.073535437679     0.768097374920     1.007825032230
         H            2.677893673263     1.200004437679     2.199053374920     1.007825032230
         H            0.923817673263     1.430203437679     1.961634374920     1.007825032230
         H            1.741660673263    -2.084912562321     0.925779374920     1.007825032230
         H            0.759390673263    -1.166016562321     2.109611374920     1.007825032230
         H            2.535747673263    -1.224736562321     2.259592374920     1.007825032230
         H           -0.851140326737     2.364455437679    -0.237850625080     1.007825032230
         H           -3.352363326737     2.019013437679     0.592760374920     1.007825032230
         H           -3.938285326737    -0.548578562321     0.786580374920     1.007825032230

  Basis Set: AUG-CC-PVTZ
    Blend: AUG-CC-PVTZ
  Basis Set: (AUG-CC-PVTZ AUX)
    Blend: AUG-CC-PVTZ-JKFIT
	 Reference Energy          =   -1231.7875715445754849 [Eh]
	 Singles Energy            =      -0.0000000000000000 [Eh]
	 Same-Spin Energy          =      -0.5860676641801232 [Eh]
	 Opposite-Spin Energy      =      -1.7439671503790843 [Eh]
	 Correlation Energy        =      -2.3300348145592076 [Eh]
	 Total Energy              =   -1234.1176063591346974 [Eh]

	 ================> DF-SCS-MP2 Energies <==================
	-----------------------------------------------------------
	 SCS Same-Spin Scale       =       0.3333333333333333 [-]
	 SCS Opposite-Spin Scale   =       1.2000000000000000 [-]
	 SCS Same-Spin Energy      =      -0.1953558880600411 [Eh]
	 SCS Opposite-Spin Energy  =      -2.0927605804549012 [Eh]
	 SCS Correlation Energy    =      -2.2881164685149424 [Eh]
	 SCS Total Energy          =   -1234.0756880130904847 [Eh]
	-----------------------------------------------------------

  Dipole Moment: [D]
     X:    -2.5444      Y:     0.9850      Z:     4.7753     Total:     5.4998

*** Psi4 exiting successfully. Buy a developer a beer!
