                               Psi4 1.3.2 release

  ==> Input File <==

--------------------------------------------------------------------------
#psi4
#
memory 32 gb

molecule  {
0 1
  S        1.0053540    -0.0074810    -0.7736030
  S       -1.6960990    -1.1658100     0.0116150
  O        1.1339470    -1.3419000    -1.3567350
  O        1.3858060     1.2139170    -1.4782970
  N        1.8781370    -0.0233820     0.6524530
  C       -0.7087085     0.2056833    -0.3087277
  C        1.8702590     1.2384050     1.3961810
  C        1.6932100    -1.2084810     1.4940670
  C       -1.3340060     1.3908220    -0.1017950
  C       -2.6674560     1.1993540     0.3271550
  C       -2.9984720    -0.1352680     0.4414500
  H        2.0840190     2.0584320     0.7119160
  H        2.6656140     1.1849010     2.1428720
  H        0.9115380     1.4151000     1.9054530
  H        1.7293810    -2.1000160     0.8695980
  H        0.7471110    -1.1811200     2.0534300
  H        2.5234680    -1.2398400     2.2034110
  H       -0.8634200     2.3493520    -0.2940320
  H       -3.3646430     2.0039100     0.5365790
  H       -3.9505650    -0.5636820     0.7303990
units angstrom
no_reorient  #important for SAPT in psi4, default
symmetry c1  #important for SAPT in psi4, default
}

set PROPERTIES_ORIGIN ["COM"]
properties('MP2/aug-cc-pvtz', properties = ['dipole'])
--------------------------------------------------------------------------

    Molecular point group: c1
  Charge       = 0
  Multiplicity = 1
  Basis Set: AUG-CC-PVTZ
    Blend: AUG-CC-PVTZ
  Basis Set: (AUG-CC-PVTZ AUX)
    Blend: AUG-CC-PVTZ-JKFIT

    Orbital Energies [Eh]
    ---------------------

    Doubly Occupied:

       1A    -92.208853     2A    -92.014314     3A    -20.551326
       4A    -20.549528     5A    -15.607295     6A    -11.297754
       7A    -11.293764     8A    -11.272506     9A    -11.272341
      10A    -11.271072    11A    -11.263214    12A     -9.172841
      13A     -9.014036    14A     -6.857946    15A     -6.857631
      16A     -6.857306    17A     -6.694892    18A     -6.694325
      19A     -6.693548    20A     -1.455692    21A     -1.340439
      22A     -1.253296    23A     -1.204027    24A     -1.029472
      25A     -1.018156    26A     -0.982154    27A     -0.946423
      28A     -0.849807    29A     -0.787842    30A     -0.753364
      31A     -0.728536    32A     -0.703943    33A     -0.662352
      34A     -0.658618    35A     -0.626683    36A     -0.616361
      37A     -0.587650    38A     -0.579555    39A     -0.572418
      40A     -0.564529    41A     -0.551265    42A     -0.542353
      43A     -0.510847    44A     -0.501330    45A     -0.498443
      46A     -0.473773    47A     -0.466095    48A     -0.416807
      49A     -0.373109    50A     -0.355173

  @DF-RHF Final Energy: -1231.78942829272773

   => Energetics <=

    Nuclear Repulsion Energy =            892.2425592716898564
    One-Electron Energy =               -3467.9539683541829618
    Two-Electron Energy =                1343.9219807897652572
    Total Energy =                      -1231.7894282927277345
  Basis Set: (AUG-CC-PVTZ AUX)
    Blend: AUG-CC-PVTZ-RI
    Molecular point group: c1

    Geometry (in Angstrom), charge = 0, multiplicity = 1:

       Center              X                  Y                   Z               Mass
    ------------   -----------------  -----------------  -----------------  -----------------
         S            1.019603579485     0.011592026759    -0.717859027590    31.972071174400
         S           -1.681849420515    -1.146736973241     0.067358972410    31.972071174400
         O            1.148196579485    -1.322826973241    -1.300991027590    15.994914619570
         O            1.400055579485     1.232990026759    -1.422553027590    15.994914619570
         N            1.892386579485    -0.004308973241     0.708196972410    14.003074004430
         C           -0.694458920515     0.224756326759    -0.252983727590    12.000000000000
         C            1.884508579485     1.257478026759     1.451924972410    12.000000000000
         C            1.707459579485    -1.189407973241     1.549810972410    12.000000000000
         C           -1.319756420515     1.409895026759    -0.046051027590    12.000000000000
         C           -2.653206420515     1.218427026759     0.382898972410    12.000000000000
         C           -2.984222420515    -0.116194973241     0.497193972410    12.000000000000
         H            2.098268579485     2.077505026759     0.767659972410     1.007825032230
         H            2.679863579485     1.203974026759     2.198615972410     1.007825032230
         H            0.925787579485     1.434173026759     1.961196972410     1.007825032230
         H            1.743630579485    -2.080942973241     0.925341972410     1.007825032230
         H            0.761360579485    -1.162046973241     2.109173972410     1.007825032230
         H            2.537717579485    -1.220766973241     2.259154972410     1.007825032230
         H           -0.849170420515     2.368425026759    -0.238288027590     1.007825032230
         H           -3.350393420515     2.022983026759     0.592322972410     1.007825032230
         H           -3.936315420515    -0.544608973241     0.786142972410     1.007825032230

  Basis Set: AUG-CC-PVTZ
    Blend: AUG-CC-PVTZ
  Basis Set: (AUG-CC-PVTZ AUX)
    Blend: AUG-CC-PVTZ-JKFIT
	 Reference Energy          =   -1231.7894282927277345 [Eh]
	 Singles Energy            =      -0.0000000000000000 [Eh]
	 Same-Spin Energy          =      -0.5856326497271859 [Eh]
	 Opposite-Spin Energy      =      -1.7435565998266922 [Eh]
	 Correlation Energy        =      -2.3291892495538780 [Eh]
	 Total Energy              =   -1234.1186175422815268 [Eh]

	 ================> DF-SCS-MP2 Energies <==================
	-----------------------------------------------------------
	 SCS Same-Spin Scale       =       0.3333333333333333 [-]
	 SCS Opposite-Spin Scale   =       1.2000000000000000 [-]
	 SCS Same-Spin Energy      =      -0.1952108832423953 [Eh]
	 SCS Opposite-Spin Energy  =      -2.0922679197920306 [Eh]
	 SCS Correlation Energy    =      -2.2874788030344257 [Eh]
	 SCS Total Energy          =   -1234.0769070957621807 [Eh]
	-----------------------------------------------------------

  Dipole Moment: [D]
     X:    -2.4895      Y:     0.7440      Z:     4.7515     Total:     5.4155

*** Psi4 exiting successfully. Buy a developer a beer!
