                               Psi4 1.3.2 release

  ==> Input File <==

--------------------------------------------------------------------------
#psi4
#
memory 32 gb

molecule  {
0 1
  S        1.0053540    -0.0074810    -0.7736030
  S       -1.6960990    -1.1658100     0.0116150
  O        1.1896340    -1.2731897    -1.4816111
  O        1.3858060     1.2139170    -1.4782970
  N        1.8781370    -0.0233820     0.6524530
  C       -0.6861290     0.1873580    -0.3161810
  C        1.8702590     1.2384050     1.3961810
  C        1.6932100    -1.2084810     1.4940670
  C       -1.3340060     1.3908220    -0.1017950
  C       -2.6674560     1.1993540     0.3271550
  C       -2.9984720    -0.1352680     0.4414500
  H        2.0840190     2.0584320     0.7119160
  H        2.6656140     1.1849010     2.1428720
  H        0.9115380     1.4151000     1.9054530
  H        1.7293810    -2.1000160     0.8695980
  H        0.7471110    -1.1811200     2.0534300
  H        2.5234680    -1.2398400     2.2034110
  H       -0.8634200     2.3493520    -0.2940320
  H       -3.3646430     2.0039100     0.5365790
  H       -3.9505650    -0.5636820     0.7303990
units angstrom
no_reorient  #important for SAPT in psi4, default
symmetry c1  #important for SAPT in psi4, default
}

set PROPERTIES_ORIGIN ["COM"]
properties('MP2/aug-cc-pvtz', properties = ['dipole'])
--------------------------------------------------------------------------

    Molecular point group: c1
  Charge       = 0
  Multiplicity = 1
  Basis Set: AUG-CC-PVTZ
    Blend: AUG-CC-PVTZ
  Basis Set: (AUG-CC-PVTZ AUX)
    Blend: AUG-CC-PVTZ-JKFIT

    Orbital Energies [Eh]
    ---------------------

    Doubly Occupied:

       1A    -92.206130     2A    -92.018052     3A    -20.548271
       4A    -20.539365     5A    -15.609434     6A    -11.301643
       7A    -11.297499     8A    -11.279247     9A    -11.274240
      10A    -11.273850    11A    -11.266055    12A     -9.170588
      13A     -9.017634    14A     -6.855684    15A     -6.855309
      16A     -6.855102    17A     -6.698490    18A     -6.697953
      19A     -6.697194    20A     -1.452997    21A     -1.330157
      22A     -1.256320    23A     -1.203367    24A     -1.034167
      25A     -1.019184    26A     -0.984271    27A     -0.948349
      28A     -0.854823    29A     -0.788433    30A     -0.754460
      31A     -0.728273    32A     -0.701187    33A     -0.661343
      34A     -0.659937    35A     -0.629178    36A     -0.613468
      37A     -0.589711    38A     -0.582150    39A     -0.574045
      40A     -0.564627    41A     -0.551896    42A     -0.543924
      43A     -0.510440    44A     -0.500502    45A     -0.491223
      46A     -0.468699    47A     -0.464640    48A     -0.419919
      49A     -0.374287    50A     -0.355906

  @DF-RHF Final Energy: -1231.78800075212348

   => Energetics <=

    Nuclear Repulsion Energy =            890.9839985357107253
    One-Electron Energy =               -3465.3967541063243516
    Two-Electron Energy =                1342.6247548184901461
    Total Energy =                      -1231.7880007521234802
  Basis Set: (AUG-CC-PVTZ AUX)
    Blend: AUG-CC-PVTZ-RI
    Molecular point group: c1

    Geometry (in Angstrom), charge = 0, multiplicity = 1:

       Center              X                  Y                   Z               Mass
    ------------   -----------------  -----------------  -----------------  -----------------
         S            1.013521813127     0.006989527297    -0.706933684472    31.972071174400
         S           -1.687931186873    -1.151339472703     0.078284315528    31.972071174400
         O            1.197801813127    -1.258719172703    -1.414941784472    15.994914619570
         O            1.393973813127     1.228387527297    -1.411627684472    15.994914619570
         N            1.886304813127    -0.008911472703     0.719122315528    14.003074004430
         C           -0.677961186873     0.201828527297    -0.249511684472    12.000000000000
         C            1.878426813127     1.252875527297     1.462850315528    12.000000000000
         C            1.701377813127    -1.194010472703     1.560736315528    12.000000000000
         C           -1.325838186873     1.405292527297    -0.035125684472    12.000000000000
         C           -2.659288186873     1.213824527297     0.393824315528    12.000000000000
         C           -2.990304186873    -0.120797472703     0.508119315528    12.000000000000
         H            2.092186813127     2.072902527297     0.778585315528     1.007825032230
         H            2.673781813127     1.199371527297     2.209541315528     1.007825032230
         H            0.919705813127     1.429570527297     1.972122315528     1.007825032230
         H            1.737548813127    -2.085545472703     0.936267315528     1.007825032230
         H            0.755278813127    -1.166649472703     2.120099315528     1.007825032230
         H            2.531635813127    -1.225369472703     2.270080315528     1.007825032230
         H           -0.855252186873     2.363822527297    -0.227362684472     1.007825032230
         H           -3.356475186873     2.018380527297     0.603248315528     1.007825032230
         H           -3.942397186873    -0.549211472703     0.797068315528     1.007825032230

  Basis Set: AUG-CC-PVTZ
    Blend: AUG-CC-PVTZ
  Basis Set: (AUG-CC-PVTZ AUX)
    Blend: AUG-CC-PVTZ-JKFIT
	 Reference Energy          =   -1231.7880007521234802 [Eh]
	 Singles Energy            =      -0.0000000000000000 [Eh]
	 Same-Spin Energy          =      -0.5857484019925883 [Eh]
	 Opposite-Spin Energy      =      -1.7434521179199995 [Eh]
	 Correlation Energy        =      -2.3292005199125878 [Eh]
	 Total Energy              =   -1234.1172012720360271 [Eh]

	 ================> DF-SCS-MP2 Energies <==================
	-----------------------------------------------------------
	 SCS Same-Spin Scale       =       0.3333333333333333 [-]
	 SCS Opposite-Spin Scale   =       1.2000000000000000 [-]
	 SCS Same-Spin Energy      =      -0.1952494673308627 [Eh]
	 SCS Opposite-Spin Energy  =      -2.0921425415039994 [Eh]
	 SCS Correlation Energy    =      -2.2873920088348623 [Eh]
	 SCS Total Energy          =   -1234.0753927609582661 [Eh]
	-----------------------------------------------------------

  Dipole Moment: [D]
     X:    -2.7428      Y:     0.6154      Z:     5.1044     Total:     5.8273

*** Psi4 exiting successfully. Buy a developer a beer!
