                               Psi4 1.3.2 release

  ==> Input File <==

--------------------------------------------------------------------------
#psi4
#
memory 32 gb

molecule  {
0 1
  S        1.0053540    -0.0074810    -0.7736030
  S       -1.6960990    -1.1658100     0.0116150
  O        1.1339470    -1.3419000    -1.3567350
  O        1.3858060     1.2139170    -1.4782970
  N        1.8781370    -0.0233820     0.6524530
  C       -0.7448467     0.1086875    -0.2971236
  C        1.8702590     1.2384050     1.3961810
  C        1.6932100    -1.2084810     1.4940670
  C       -1.3340060     1.3908220    -0.1017950
  C       -2.6674560     1.1993540     0.3271550
  C       -2.9984720    -0.1352680     0.4414500
  H        2.0840190     2.0584320     0.7119160
  H        2.6656140     1.1849010     2.1428720
  H        0.9115380     1.4151000     1.9054530
  H        1.7293810    -2.1000160     0.8695980
  H        0.7471110    -1.1811200     2.0534300
  H        2.5234680    -1.2398400     2.2034110
  H       -0.8634200     2.3493520    -0.2940320
  H       -3.3646430     2.0039100     0.5365790
  H       -3.9505650    -0.5636820     0.7303990
units angstrom
no_reorient  #important for SAPT in psi4, default
symmetry c1  #important for SAPT in psi4, default
}

set PROPERTIES_ORIGIN ["COM"]
properties('MP2/aug-cc-pvtz', properties = ['dipole'])
--------------------------------------------------------------------------

    Molecular point group: c1
  Charge       = 0
  Multiplicity = 1
  Basis Set: AUG-CC-PVTZ
    Blend: AUG-CC-PVTZ
  Basis Set: (AUG-CC-PVTZ AUX)
    Blend: AUG-CC-PVTZ-JKFIT

    Orbital Energies [Eh]
    ---------------------

    Doubly Occupied:

       1A    -92.208836     2A    -92.018220     3A    -20.553774
       4A    -20.547069     5A    -15.607438     6A    -11.299377
       7A    -11.288875     8A    -11.274996     9A    -11.272225
      10A    -11.271618    11A    -11.263325    12A     -9.172556
      13A     -9.019788    14A     -6.857643    15A     -6.857318
      16A     -6.856975    17A     -6.700889    18A     -6.700033
      19A     -6.699285    20A     -1.454825    21A     -1.340198
      22A     -1.253180    23A     -1.209867    24A     -1.033572
      25A     -1.012629    26A     -0.982249    27A     -0.945067
      28A     -0.845329    29A     -0.784646    30A     -0.753587
      31A     -0.726753    32A     -0.703867    33A     -0.662057
      34A     -0.659291    35A     -0.624427    36A     -0.615983
      37A     -0.585485    38A     -0.579559    39A     -0.573620
      40A     -0.568050    41A     -0.555477    42A     -0.542497
      43A     -0.511850    44A     -0.504117    45A     -0.498704
      46A     -0.473916    47A     -0.464087    48A     -0.415234
      49A     -0.375294    50A     -0.345810

  @DF-RHF Final Energy: -1231.77705697274132

   => Energetics <=

    Nuclear Repulsion Energy =            892.6859475364565242
    One-Electron Energy =               -3468.7830734604908685
    Two-Electron Energy =                1344.3200689512927966
    Total Energy =                      -1231.7770569727413204
  Basis Set: (AUG-CC-PVTZ AUX)
    Blend: AUG-CC-PVTZ-RI
    Molecular point group: c1

    Geometry (in Angstrom), charge = 0, multiplicity = 1:

       Center              X                  Y                   Z               Mass
    ------------   -----------------  -----------------  -----------------  -----------------
         S            1.021873953507     0.017685765368    -0.718588052478    31.972071174400
         S           -1.679579046493    -1.140643234632     0.066629947522    31.972071174400
         O            1.150466953507    -1.316733234632    -1.301720052478    15.994914619570
         O            1.402325953507     1.239083765368    -1.423282052478    15.994914619570
         N            1.894656953507     0.001784765368     0.707467947522    14.003074004430
         C           -0.728326746493     0.133854265368    -0.242108652478    12.000000000000
         C            1.886778953507     1.263571765368     1.451195947522    12.000000000000
         C            1.709729953507    -1.183314234632     1.549081947522    12.000000000000
         C           -1.317486046493     1.415988765368    -0.046780052478    12.000000000000
         C           -2.650936046493     1.224520765368     0.382169947522    12.000000000000
         C           -2.981952046493    -0.110101234632     0.496464947522    12.000000000000
         H            2.100538953507     2.083598765368     0.766930947522     1.007825032230
         H            2.682133953507     1.210067765368     2.197886947522     1.007825032230
         H            0.928057953507     1.440266765368     1.960467947522     1.007825032230
         H            1.745900953507    -2.074849234632     0.924612947522     1.007825032230
         H            0.763630953507    -1.155953234632     2.108444947522     1.007825032230
         H            2.539987953507    -1.214673234632     2.258425947522     1.007825032230
         H           -0.846900046493     2.374518765368    -0.239017052478     1.007825032230
         H           -3.348123046493     2.029076765368     0.591593947522     1.007825032230
         H           -3.934045046493    -0.538515234632     0.785413947522     1.007825032230

  Basis Set: AUG-CC-PVTZ
    Blend: AUG-CC-PVTZ
  Basis Set: (AUG-CC-PVTZ AUX)
    Blend: AUG-CC-PVTZ-JKFIT
	 Reference Energy          =   -1231.7770569727413204 [Eh]
	 Singles Energy            =      -0.0000000000000000 [Eh]
	 Same-Spin Energy          =      -0.5878476571409753 [Eh]
	 Opposite-Spin Energy      =      -1.7455250671384364 [Eh]
	 Correlation Energy        =      -2.3333727242794118 [Eh]
	 Total Energy              =   -1234.1104296970206633 [Eh]

	 ================> DF-SCS-MP2 Energies <==================
	-----------------------------------------------------------
	 SCS Same-Spin Scale       =       0.3333333333333333 [-]
	 SCS Opposite-Spin Scale   =       1.2000000000000000 [-]
	 SCS Same-Spin Energy      =      -0.1959492190469918 [Eh]
	 SCS Opposite-Spin Energy  =      -2.0946300805661235 [Eh]
	 SCS Correlation Energy    =      -2.2905792996131153 [Eh]
	 SCS Total Energy          =   -1234.0676362723545481 [Eh]
	-----------------------------------------------------------

  Dipole Moment: [D]
     X:    -2.4511      Y:     0.6759      Z:     4.7377     Total:     5.3768

*** Psi4 exiting successfully. Buy a developer a beer!
