                               Psi4 1.3.2 release

  ==> Input File <==

--------------------------------------------------------------------------
#psi4
#
memory 32 gb

molecule  {
0 1
  S        1.0053540    -0.0074810    -0.7736030
  S       -1.6960990    -1.1658100     0.0116150
  O        1.1339470    -1.3419000    -1.3567350
  O        1.3858060     1.2139170    -1.4782970
  N        1.8781370    -0.0233820     0.6524530
  C       -0.6274113     0.2660285    -0.3352384
  C        1.8702590     1.2384050     1.3961810
  C        1.6932100    -1.2084810     1.4940670
  C       -1.3340060     1.3908220    -0.1017950
  C       -2.6674560     1.1993540     0.3271550
  C       -2.9984720    -0.1352680     0.4414500
  H        2.0840190     2.0584320     0.7119160
  H        2.6656140     1.1849010     2.1428720
  H        0.9115380     1.4151000     1.9054530
  H        1.7293810    -2.1000160     0.8695980
  H        0.7471110    -1.1811200     2.0534300
  H        2.5234680    -1.2398400     2.2034110
  H       -0.8634200     2.3493520    -0.2940320
  H       -3.3646430     2.0039100     0.5365790
  H       -3.9505650    -0.5636820     0.7303990
units angstrom
no_reorient  #important for SAPT in psi4, default
symmetry c1  #important for SAPT in psi4, default
}

set PROPERTIES_ORIGIN ["COM"]
properties('MP2/aug-cc-pvtz', properties = ['dipole'])
--------------------------------------------------------------------------

    Molecular point group: c1
  Charge       = 0
  Multiplicity = 1
  Basis Set: AUG-CC-PVTZ
    Blend: AUG-CC-PVTZ
  Basis Set: (AUG-CC-PVTZ AUX)
    Blend: AUG-CC-PVTZ-JKFIT

    Orbital Energies [Eh]
    ---------------------

    Doubly Occupied:

       1A    -92.208291     2A    -92.012450     3A    -20.553068
       4A    -20.545580     5A    -15.606222     6A    -11.301121
       7A    -11.298656     8A    -11.279224     9A    -11.272214
      10A    -11.270175    11A    -11.264994    12A     -9.172979
      13A     -9.010807    14A     -6.858175    15A     -6.857927
      16A     -6.857409    17A     -6.691587    18A     -6.690963
      19A     -6.690304    20A     -1.457615    21A     -1.340372
      22A     -1.252963    23A     -1.195923    24A     -1.042395
      25A     -1.010972    26A     -0.981562    27A     -0.947379
      28A     -0.861801    29A     -0.789748    30A     -0.752348
      31A     -0.728074    32A     -0.704364    33A     -0.662613
      34A     -0.658753    35A     -0.632703    36A     -0.616883
      37A     -0.592741    38A     -0.579769    39A     -0.571784
      40A     -0.555216    41A     -0.545517    42A     -0.541620
      43A     -0.512200    44A     -0.498687    45A     -0.492600
      46A     -0.473417    47A     -0.464811    48A     -0.419470
      49A     -0.376436    50A     -0.354755

  @DF-RHF Final Energy: -1231.78301482735469

   => Energetics <=

    Nuclear Repulsion Energy =            892.3740816879923159
    One-Electron Energy =               -3468.1989202806385038
    Two-Electron Energy =                1344.0418237652916105
    Total Energy =                      -1231.7830148273546911
  Basis Set: (AUG-CC-PVTZ AUX)
    Blend: AUG-CC-PVTZ-RI
    Molecular point group: c1

    Geometry (in Angstrom), charge = 0, multiplicity = 1:

       Center              X                  Y                   Z               Mass
    ------------   -----------------  -----------------  -----------------  -----------------
         S            1.014496101775     0.007800853583    -0.716193499019    31.972071174400
         S           -1.686956898225    -1.150528146417     0.069024500981    31.972071174400
         O            1.143089101775    -1.326618146417    -1.299325499019    15.994914619570
         O            1.394948101775     1.229198853583    -1.420887499019    15.994914619570
         N            1.887279101775    -0.008100146417     0.709862500981    14.003074004430
         C           -0.618269198225     0.281310353583    -0.277828899019    12.000000000000
         C            1.879401101775     1.253686853583     1.453590500981    12.000000000000
         C            1.702352101775    -1.193199146417     1.551476500981    12.000000000000
         C           -1.324863898225     1.406103853583    -0.044385499019    12.000000000000
         C           -2.658313898225     1.214635853583     0.384564500981    12.000000000000
         C           -2.989329898225    -0.119986146417     0.498859500981    12.000000000000
         H            2.093161101775     2.073713853583     0.769325500981     1.007825032230
         H            2.674756101775     1.200182853583     2.200281500981     1.007825032230
         H            0.920680101775     1.430381853583     1.962862500981     1.007825032230
         H            1.738523101775    -2.084734146417     0.927007500981     1.007825032230
         H            0.756253101775    -1.165838146417     2.110839500981     1.007825032230
         H            2.532610101775    -1.224558146417     2.260820500981     1.007825032230
         H           -0.854277898225     2.364633853583    -0.236622499019     1.007825032230
         H           -3.355500898225     2.019191853583     0.593988500981     1.007825032230
         H           -3.941422898225    -0.548400146417     0.787808500981     1.007825032230

  Basis Set: AUG-CC-PVTZ
    Blend: AUG-CC-PVTZ
  Basis Set: (AUG-CC-PVTZ AUX)
    Blend: AUG-CC-PVTZ-JKFIT
	 Reference Energy          =   -1231.7830148273546911 [Eh]
	 Singles Energy            =      -0.0000000000000000 [Eh]
	 Same-Spin Energy          =      -0.5853393401750617 [Eh]
	 Opposite-Spin Energy      =      -1.7439026963216537 [Eh]
	 Correlation Energy        =      -2.3292420364967157 [Eh]
	 Total Energy              =   -1234.1122568638513712 [Eh]

	 ================> DF-SCS-MP2 Energies <==================
	-----------------------------------------------------------
	 SCS Same-Spin Scale       =       0.3333333333333333 [-]
	 SCS Opposite-Spin Scale   =       1.2000000000000000 [-]
	 SCS Same-Spin Energy      =      -0.1951131133916872 [Eh]
	 SCS Opposite-Spin Energy  =      -2.0926832355859846 [Eh]
	 SCS Correlation Energy    =      -2.2877963489776718 [Eh]
	 SCS Total Energy          =   -1234.0708111763324268 [Eh]
	-----------------------------------------------------------

  Dipole Moment: [D]
     X:    -2.6232      Y:     0.8365      Z:     4.7899     Total:     5.5248

*** Psi4 exiting successfully. Buy a developer a beer!
