                               Psi4 1.3.2 release

  ==> Input File <==

--------------------------------------------------------------------------
#psi4
#
memory 32 gb

molecule  {
0 1
  S        0.9784424     0.1038301    -0.7511158
  S       -1.6960990    -1.1658100     0.0116150
  O        1.1339470    -1.3419000    -1.3567350
  O        1.3858060     1.2139170    -1.4782970
  N        1.8781370    -0.0233820     0.6524530
  C       -0.6861290     0.1873580    -0.3161810
  C        1.8702590     1.2384050     1.3961810
  C        1.6932100    -1.2084810     1.4940670
  C       -1.3340060     1.3908220    -0.1017950
  C       -2.6674560     1.1993540     0.3271550
  C       -2.9984720    -0.1352680     0.4414500
  H        2.0840190     2.0584320     0.7119160
  H        2.6656140     1.1849010     2.1428720
  H        0.9115380     1.4151000     1.9054530
  H        1.7293810    -2.1000160     0.8695980
  H        0.7471110    -1.1811200     2.0534300
  H        2.5234680    -1.2398400     2.2034110
  H       -0.8634200     2.3493520    -0.2940320
  H       -3.3646430     2.0039100     0.5365790
  H       -3.9505650    -0.5636820     0.7303990
units angstrom
no_reorient  #important for SAPT in psi4, default
symmetry c1  #important for SAPT in psi4, default
}

set PROPERTIES_ORIGIN ["COM"]
properties('MP2/aug-cc-pvtz', properties = ['dipole'])
--------------------------------------------------------------------------

    Molecular point group: c1
  Charge       = 0
  Multiplicity = 1
  Basis Set: AUG-CC-PVTZ
    Blend: AUG-CC-PVTZ
  Basis Set: (AUG-CC-PVTZ AUX)
    Blend: AUG-CC-PVTZ-JKFIT

    Orbital Energies [Eh]
    ---------------------

    Doubly Occupied:

       1A    -92.201929     2A    -92.021016     3A    -20.565417
       4A    -20.521020     5A    -15.606689     6A    -11.300506
       7A    -11.300366     8A    -11.282617     9A    -11.272925
      10A    -11.269232    11A    -11.267212    12A     -9.168501
      13A     -9.020079    14A     -6.853608    15A     -6.853250
      16A     -6.852495    17A     -6.700850    18A     -6.700351
      19A     -6.699556    20A     -1.476158    21A     -1.303789
      22A     -1.244585    23A     -1.206027    24A     -1.042516
      25A     -1.021038    26A     -0.982003    27A     -0.946298
      28A     -0.861017    29A     -0.790599    30A     -0.756043
      31A     -0.730802    32A     -0.705706    33A     -0.660967
      34A     -0.660366    35A     -0.632436    36A     -0.615283
      37A     -0.591491    38A     -0.581804    39A     -0.572747
      40A     -0.568117    41A     -0.553531    42A     -0.543034
      43A     -0.509920    44A     -0.503647    45A     -0.493486
      46A     -0.448460    47A     -0.445815    48A     -0.419107
      49A     -0.375669    50A     -0.358420

  @DF-RHF Final Energy: -1231.76576398766747

   => Energetics <=

    Nuclear Repulsion Energy =            893.1938465688209590
    One-Electron Energy =               -3469.8022206631749214
    Two-Electron Energy =                1344.8426101066866067
    Total Energy =                      -1231.7657639876674693
  Basis Set: (AUG-CC-PVTZ AUX)
    Blend: AUG-CC-PVTZ-RI
    Molecular point group: c1

    Geometry (in Angstrom), charge = 0, multiplicity = 1:

       Center              X                  Y                   Z               Mass
    ------------   -----------------  -----------------  -----------------  -----------------
         S            0.995778066054     0.105422434531    -0.698667629351    31.972071174400
         S           -1.678763333946    -1.164217665469     0.064063170649    31.972071174400
         O            1.151282666054    -1.340307665469    -1.304286829351    15.994914619570
         O            1.403141666054     1.215509334531    -1.425848829351    15.994914619570
         N            1.895472666054    -0.021789665469     0.704901170649    14.003074004430
         C           -0.668793333946     0.188950334531    -0.263732829351    12.000000000000
         C            1.887594666054     1.239997334531     1.448629170649    12.000000000000
         C            1.710545666054    -1.206888665469     1.546515170649    12.000000000000
         C           -1.316670333946     1.392414334531    -0.049346829351    12.000000000000
         C           -2.650120333946     1.200946334531     0.379603170649    12.000000000000
         C           -2.981136333946    -0.133675665469     0.493898170649    12.000000000000
         H            2.101354666054     2.060024334531     0.764364170649     1.007825032230
         H            2.682949666054     1.186493334531     2.195320170649     1.007825032230
         H            0.928873666054     1.416692334531     1.957901170649     1.007825032230
         H            1.746716666054    -2.098423665469     0.922046170649     1.007825032230
         H            0.764446666054    -1.179527665469     2.105878170649     1.007825032230
         H            2.540803666054    -1.238247665469     2.255859170649     1.007825032230
         H           -0.846084333946     2.350944334531    -0.241583829351     1.007825032230
         H           -3.347307333946     2.005502334531     0.589027170649     1.007825032230
         H           -3.933229333946    -0.562089665469     0.782847170649     1.007825032230

  Basis Set: AUG-CC-PVTZ
    Blend: AUG-CC-PVTZ
  Basis Set: (AUG-CC-PVTZ AUX)
    Blend: AUG-CC-PVTZ-JKFIT
	 Reference Energy          =   -1231.7657639876674693 [Eh]
	 Singles Energy            =      -0.0000000000000000 [Eh]
	 Same-Spin Energy          =      -0.5864113771632802 [Eh]
	 Opposite-Spin Energy      =      -1.7449176132496858 [Eh]
	 Correlation Energy        =      -2.3313289904129659 [Eh]
	 Total Energy              =   -1234.0970929780803544 [Eh]

	 ================> DF-SCS-MP2 Energies <==================
	-----------------------------------------------------------
	 SCS Same-Spin Scale       =       0.3333333333333333 [-]
	 SCS Opposite-Spin Scale   =       1.2000000000000000 [-]
	 SCS Same-Spin Energy      =      -0.1954704590544267 [Eh]
	 SCS Opposite-Spin Energy  =      -2.0939011358996229 [Eh]
	 SCS Correlation Energy    =      -2.2893715949540496 [Eh]
	 SCS Total Energy          =   -1234.0551355826214603 [Eh]
	-----------------------------------------------------------

  Dipole Moment: [D]
     X:    -2.9485      Y:     1.6102      Z:     5.0168     Total:     6.0378

*** Psi4 exiting successfully. Buy a developer a beer!
