                               Psi4 1.4a3.dev225

  ==> Input File <==

--------------------------------------------------------------------------
#psi4
#
memory 32 gb

molecule  {
0 1
  S        1.0053540    -0.0074810    -0.7736030
  S       -1.6960990    -1.1658100     0.0116150
  O        1.1339470    -1.3419000    -1.3567350
  O        1.3858060     1.2139170    -1.4782970
  N        1.8781370    -0.0233820     0.6524530
  C       -0.7340996     0.1928837    -0.3032085
  C        1.8702590     1.2384050     1.3961810
  C        1.6932100    -1.2084810     1.4940670
  C       -1.3340060     1.3908220    -0.1017950
  C       -2.6674560     1.1993540     0.3271550
  C       -2.9984720    -0.1352680     0.4414500
  H        2.0840190     2.0584320     0.7119160
  H        2.6656140     1.1849010     2.1428720
  H        0.9115380     1.4151000     1.9054530
  H        1.7293810    -2.1000160     0.8695980
  H        0.7471110    -1.1811200     2.0534300
  H        2.5234680    -1.2398400     2.2034110
  H       -0.8634200     2.3493520    -0.2940320
  H       -3.3646430     2.0039100     0.5365790
  H       -3.9505650    -0.5636820     0.7303990
units angstrom
no_reorient  #important for SAPT in psi4, default
symmetry c1  #important for SAPT in psi4, default
}

set PROPERTIES_ORIGIN ["COM"]
properties('MP2/aug-cc-pvtz', properties = ['dipole'])
--------------------------------------------------------------------------

    Molecular point group: c1
  Charge       = 0
  Multiplicity = 1
  Basis Set: AUG-CC-PVTZ
    Blend: AUG-CC-PVTZ
  Basis Set: (AUG-CC-PVTZ AUX)
    Blend: AUG-CC-PVTZ-JKFIT

    Orbital Energies [Eh]
    ---------------------

    Doubly Occupied:

       1A    -92.208797     2A    -92.014400     3A    -20.550947
       4A    -20.550461     5A    -15.607715     6A    -11.297582
       7A    -11.291615     8A    -11.272655     9A    -11.271364
      10A    -11.270212    11A    -11.262696    12A     -9.172649
      13A     -9.014643    14A     -6.857736    15A     -6.857380
      16A     -6.857106    17A     -6.695544    18A     -6.694937
      19A     -6.694137    20A     -1.455169    21A     -1.340438
      22A     -1.253439    23A     -1.207117    24A     -1.026102
      25A     -1.020664    26A     -0.982376    27A     -0.946170
      28A     -0.846211    29A     -0.787748    30A     -0.753513
      31A     -0.728766    32A     -0.703790    33A     -0.662311
      34A     -0.658647    35A     -0.624964    36A     -0.616239
      37A     -0.586461    38A     -0.579565    39A     -0.572769
      40A     -0.566864    41A     -0.553346    42A     -0.542598
      43A     -0.511585    44A     -0.502715    45A     -0.498576
      46A     -0.473984    47A     -0.464588    48A     -0.415887
      49A     -0.372985    50A     -0.354781

  @DF-RHF Final Energy: -1231.78772726264788

   => Energetics <=

    Nuclear Repulsion Energy =            892.1948588382723528
    One-Electron Energy =               -3467.8592828404571264
    Two-Electron Energy =                1343.8766967395367828
    Total Energy =                      -1231.7877272626478771
  Basis Set: (AUG-CC-PVTZ AUX)
    Blend: AUG-CC-PVTZ-RI
    Molecular point group: c1

    Geometry (in Angstrom), charge = 0, multiplicity = 1:

       Center              X                  Y                   Z               Mass
    ------------   -----------------  -----------------  -----------------  -----------------
         S            1.021198769446     0.012396158657    -0.718205770049    31.972071174400
         S           -1.680254230554    -1.145932841343     0.067012229951    31.972071174400
         O            1.149791769446    -1.322022841343    -1.301337770049    15.994914619570
         O            1.401650769446     1.233794158657    -1.422899770049    15.994914619570
         N            1.893981769446    -0.003504841343     0.707850229951    14.003074004430
         C           -0.718254830554     0.212760858657    -0.247811270049    12.000000000000
         C            1.886103769446     1.258282158657     1.451578229951    12.000000000000
         C            1.709054769446    -1.188603841343     1.549464229951    12.000000000000
         C           -1.318161230554     1.410699158657    -0.046397770049    12.000000000000
         C           -2.651611230554     1.219231158657     0.382552229951    12.000000000000
         C           -2.982627230554    -0.115390841343     0.496847229951    12.000000000000
         H            2.099863769446     2.078309158657     0.767313229951     1.007825032230
         H            2.681458769446     1.204778158657     2.198269229951     1.007825032230
         H            0.927382769446     1.434977158657     1.960850229951     1.007825032230
         H            1.745225769446    -2.080138841343     0.924995229951     1.007825032230
         H            0.762955769446    -1.161242841343     2.108827229951     1.007825032230
         H            2.539312769446    -1.219962841343     2.258808229951     1.007825032230
         H           -0.847575230554     2.369229158657    -0.238634770049     1.007825032230
         H           -3.348798230554     2.023787158657     0.591976229951     1.007825032230
         H           -3.934720230554    -0.543804841343     0.785796229951     1.007825032230

  Basis Set: AUG-CC-PVTZ
    Blend: AUG-CC-PVTZ
  Basis Set: (AUG-CC-PVTZ AUX)
    Blend: AUG-CC-PVTZ-JKFIT
	 Reference Energy          =   -1231.7877272626478771 [Eh]
	 Singles Energy            =      -0.0000000000000000 [Eh]
	 Same-Spin Energy          =      -0.5858270048103305 [Eh]
	 Opposite-Spin Energy      =      -1.7436834502201375 [Eh]
	 Correlation Energy        =      -2.3295104550304679 [Eh]
	 Total Energy              =   -1234.1172377176783357 [Eh]

	 ================> DF-SCS-MP2 Energies <==================
	-----------------------------------------------------------
	 SCS Same-Spin Scale       =       0.3333333333333333 [-]
	 SCS Opposite-Spin Scale   =       1.2000000000000000 [-]
	 SCS Same-Spin Energy      =      -0.1952756682701101 [Eh]
	 SCS Opposite-Spin Energy  =      -2.0924201402641649 [Eh]
	 SCS Correlation Energy    =      -2.2876958085342749 [Eh]
	 SCS Total Energy          =   -1234.0754230711820583 [Eh]
	-----------------------------------------------------------

  Dipole Moment: [D]
     X:    -2.4380      Y:     0.7188      Z:     4.7421     Total:     5.3804

*** Psi4 exiting successfully. Buy a developer a beer!
