                               Psi4 1.3.2 release

  ==> Input File <==

--------------------------------------------------------------------------
#psi4
#
memory 32 gb

molecule  {
0 1
  S        1.0053540    -0.0074810    -0.7736030
  S       -1.6960990    -1.1658100     0.0116150
  O        1.1090365    -1.3457756    -1.3528014
  O        1.3858060     1.2139170    -1.4782970
  N        1.8781370    -0.0233820     0.6524530
  C       -0.6861290     0.1873580    -0.3161810
  C        1.8702590     1.2384050     1.3961810
  C        1.6932100    -1.2084810     1.4940670
  C       -1.3340060     1.3908220    -0.1017950
  C       -2.6674560     1.1993540     0.3271550
  C       -2.9984720    -0.1352680     0.4414500
  H        2.0840190     2.0584320     0.7119160
  H        2.6656140     1.1849010     2.1428720
  H        0.9115380     1.4151000     1.9054530
  H        1.7293810    -2.1000160     0.8695980
  H        0.7471110    -1.1811200     2.0534300
  H        2.5234680    -1.2398400     2.2034110
  H       -0.8634200     2.3493520    -0.2940320
  H       -3.3646430     2.0039100     0.5365790
  H       -3.9505650    -0.5636820     0.7303990
units angstrom
no_reorient  #important for SAPT in psi4, default
symmetry c1  #important for SAPT in psi4, default
}

set PROPERTIES_ORIGIN ["COM"]
properties('MP2/aug-cc-pvtz', properties = ['dipole'])
--------------------------------------------------------------------------

    Molecular point group: c1
  Charge       = 0
  Multiplicity = 1
  Basis Set: AUG-CC-PVTZ
    Blend: AUG-CC-PVTZ
  Basis Set: (AUG-CC-PVTZ AUX)
    Blend: AUG-CC-PVTZ-JKFIT

    Orbital Energies [Eh]
    ---------------------

    Doubly Occupied:

       1A    -92.208651     2A    -92.015309     3A    -20.550275
       4A    -20.550226     5A    -15.607186     6A    -11.297545
       7A    -11.294797     8A    -11.276150     9A    -11.272478
      10A    -11.270974    11A    -11.263563    12A     -9.172775
      13A     -9.014814    14A     -6.857889    15A     -6.857639
      16A     -6.857249    17A     -6.695650    18A     -6.695122
      19A     -6.694362    20A     -1.456216    21A     -1.340978
      22A     -1.253335    23A     -1.200458    24A     -1.030582
      25A     -1.016447    26A     -0.982056    27A     -0.946373
      28A     -0.852983    29A     -0.785803    30A     -0.753544
      31A     -0.727308    32A     -0.704274    33A     -0.662571
      34A     -0.658804    35A     -0.627554    36A     -0.616695
      37A     -0.587700    38A     -0.579615    39A     -0.572359
      40A     -0.563669    41A     -0.549002    42A     -0.542251
      43A     -0.509338    44A     -0.500965    45A     -0.498200
      46A     -0.473951    47A     -0.467919    48A     -0.417640
      49A     -0.371668    50A     -0.353341

  @DF-RHF Final Energy: -1231.78905907498483

   => Energetics <=

    Nuclear Repulsion Energy =            892.6917557182473502
    One-Electron Energy =               -3468.8491233979075332
    Two-Electron Energy =                1344.3683086046753488
    Total Energy =                      -1231.7890590749848343
  Basis Set: (AUG-CC-PVTZ AUX)
    Blend: AUG-CC-PVTZ-RI
    Molecular point group: c1

    Geometry (in Angstrom), charge = 0, multiplicity = 1:

       Center              X                  Y                   Z               Mass
    ------------   -----------------  -----------------  -----------------  -----------------
         S            1.020271026261     0.013067851185    -0.717720174363    31.972071174400
         S           -1.681181973739    -1.145261148815     0.067497825637    31.972071174400
         O            1.123953526261    -1.325226748815    -1.296918574363    15.994914619570
         O            1.400723026261     1.234465851185    -1.422414174363    15.994914619570
         N            1.893054026261    -0.002833148815     0.708335825637    14.003074004430
         C           -0.671211973739     0.207906851185    -0.260298174363    12.000000000000
         C            1.885176026261     1.258953851185     1.452063825637    12.000000000000
         C            1.708127026261    -1.187932148815     1.549949825637    12.000000000000
         C           -1.319088973739     1.411370851185    -0.045912174363    12.000000000000
         C           -2.652538973739     1.219902851185     0.383037825637    12.000000000000
         C           -2.983554973739    -0.114719148815     0.497332825637    12.000000000000
         H            2.098936026261     2.078980851185     0.767798825637     1.007825032230
         H            2.680531026261     1.205449851185     2.198754825637     1.007825032230
         H            0.926455026261     1.435648851185     1.961335825637     1.007825032230
         H            1.744298026261    -2.079467148815     0.925480825637     1.007825032230
         H            0.762028026261    -1.160571148815     2.109312825637     1.007825032230
         H            2.538385026261    -1.219291148815     2.259293825637     1.007825032230
         H           -0.848502973739     2.369900851185    -0.238149174363     1.007825032230
         H           -3.349725973739     2.024458851185     0.592461825637     1.007825032230
         H           -3.935647973739    -0.543133148815     0.786281825637     1.007825032230

  Basis Set: AUG-CC-PVTZ
    Blend: AUG-CC-PVTZ
  Basis Set: (AUG-CC-PVTZ AUX)
    Blend: AUG-CC-PVTZ-JKFIT
	 Reference Energy          =   -1231.7890590749848343 [Eh]
	 Singles Energy            =      -0.0000000000000000 [Eh]
	 Same-Spin Energy          =      -0.5861876506046111 [Eh]
	 Opposite-Spin Energy      =      -1.7441173523890845 [Eh]
	 Correlation Energy        =      -2.3303050029936956 [Eh]
	 Total Energy              =   -1234.1193640779786165 [Eh]

	 ================> DF-SCS-MP2 Energies <==================
	-----------------------------------------------------------
	 SCS Same-Spin Scale       =       0.3333333333333333 [-]
	 SCS Opposite-Spin Scale   =       1.2000000000000000 [-]
	 SCS Same-Spin Energy      =      -0.1953958835348704 [Eh]
	 SCS Opposite-Spin Energy  =      -2.0929408228669013 [Eh]
	 SCS Correlation Energy    =      -2.2883367064017719 [Eh]
	 SCS Total Energy          =   -1234.0773957813867128 [Eh]
	-----------------------------------------------------------

  Dipole Moment: [D]
     X:    -2.4863      Y:     0.7539      Z:     4.7569     Total:     5.4202

*** Psi4 exiting successfully. Buy a developer a beer!
