                               Psi4 1.3.2 release

  ==> Input File <==

--------------------------------------------------------------------------
#psi4
#
memory 32 gb

molecule  {
0 1
  S        1.0053540    -0.0074810    -0.7736030
  S       -1.6960990    -1.1658100     0.0116150
  O        1.1339470    -1.3419000    -1.3567350
  O        1.3858060     1.2139170    -1.4782970
  N        1.8781370    -0.0233820     0.6524530
  C       -0.6861290     0.1873580    -0.3161810
  C        1.8702590     1.2384050     1.3961810
  C        1.6932100    -1.2084810     1.4940670
  C       -1.3340060     1.3908220    -0.1017950
  C       -2.6674560     1.1993540     0.3271550
  C       -3.1503077    -0.0151234     0.4915618
  H        2.0840190     2.0584320     0.7119160
  H        2.6656140     1.1849010     2.1428720
  H        0.9115380     1.4151000     1.9054530
  H        1.7293810    -2.1000160     0.8695980
  H        0.7471110    -1.1811200     2.0534300
  H        2.5234680    -1.2398400     2.2034110
  H       -0.8634200     2.3493520    -0.2940320
  H       -3.3646430     2.0039100     0.5365790
  H       -3.9505650    -0.5636820     0.7303990
units angstrom
no_reorient  #important for SAPT in psi4, default
symmetry c1  #important for SAPT in psi4, default
}

set PROPERTIES_ORIGIN ["COM"]
properties('MP2/aug-cc-pvtz', properties = ['dipole'])
--------------------------------------------------------------------------

    Molecular point group: c1
  Charge       = 0
  Multiplicity = 1
  Basis Set: AUG-CC-PVTZ
    Blend: AUG-CC-PVTZ
  Basis Set: (AUG-CC-PVTZ AUX)
    Blend: AUG-CC-PVTZ-JKFIT

    Orbital Energies [Eh]
    ---------------------

    Doubly Occupied:

       1A    -92.210653     2A    -92.002175     3A    -20.551499
       4A    -20.551096     5A    -15.609040     6A    -11.307808
       7A    -11.298274     8A    -11.278428     9A    -11.273266
      10A    -11.270590    11A    -11.267957    12A     -9.174904
      13A     -9.000177    14A     -6.860037    15A     -6.859765
      16A     -6.859318    17A     -6.681028    18A     -6.680171
      19A     -6.679607    20A     -1.457637    21A     -1.341484
      22A     -1.254513    23A     -1.190680    24A     -1.048116
      25A     -0.994509    26A     -0.982087    27A     -0.952327
      28A     -0.861573    29A     -0.804583    30A     -0.753283
      31A     -0.728359    32A     -0.704702    33A     -0.663933
      34A     -0.659355    35A     -0.635788    36A     -0.624029
      37A     -0.613863    38A     -0.579786    39A     -0.572234
      40A     -0.549654    41A     -0.542610    42A     -0.541895
      43A     -0.506795    44A     -0.498333    45A     -0.476605
      46A     -0.469705    47A     -0.458854    48A     -0.418612
      49A     -0.382428    50A     -0.350575

  @DF-RHF Final Energy: -1231.76163636055799

   => Energetics <=

    Nuclear Repulsion Energy =            888.5661935254336186
    One-Electron Energy =               -3460.5862610568315176
    Two-Electron Energy =                1340.2584311708401401
    Total Energy =                      -1231.7616363605579863
  Basis Set: (AUG-CC-PVTZ AUX)
    Blend: AUG-CC-PVTZ-RI
    Molecular point group: c1

    Geometry (in Angstrom), charge = 0, multiplicity = 1:

       Center              X                  Y                   Z               Mass
    ------------   -----------------  -----------------  -----------------  -----------------
         S            1.027724070232     0.005195252882    -0.720539037946    31.972071174400
         S           -1.673728929768    -1.153133747118     0.064678962054    31.972071174400
         O            1.156317070232    -1.329223747118    -1.303671037946    15.994914619570
         O            1.408176070232     1.226593252882    -1.425233037946    15.994914619570
         N            1.900507070232    -0.010705747118     0.705516962054    14.003074004430
         C           -0.663758929768     0.200034252882    -0.263117037946    12.000000000000
         C            1.892629070232     1.251081252882     1.449244962054    12.000000000000
         C            1.715580070232    -1.195804747118     1.547130962054    12.000000000000
         C           -1.311635929768     1.403498252882    -0.048731037946    12.000000000000
         C           -2.645085929768     1.212030252882     0.380218962054    12.000000000000
         C           -3.127937629768    -0.002447147118     0.544625762054    12.000000000000
         H            2.106389070232     2.071108252882     0.764979962054     1.007825032230
         H            2.687984070232     1.197577252882     2.195935962054     1.007825032230
         H            0.933908070232     1.427776252882     1.958516962054     1.007825032230
         H            1.751751070232    -2.087339747118     0.922661962054     1.007825032230
         H            0.769481070232    -1.168443747118     2.106493962054     1.007825032230
         H            2.545838070232    -1.227163747118     2.256474962054     1.007825032230
         H           -0.841049929768     2.362028252882    -0.240968037946     1.007825032230
         H           -3.342272929768     2.016586252882     0.589642962054     1.007825032230
         H           -3.928194929768    -0.551005747118     0.783462962054     1.007825032230

  Basis Set: AUG-CC-PVTZ
    Blend: AUG-CC-PVTZ
  Basis Set: (AUG-CC-PVTZ AUX)
    Blend: AUG-CC-PVTZ-JKFIT
	 Reference Energy          =   -1231.7616363605579863 [Eh]
	 Singles Energy            =      -0.0000000000000000 [Eh]
	 Same-Spin Energy          =      -0.5849367555668998 [Eh]
	 Opposite-Spin Energy      =      -1.7454176617903774 [Eh]
	 Correlation Energy        =      -2.3303544173572774 [Eh]
	 Total Energy              =   -1234.0919907779152709 [Eh]

	 ================> DF-SCS-MP2 Energies <==================
	-----------------------------------------------------------
	 SCS Same-Spin Scale       =       0.3333333333333333 [-]
	 SCS Opposite-Spin Scale   =       1.2000000000000000 [-]
	 SCS Same-Spin Energy      =      -0.1949789185222999 [Eh]
	 SCS Opposite-Spin Energy  =      -2.0945011941484526 [Eh]
	 SCS Correlation Energy    =      -2.2894801126707525 [Eh]
	 SCS Total Energy          =   -1234.0511164732288307 [Eh]
	-----------------------------------------------------------

  Dipole Moment: [D]
     X:    -2.6220      Y:     1.0038      Z:     4.8205     Total:     5.5785

*** Psi4 exiting successfully. Buy a developer a beer!
