                               Psi4 1.3.2 release

  ==> Input File <==

--------------------------------------------------------------------------
#psi4
#
memory 32 gb

molecule  {
0 1
  S        1.0053540    -0.0074810    -0.7736030
  S       -1.6960990    -1.1658100     0.0116150
  O        1.1193614    -1.3345031    -1.3763201
  O        1.3858060     1.2139170    -1.4782970
  N        1.8781370    -0.0233820     0.6524530
  C       -0.6861290     0.1873580    -0.3161810
  C        1.8702590     1.2384050     1.3961810
  C        1.6932100    -1.2084810     1.4940670
  C       -1.3340060     1.3908220    -0.1017950
  C       -2.6674560     1.1993540     0.3271550
  C       -2.9984720    -0.1352680     0.4414500
  H        2.0840190     2.0584320     0.7119160
  H        2.6656140     1.1849010     2.1428720
  H        0.9115380     1.4151000     1.9054530
  H        1.7293810    -2.1000160     0.8695980
  H        0.7471110    -1.1811200     2.0534300
  H        2.5234680    -1.2398400     2.2034110
  H       -0.8634200     2.3493520    -0.2940320
  H       -3.3646430     2.0039100     0.5365790
  H       -3.9505650    -0.5636820     0.7303990
units angstrom
no_reorient  #important for SAPT in psi4, default
symmetry c1  #important for SAPT in psi4, default
}

set PROPERTIES_ORIGIN ["COM"]
properties('MP2/aug-cc-pvtz', properties = ['dipole'])
--------------------------------------------------------------------------

    Molecular point group: c1
  Charge       = 0
  Multiplicity = 1
  Basis Set: AUG-CC-PVTZ
    Blend: AUG-CC-PVTZ
  Basis Set: (AUG-CC-PVTZ AUX)
    Blend: AUG-CC-PVTZ-JKFIT

    Orbital Energies [Eh]
    ---------------------

    Doubly Occupied:

       1A    -92.208277     2A    -92.015697     3A    -20.550007
       4A    -20.548505     5A    -15.607726     6A    -11.298114
       7A    -11.295173     8A    -11.276576     9A    -11.272817
      10A    -11.271638    11A    -11.263915    12A     -9.172447
      13A     -9.015215    14A     -6.857558    15A     -6.857283
      16A     -6.856935    17A     -6.696054    18A     -6.695526
      19A     -6.694766    20A     -1.455668    21A     -1.339270
      22A     -1.254005    23A     -1.200868    24A     -1.031103
      25A     -1.016836    26A     -0.982536    27A     -0.946772
      28A     -0.853255    29A     -0.786174    30A     -0.753705
      31A     -0.727455    32A     -0.703781    33A     -0.662272
      34A     -0.659171    35A     -0.627819    36A     -0.616241
      37A     -0.587975    38A     -0.580137    39A     -0.572720
      40A     -0.563765    41A     -0.549435    42A     -0.542627
      43A     -0.509461    44A     -0.500949    45A     -0.497137
      46A     -0.472653    47A     -0.468103    48A     -0.418115
      49A     -0.372042    50A     -0.353702

  @DF-RHF Final Energy: -1231.78935660518232

   => Energetics <=

    Nuclear Repulsion Energy =            892.3949148737996211
    One-Electron Energy =               -3468.2485837143317440
    Two-Electron Energy =                1344.0643122353496892
    Total Energy =                      -1231.7893566051823200
  Basis Set: (AUG-CC-PVTZ AUX)
    Blend: AUG-CC-PVTZ-RI
    Molecular point group: c1

    Geometry (in Angstrom), charge = 0, multiplicity = 1:

       Center              X                  Y                   Z               Mass
    ------------   -----------------  -----------------  -----------------  -----------------
         S            1.019406421891     0.012123895045    -0.715750724703    31.972071174400
         S           -1.682046578109    -1.146205104955     0.069467275297    31.972071174400
         O            1.133413821891    -1.314898204955    -1.318467824703    15.994914619570
         O            1.399858421891     1.233521895045    -1.420444724703    15.994914619570
         N            1.892189421891    -0.003777104955     0.710305275297    14.003074004430
         C           -0.672076578109     0.206962895045    -0.258328724703    12.000000000000
         C            1.884311421891     1.258009895045     1.454033275297    12.000000000000
         C            1.707262421891    -1.188876104955     1.551919275297    12.000000000000
         C           -1.319953578109     1.410426895045    -0.043942724703    12.000000000000
         C           -2.653403578109     1.218958895045     0.385007275297    12.000000000000
         C           -2.984419578109    -0.115663104955     0.499302275297    12.000000000000
         H            2.098071421891     2.078036895045     0.769768275297     1.007825032230
         H            2.679666421891     1.204505895045     2.200724275297     1.007825032230
         H            0.925590421891     1.434704895045     1.963305275297     1.007825032230
         H            1.743433421891    -2.080411104955     0.927450275297     1.007825032230
         H            0.761163421891    -1.161515104955     2.111282275297     1.007825032230
         H            2.537520421891    -1.220235104955     2.261263275297     1.007825032230
         H           -0.849367578109     2.368956895045    -0.236179724703     1.007825032230
         H           -3.350590578109     2.023514895045     0.594431275297     1.007825032230
         H           -3.936512578109    -0.544077104955     0.788251275297     1.007825032230

  Basis Set: AUG-CC-PVTZ
    Blend: AUG-CC-PVTZ
  Basis Set: (AUG-CC-PVTZ AUX)
    Blend: AUG-CC-PVTZ-JKFIT
	 Reference Energy          =   -1231.7893566051823200 [Eh]
	 Singles Energy            =      -0.0000000000000000 [Eh]
	 Same-Spin Energy          =      -0.5860853161695013 [Eh]
	 Opposite-Spin Energy      =      -1.7439537578779434 [Eh]
	 Correlation Energy        =      -2.3300390740474448 [Eh]
	 Total Energy              =   -1234.1193956792296831 [Eh]

	 ================> DF-SCS-MP2 Energies <==================
	-----------------------------------------------------------
	 SCS Same-Spin Scale       =       0.3333333333333333 [-]
	 SCS Opposite-Spin Scale   =       1.2000000000000000 [-]
	 SCS Same-Spin Energy      =      -0.1953617720565004 [Eh]
	 SCS Opposite-Spin Energy  =      -2.0927445094535320 [Eh]
	 SCS Correlation Energy    =      -2.2881062815100326 [Eh]
	 SCS Total Energy          =   -1234.0774628866922740 [Eh]
	-----------------------------------------------------------

  Dipole Moment: [D]
     X:    -2.5192      Y:     0.7320      Z:     4.8204     Total:     5.4881

*** Psi4 exiting successfully. Buy a developer a beer!
