                               Psi4 1.3.2 release

  ==> Input File <==

--------------------------------------------------------------------------
#psi4
#
memory 32 gb

molecule  {
0 1
  S        1.0053540    -0.0074810    -0.7736030
  S       -1.6960990    -1.1658100     0.0116150
  O        1.1339470    -1.3419000    -1.3567350
  O        1.3858060     1.2139170    -1.4782970
  N        2.0213845    -0.0429321     0.5538246
  C       -0.6861290     0.1873580    -0.3161810
  C        1.8702590     1.2384050     1.3961810
  C        1.6932100    -1.2084810     1.4940670
  C       -1.3340060     1.3908220    -0.1017950
  C       -2.6674560     1.1993540     0.3271550
  C       -2.9984720    -0.1352680     0.4414500
  H        2.0840190     2.0584320     0.7119160
  H        2.6656140     1.1849010     2.1428720
  H        0.9115380     1.4151000     1.9054530
  H        1.7293810    -2.1000160     0.8695980
  H        0.7471110    -1.1811200     2.0534300
  H        2.5234680    -1.2398400     2.2034110
  H       -0.8634200     2.3493520    -0.2940320
  H       -3.3646430     2.0039100     0.5365790
  H       -3.9505650    -0.5636820     0.7303990
units angstrom
no_reorient  #important for SAPT in psi4, default
symmetry c1  #important for SAPT in psi4, default
}

set PROPERTIES_ORIGIN ["COM"]
properties('MP2/aug-cc-pvtz', properties = ['dipole'])
--------------------------------------------------------------------------

    Molecular point group: c1
  Charge       = 0
  Multiplicity = 1
  Basis Set: AUG-CC-PVTZ
    Blend: AUG-CC-PVTZ
  Basis Set: (AUG-CC-PVTZ AUX)
    Blend: AUG-CC-PVTZ-JKFIT

    Orbital Energies [Eh]
    ---------------------

    Doubly Occupied:

       1A    -92.202415     2A    -92.018959     3A    -20.542582
       4A    -20.542327     5A    -15.618833     6A    -11.302505
       7A    -11.299617     8A    -11.281319     9A    -11.276287
      10A    -11.274097    11A    -11.266963    12A     -9.167448
      13A     -9.018425    14A     -6.852448    15A     -6.852308
      16A     -6.851730    17A     -6.699245    18A     -6.698722
      19A     -6.697960    20A     -1.451516    21A     -1.334654
      22A     -1.230544    23A     -1.204263    24A     -1.032294
      25A     -1.020186    26A     -0.968428    27A     -0.943489
      28A     -0.861461    29A     -0.789458    30A     -0.752306
      31A     -0.725906    32A     -0.695014    33A     -0.654600
      34A     -0.649357    35A     -0.624987    36A     -0.611645
      37A     -0.591128    38A     -0.577484    39A     -0.572740
      40A     -0.566500    41A     -0.552919    42A     -0.516773
      43A     -0.509492    44A     -0.496591    45A     -0.491062
      46A     -0.467129    47A     -0.466490    48A     -0.436613
      49A     -0.374983    50A     -0.359195

  @DF-RHF Final Energy: -1231.77338886046755

   => Energetics <=

    Nuclear Repulsion Energy =            889.8922544038177875
    One-Electron Energy =               -3463.3444938279981216
    Two-Electron Energy =                1341.6788505637127855
    Total Energy =                      -1231.7733888604675485
  Basis Set: (AUG-CC-PVTZ AUX)
    Blend: AUG-CC-PVTZ-RI
    Molecular point group: c1

    Geometry (in Angstrom), charge = 0, multiplicity = 1:

       Center              X                  Y                   Z               Mass
    ------------   -----------------  -----------------  -----------------  -----------------
         S            1.007683316194     0.014176559682    -0.710160164413    31.972071174400
         S           -1.693769683806    -1.144152440318     0.075057835587    31.972071174400
         O            1.136276316194    -1.320242440318    -1.293292164413    15.994914619570
         O            1.388135316194     1.235574559682    -1.414854164413    15.994914619570
         N            2.023713816194    -0.021274540318     0.617267435587    14.003074004430
         C           -0.683799683806     0.209015559682    -0.252738164413    12.000000000000
         C            1.872588316194     1.260062559682     1.459623835587    12.000000000000
         C            1.695539316194    -1.186823440318     1.557509835587    12.000000000000
         C           -1.331676683806     1.412479559682    -0.038352164413    12.000000000000
         C           -2.665126683806     1.221011559682     0.390597835587    12.000000000000
         C           -2.996142683806    -0.113610440318     0.504892835587    12.000000000000
         H            2.086348316194     2.080089559682     0.775358835587     1.007825032230
         H            2.667943316194     1.206558559682     2.206314835587     1.007825032230
         H            0.913867316194     1.436757559682     1.968895835587     1.007825032230
         H            1.731710316194    -2.078358440318     0.933040835587     1.007825032230
         H            0.749440316194    -1.159462440318     2.116872835587     1.007825032230
         H            2.525797316194    -1.218182440318     2.266853835587     1.007825032230
         H           -0.861090683806     2.371009559682    -0.230589164413     1.007825032230
         H           -3.362313683806     2.025567559682     0.600021835587     1.007825032230
         H           -3.948235683806    -0.542024440318     0.793841835587     1.007825032230

  Basis Set: AUG-CC-PVTZ
    Blend: AUG-CC-PVTZ
  Basis Set: (AUG-CC-PVTZ AUX)
    Blend: AUG-CC-PVTZ-JKFIT
	 Reference Energy          =   -1231.7733888604675485 [Eh]
	 Singles Energy            =      -0.0000000000000000 [Eh]
	 Same-Spin Energy          =      -0.5865378801426180 [Eh]
	 Opposite-Spin Energy      =      -1.7468347874841683 [Eh]
	 Correlation Energy        =      -2.3333726676267865 [Eh]
	 Total Energy              =   -1234.1067615280942391 [Eh]

	 ================> DF-SCS-MP2 Energies <==================
	-----------------------------------------------------------
	 SCS Same-Spin Scale       =       0.3333333333333333 [-]
	 SCS Opposite-Spin Scale   =       1.2000000000000000 [-]
	 SCS Same-Spin Energy      =      -0.1955126267142060 [Eh]
	 SCS Opposite-Spin Energy  =      -2.0962017449810020 [Eh]
	 SCS Correlation Energy    =      -2.2917143716952078 [Eh]
	 SCS Total Energy          =   -1234.0651032321627554 [Eh]
	-----------------------------------------------------------

  Dipole Moment: [D]
     X:    -3.0692      Y:     0.8102      Z:     5.0705     Total:     5.9822

*** Psi4 exiting successfully. Buy a developer a beer!
