                               Psi4 1.3.2 release

  ==> Input File <==

--------------------------------------------------------------------------
#psi4
#
memory 32 gb

molecule  {
0 1
  S        0.9983433    -0.0684748    -0.7694078
  S       -1.6960990    -1.1658100     0.0116150
  O        1.1339470    -1.3419000    -1.3567350
  O        1.3858060     1.2139170    -1.4782970
  N        1.8781370    -0.0233820     0.6524530
  C       -0.6861290     0.1873580    -0.3161810
  C        1.8702590     1.2384050     1.3961810
  C        1.6932100    -1.2084810     1.4940670
  C       -1.3340060     1.3908220    -0.1017950
  C       -2.6674560     1.1993540     0.3271550
  C       -2.9984720    -0.1352680     0.4414500
  H        2.0840190     2.0584320     0.7119160
  H        2.6656140     1.1849010     2.1428720
  H        0.9115380     1.4151000     1.9054530
  H        1.7293810    -2.1000160     0.8695980
  H        0.7471110    -1.1811200     2.0534300
  H        2.5234680    -1.2398400     2.2034110
  H       -0.8634200     2.3493520    -0.2940320
  H       -3.3646430     2.0039100     0.5365790
  H       -3.9505650    -0.5636820     0.7303990
units angstrom
no_reorient  #important for SAPT in psi4, default
symmetry c1  #important for SAPT in psi4, default
}

set PROPERTIES_ORIGIN ["COM"]
properties('MP2/aug-cc-pvtz', properties = ['dipole'])
--------------------------------------------------------------------------

    Molecular point group: c1
  Charge       = 0
  Multiplicity = 1
  Basis Set: AUG-CC-PVTZ
    Blend: AUG-CC-PVTZ
  Basis Set: (AUG-CC-PVTZ AUX)
    Blend: AUG-CC-PVTZ-JKFIT

    Orbital Energies [Eh]
    ---------------------

    Doubly Occupied:

       1A    -92.207160     2A    -92.015733     3A    -20.562753
       4A    -20.536021     5A    -15.606672     6A    -11.299001
       7A    -11.295784     8A    -11.277328     9A    -11.271505
      10A    -11.271433    11A    -11.264614    12A     -9.172021
      13A     -9.015466    14A     -6.857116    15A     -6.856939
      16A     -6.856319    17A     -6.696332    18A     -6.695777
      19A     -6.695035    20A     -1.469556    21A     -1.329355
      22A     -1.251132    23A     -1.201447    24A     -1.031589
      25A     -1.017211    26A     -0.981934    27A     -0.946098
      28A     -0.853831    29A     -0.786903    30A     -0.754104
      31A     -0.728101    32A     -0.706458    33A     -0.663150
      34A     -0.658988    35A     -0.629724    36A     -0.616899
      37A     -0.588930    38A     -0.581002    39A     -0.571784
      40A     -0.562672    41A     -0.550107    42A     -0.542894
      43A     -0.511626    44A     -0.506664    45A     -0.497997
      46A     -0.466565    47A     -0.459078    48A     -0.417235
      49A     -0.372636    50A     -0.353928

  @DF-RHF Final Energy: -1231.78215643408907

   => Energetics <=

    Nuclear Repulsion Energy =            892.7634008211161927
    One-Electron Energy =               -3468.9659053758073242
    Two-Electron Energy =                1344.4203481206020570
    Total Energy =                      -1231.7821564340890745
  Basis Set: (AUG-CC-PVTZ AUX)
    Blend: AUG-CC-PVTZ-RI
    Molecular point group: c1

    Geometry (in Angstrom), charge = 0, multiplicity = 1:

       Center              X                  Y                   Z               Mass
    ------------   -----------------  -----------------  -----------------  -----------------
         S            1.012347824145    -0.038040952092    -0.713897795575    31.972071174400
         S           -1.682094475855    -1.135376152092     0.067125004425    31.972071174400
         O            1.147951524145    -1.311466152092    -1.301224995575    15.994914619570
         O            1.399810524145     1.244350847908    -1.422786995575    15.994914619570
         N            1.892141524145     0.007051847908     0.707963004425    14.003074004430
         C           -0.672124475855     0.217791847908    -0.260670995575    12.000000000000
         C            1.884263524145     1.268838847908     1.451691004425    12.000000000000
         C            1.707214524145    -1.178047152092     1.549577004425    12.000000000000
         C           -1.320001475855     1.421255847908    -0.046284995575    12.000000000000
         C           -2.653451475855     1.229787847908     0.382665004425    12.000000000000
         C           -2.984467475855    -0.104834152092     0.496960004425    12.000000000000
         H            2.098023524145     2.088865847908     0.767426004425     1.007825032230
         H            2.679618524145     1.215334847908     2.198382004425     1.007825032230
         H            0.925542524145     1.445533847908     1.960963004425     1.007825032230
         H            1.743385524145    -2.069582152092     0.925108004425     1.007825032230
         H            0.761115524145    -1.150686152092     2.108940004425     1.007825032230
         H            2.537472524145    -1.209406152092     2.258921004425     1.007825032230
         H           -0.849415475855     2.379785847908    -0.238521995575     1.007825032230
         H           -3.350638475855     2.034343847908     0.592089004425     1.007825032230
         H           -3.936560475855    -0.533248152092     0.785909004425     1.007825032230

  Basis Set: AUG-CC-PVTZ
    Blend: AUG-CC-PVTZ
  Basis Set: (AUG-CC-PVTZ AUX)
    Blend: AUG-CC-PVTZ-JKFIT
	 Reference Energy          =   -1231.7821564340890745 [Eh]
	 Singles Energy            =      -0.0000000000000000 [Eh]
	 Same-Spin Energy          =      -0.5861645536881447 [Eh]
	 Opposite-Spin Energy      =      -1.7441007814489020 [Eh]
	 Correlation Energy        =      -2.3302653351370468 [Eh]
	 Total Energy              =   -1234.1124217692261027 [Eh]

	 ================> DF-SCS-MP2 Energies <==================
	-----------------------------------------------------------
	 SCS Same-Spin Scale       =       0.3333333333333333 [-]
	 SCS Opposite-Spin Scale   =       1.2000000000000000 [-]
	 SCS Same-Spin Energy      =      -0.1953881845627149 [Eh]
	 SCS Opposite-Spin Energy  =      -2.0929209377386822 [Eh]
	 SCS Correlation Energy    =      -2.2883091223013969 [Eh]
	 SCS Total Energy          =   -1234.0704655563904453 [Eh]
	-----------------------------------------------------------

  Dipole Moment: [D]
     X:    -2.6276      Y:     0.2820      Z:     4.8144     Total:     5.4920

*** Psi4 exiting successfully. Buy a developer a beer!
