                               Psi4 1.4a3.dev225

  ==> Input File <==

--------------------------------------------------------------------------
#psi4
#
memory 32 gb

molecule  {
0 1
  S        1.0053540    -0.0074810    -0.7736030
  S       -1.6960990    -1.1658100     0.0116150
  O        1.1339470    -1.3419000    -1.3567350
  O        1.3858060     1.2139170    -1.4782970
  N        1.8676971    -0.0231918     0.6353951
  C       -0.6861290     0.1873580    -0.3161810
  C        1.8702590     1.2384050     1.3961810
  C        1.6932100    -1.2084810     1.4940670
  C       -1.3340060     1.3908220    -0.1017950
  C       -2.6674560     1.1993540     0.3271550
  C       -2.9984720    -0.1352680     0.4414500
  H        2.0840190     2.0584320     0.7119160
  H        2.6656140     1.1849010     2.1428720
  H        0.9115380     1.4151000     1.9054530
  H        1.7293810    -2.1000160     0.8695980
  H        0.7471110    -1.1811200     2.0534300
  H        2.5234680    -1.2398400     2.2034110
  H       -0.8634200     2.3493520    -0.2940320
  H       -3.3646430     2.0039100     0.5365790
  H       -3.9505650    -0.5636820     0.7303990
units angstrom
no_reorient  #important for SAPT in psi4, default
symmetry c1  #important for SAPT in psi4, default
}

set PROPERTIES_ORIGIN ["COM"]
properties('MP2/aug-cc-pvtz', properties = ['dipole'])
--------------------------------------------------------------------------

    Molecular point group: c1
  Charge       = 0
  Multiplicity = 1
  Basis Set: AUG-CC-PVTZ
    Blend: AUG-CC-PVTZ
  Basis Set: (AUG-CC-PVTZ AUX)
    Blend: AUG-CC-PVTZ-JKFIT

    Orbital Energies [Eh]
    ---------------------

    Doubly Occupied:

       1A    -92.207713     2A    -92.015544     3A    -20.548722
       4A    -20.548258     5A    -15.606666     6A    -11.297906
       7A    -11.294941     8A    -11.276341     9A    -11.273632
      10A    -11.272312    11A    -11.263797    12A     -9.171924
      13A     -9.015062    14A     -6.857117    15A     -6.856788
      16A     -6.856425    17A     -6.695901    18A     -6.695372
      19A     -6.694613    20A     -1.456306    21A     -1.339279
      22A     -1.252822    23A     -1.200685    24A     -1.030956
      25A     -1.016668    26A     -0.980589    27A     -0.949869
      28A     -0.853894    29A     -0.785991    30A     -0.752983
      31A     -0.727269    32A     -0.703200    33A     -0.662757
      34A     -0.658687    35A     -0.627183    36A     -0.615147
      37A     -0.587839    38A     -0.580426    39A     -0.572703
      40A     -0.563635    41A     -0.549546    42A     -0.539512
      43A     -0.509476    44A     -0.501346    45A     -0.496802
      46A     -0.472352    47A     -0.468514    48A     -0.420024
      49A     -0.371937    50A     -0.353377

  @DF-RHF Final Energy: -1231.78964382396020

   => Energetics <=

    Nuclear Repulsion Energy =            892.9807123386755165
    One-Electron Energy =               -3469.4390999857623683
    Two-Electron Energy =                1344.6687438231267606
    Total Energy =                      -1231.7896438239602048
  Basis Set: (AUG-CC-PVTZ AUX)
    Blend: AUG-CC-PVTZ-RI
    Molecular point group: c1

    Geometry (in Angstrom), charge = 0, multiplicity = 1:

       Center              X                  Y                   Z               Mass
    ------------   -----------------  -----------------  -----------------  -----------------
         S            1.018950393999     0.012729365599    -0.716140232851    31.972071174400
         S           -1.682502606001    -1.145599634401     0.069077767149    31.972071174400
         O            1.147543393999    -1.321689634401    -1.299272232851    15.994914619570
         O            1.399402393999     1.234127365599    -1.420834232851    15.994914619570
         N            1.881293493999    -0.002981434401     0.692857867149    14.003074004430
         C           -0.672532606001     0.207568365599    -0.258718232851    12.000000000000
         C            1.883855393999     1.258615365599     1.453643767149    12.000000000000
         C            1.706806393999    -1.188270634401     1.551529767149    12.000000000000
         C           -1.320409606001     1.411032365599    -0.044332232851    12.000000000000
         C           -2.653859606001     1.219564365599     0.384617767149    12.000000000000
         C           -2.984875606001    -0.115057634401     0.498912767149    12.000000000000
         H            2.097615393999     2.078642365599     0.769378767149     1.007825032230
         H            2.679210393999     1.205111365599     2.200334767149     1.007825032230
         H            0.925134393999     1.435310365599     1.962915767149     1.007825032230
         H            1.742977393999    -2.079805634401     0.927060767149     1.007825032230
         H            0.760707393999    -1.160909634401     2.110892767149     1.007825032230
         H            2.537064393999    -1.219629634401     2.260873767149     1.007825032230
         H           -0.849823606001     2.369562365599    -0.236569232851     1.007825032230
         H           -3.351046606001     2.024120365599     0.594041767149     1.007825032230
         H           -3.936968606001    -0.543471634401     0.787861767149     1.007825032230

  Basis Set: AUG-CC-PVTZ
    Blend: AUG-CC-PVTZ
  Basis Set: (AUG-CC-PVTZ AUX)
    Blend: AUG-CC-PVTZ-JKFIT
	 Reference Energy          =   -1231.7896438239602048 [Eh]
	 Singles Energy            =      -0.0000000000000000 [Eh]
	 Same-Spin Energy          =      -0.5859693635408998 [Eh]
	 Opposite-Spin Energy      =      -1.7436993093880124 [Eh]
	 Correlation Energy        =      -2.3296686729289124 [Eh]
	 Total Energy              =   -1234.1193124968890515 [Eh]

	 ================> DF-SCS-MP2 Energies <==================
	-----------------------------------------------------------
	 SCS Same-Spin Scale       =       0.3333333333333333 [-]
	 SCS Opposite-Spin Scale   =       1.2000000000000000 [-]
	 SCS Same-Spin Energy      =      -0.1953231211802999 [Eh]
	 SCS Opposite-Spin Energy  =      -2.0924391712656147 [Eh]
	 SCS Correlation Energy    =      -2.2877622924459144 [Eh]
	 SCS Total Energy          =   -1234.0774061164061095 [Eh]
	-----------------------------------------------------------

  Dipole Moment: [D]
     X:    -2.4982      Y:     0.7484      Z:     4.8563     Total:     5.5122

*** Psi4 exiting successfully. Buy a developer a beer!
