                               Psi4 1.3.2 release

  ==> Input File <==

--------------------------------------------------------------------------
#psi4
#
memory 32 gb

molecule  {
0 1
  S        1.0053540    -0.0074810    -0.7736030
  S       -1.6960990    -1.1658100     0.0116150
  O        1.0754142    -1.3098966    -1.4339501
  O        1.3858060     1.2139170    -1.4782970
  N        1.8781370    -0.0233820     0.6524530
  C       -0.6861290     0.1873580    -0.3161810
  C        1.8702590     1.2384050     1.3961810
  C        1.6932100    -1.2084810     1.4940670
  C       -1.3340060     1.3908220    -0.1017950
  C       -2.6674560     1.1993540     0.3271550
  C       -2.9984720    -0.1352680     0.4414500
  H        2.0840190     2.0584320     0.7119160
  H        2.6656140     1.1849010     2.1428720
  H        0.9115380     1.4151000     1.9054530
  H        1.7293810    -2.1000160     0.8695980
  H        0.7471110    -1.1811200     2.0534300
  H        2.5234680    -1.2398400     2.2034110
  H       -0.8634200     2.3493520    -0.2940320
  H       -3.3646430     2.0039100     0.5365790
  H       -3.9505650    -0.5636820     0.7303990
units angstrom
no_reorient  #important for SAPT in psi4, default
symmetry c1  #important for SAPT in psi4, default
}

set PROPERTIES_ORIGIN ["COM"]
properties('MP2/aug-cc-pvtz', properties = ['dipole'])
--------------------------------------------------------------------------

    Molecular point group: c1
  Charge       = 0
  Multiplicity = 1
  Basis Set: AUG-CC-PVTZ
    Blend: AUG-CC-PVTZ
  Basis Set: (AUG-CC-PVTZ AUX)
    Blend: AUG-CC-PVTZ-JKFIT

    Orbital Energies [Eh]
    ---------------------

    Doubly Occupied:

       1A    -92.208183     2A    -92.014641     3A    -20.550536
       4A    -20.545949     5A    -15.611152     6A    -11.296591
       7A    -11.294027     8A    -11.275158     9A    -11.274920
      10A    -11.274282    11A    -11.262972    12A     -9.172407
      13A     -9.014182    14A     -6.857508    15A     -6.857197
      16A     -6.856911    17A     -6.695026    18A     -6.694497
      19A     -6.693737    20A     -1.455314    21A     -1.337168
      22A     -1.257319    23A     -1.199741    24A     -1.030079
      25A     -1.015805    26A     -0.984845    27A     -0.948573
      28A     -0.852811    29A     -0.785174    30A     -0.754222
      31A     -0.727154    32A     -0.703551    33A     -0.662897
      34A     -0.660343    35A     -0.627727    36A     -0.616190
      37A     -0.586983    38A     -0.582456    39A     -0.574386
      40A     -0.562872    41A     -0.548858    42A     -0.544696
      43A     -0.509288    44A     -0.500734    45A     -0.495856
      46A     -0.471080    47A     -0.468273    48A     -0.419792
      49A     -0.371134    50A     -0.352698

  @DF-RHF Final Energy: -1231.78852052212824

   => Energetics <=

    Nuclear Repulsion Energy =            892.2257898032220282
    One-Electron Energy =               -3467.9128265705871854
    Two-Electron Energy =                1343.8985162452368058
    Total Energy =                      -1231.7885205221282376
  Basis Set: (AUG-CC-PVTZ AUX)
    Blend: AUG-CC-PVTZ-RI
    Molecular point group: c1

    Geometry (in Angstrom), charge = 0, multiplicity = 1:

       Center              X                  Y                   Z               Mass
    ------------   -----------------  -----------------  -----------------  -----------------
         S            1.023086548687     0.010063353304    -0.710924803888    31.972071174400
         S           -1.678366451313    -1.148265646696     0.074293196112    31.972071174400
         O            1.093146748687    -1.292352246696    -1.371271903888    15.994914619570
         O            1.403538548687     1.231461353304    -1.415618803888    15.994914619570
         N            1.895869548687    -0.005837646696     0.715131196112    14.003074004430
         C           -0.668396451313     0.204902353304    -0.253502803888    12.000000000000
         C            1.887991548687     1.255949353304     1.458859196112    12.000000000000
         C            1.710942548687    -1.190936646696     1.556745196112    12.000000000000
         C           -1.316273451313     1.408366353304    -0.039116803888    12.000000000000
         C           -2.649723451313     1.216898353304     0.389833196112    12.000000000000
         C           -2.980739451313    -0.117723646696     0.504128196112    12.000000000000
         H            2.101751548687     2.075976353304     0.774594196112     1.007825032230
         H            2.683346548687     1.202445353304     2.205550196112     1.007825032230
         H            0.929270548687     1.432644353304     1.968131196112     1.007825032230
         H            1.747113548687    -2.082471646696     0.932276196112     1.007825032230
         H            0.764843548687    -1.163575646696     2.116108196112     1.007825032230
         H            2.541200548687    -1.222295646696     2.266089196112     1.007825032230
         H           -0.845687451313     2.366896353304    -0.231353803888     1.007825032230
         H           -3.346910451313     2.021454353304     0.599257196112     1.007825032230
         H           -3.932832451313    -0.546137646696     0.793077196112     1.007825032230

  Basis Set: AUG-CC-PVTZ
    Blend: AUG-CC-PVTZ
  Basis Set: (AUG-CC-PVTZ AUX)
    Blend: AUG-CC-PVTZ-JKFIT
	 Reference Energy          =   -1231.7885205221282376 [Eh]
	 Singles Energy            =      -0.0000000000000000 [Eh]
	 Same-Spin Energy          =      -0.5859566599697735 [Eh]
	 Opposite-Spin Energy      =      -1.7438260322914816 [Eh]
	 Correlation Energy        =      -2.3297826922612552 [Eh]
	 Total Energy              =   -1234.1183032143894707 [Eh]

	 ================> DF-SCS-MP2 Energies <==================
	-----------------------------------------------------------
	 SCS Same-Spin Scale       =       0.3333333333333333 [-]
	 SCS Opposite-Spin Scale   =       1.2000000000000000 [-]
	 SCS Same-Spin Energy      =      -0.1953188866565912 [Eh]
	 SCS Opposite-Spin Energy  =      -2.0925912387497778 [Eh]
	 SCS Correlation Energy    =      -2.2879101254063690 [Eh]
	 SCS Total Energy          =   -1234.0764306475346075 [Eh]
	-----------------------------------------------------------

  Dipole Moment: [D]
     X:    -2.3692      Y:     0.6744      Z:     4.9670     Total:     5.5442

*** Psi4 exiting successfully. Buy a developer a beer!
