                               Psi4 1.3.2 release

  ==> Input File <==

--------------------------------------------------------------------------
#psi4
#
memory 32 gb

molecule  {
0 1
  S        1.0053540    -0.0074810    -0.7736030
  S       -1.6960990    -1.1658100     0.0116150
  O        1.1339470    -1.3419000    -1.3567350
  O        1.3858060     1.2139170    -1.4782970
  N        1.9825359    -0.0252840     0.8230322
  C       -0.6861290     0.1873580    -0.3161810
  C        1.8702590     1.2384050     1.3961810
  C        1.6932100    -1.2084810     1.4940670
  C       -1.3340060     1.3908220    -0.1017950
  C       -2.6674560     1.1993540     0.3271550
  C       -2.9984720    -0.1352680     0.4414500
  H        2.0840190     2.0584320     0.7119160
  H        2.6656140     1.1849010     2.1428720
  H        0.9115380     1.4151000     1.9054530
  H        1.7293810    -2.1000160     0.8695980
  H        0.7471110    -1.1811200     2.0534300
  H        2.5234680    -1.2398400     2.2034110
  H       -0.8634200     2.3493520    -0.2940320
  H       -3.3646430     2.0039100     0.5365790
  H       -3.9505650    -0.5636820     0.7303990
units angstrom
no_reorient  #important for SAPT in psi4, default
symmetry c1  #important for SAPT in psi4, default
}

set PROPERTIES_ORIGIN ["COM"]
properties('MP2/aug-cc-pvtz', properties = ['dipole'])
--------------------------------------------------------------------------

    Molecular point group: c1
  Charge       = 0
  Multiplicity = 1
  Basis Set: AUG-CC-PVTZ
    Blend: AUG-CC-PVTZ
  Basis Set: (AUG-CC-PVTZ AUX)
    Blend: AUG-CC-PVTZ-JKFIT

    Orbital Energies [Eh]
    ---------------------

    Doubly Occupied:

       1A    -92.203401     2A    -92.019016     3A    -20.555172
       4A    -20.554828     5A    -15.608849     6A    -11.302855
       7A    -11.299337     8A    -11.281290     9A    -11.266846
      10A    -11.263774    11A    -11.262076    12A     -9.168849
      13A     -9.018491    14A     -6.853444    15A     -6.853241
      16A     -6.852951    17A     -6.699316    18A     -6.698790
      19A     -6.698026    20A     -1.450792    21A     -1.342335
      22A     -1.264128    23A     -1.204650    24A     -1.033920
      25A     -1.020280    26A     -0.999363    27A     -0.916814
      28A     -0.842538    29A     -0.789661    30A     -0.758095
      31A     -0.729325    32A     -0.707931    33A     -0.663876
      34A     -0.657801    35A     -0.632581    36A     -0.630326
      37A     -0.591133    38A     -0.577355    39A     -0.574494
      40A     -0.567699    41A     -0.557464    42A     -0.549604
      43A     -0.510516    44A     -0.500250    45A     -0.494298
      46A     -0.476236    47A     -0.447504    48A     -0.395922
      49A     -0.374691    50A     -0.357444

  @DF-RHF Final Energy: -1231.75343611604876

   => Energetics <=

    Nuclear Repulsion Energy =            887.7268118157240906
    One-Electron Energy =               -3458.8013402448991656
    Two-Electron Energy =                1339.3210923131264281
    Total Energy =                      -1231.7534361160487606
  Basis Set: (AUG-CC-PVTZ AUX)
    Blend: AUG-CC-PVTZ-RI
    Molecular point group: c1

    Geometry (in Angstrom), charge = 0, multiplicity = 1:

       Center              X                  Y                   Z               Mass
    ------------   -----------------  -----------------  -----------------  -----------------
         S            1.010531371394     0.012882748246    -0.729896219385    31.972071174400
         S           -1.690921628606    -1.145446251754     0.055321780615    31.972071174400
         O            1.139124371394    -1.321536251754    -1.313028219385    15.994914619570
         O            1.390983371394     1.234280748246    -1.434590219385    15.994914619570
         N            1.987713271394    -0.004920251754     0.866738980615    14.003074004430
         C           -0.680951628606     0.207721748246    -0.272474219385    12.000000000000
         C            1.875436371394     1.258768748246     1.439887780615    12.000000000000
         C            1.698387371394    -1.188117251754     1.537773780615    12.000000000000
         C           -1.328828628606     1.411185748246    -0.058088219385    12.000000000000
         C           -2.662278628606     1.219717748246     0.370861780615    12.000000000000
         C           -2.993294628606    -0.114904251754     0.485156780615    12.000000000000
         H            2.089196371394     2.078795748246     0.755622780615     1.007825032230
         H            2.670791371394     1.205264748246     2.186578780615     1.007825032230
         H            0.916715371394     1.435463748246     1.949159780615     1.007825032230
         H            1.734558371394    -2.079652251754     0.913304780615     1.007825032230
         H            0.752288371394    -1.160756251754     2.097136780615     1.007825032230
         H            2.528645371394    -1.219476251754     2.247117780615     1.007825032230
         H           -0.858242628606     2.369715748246    -0.250325219385     1.007825032230
         H           -3.359465628606     2.024273748246     0.580285780615     1.007825032230
         H           -3.945387628606    -0.543318251754     0.774105780615     1.007825032230

  Basis Set: AUG-CC-PVTZ
    Blend: AUG-CC-PVTZ
  Basis Set: (AUG-CC-PVTZ AUX)
    Blend: AUG-CC-PVTZ-JKFIT
	 Reference Energy          =   -1231.7534361160487606 [Eh]
	 Singles Energy            =      -0.0000000000000000 [Eh]
	 Same-Spin Energy          =      -0.5889923158865572 [Eh]
	 Opposite-Spin Energy      =      -1.7493950469026784 [Eh]
	 Correlation Energy        =      -2.3383873627892355 [Eh]
	 Total Energy              =   -1234.0918234788380232 [Eh]

	 ================> DF-SCS-MP2 Energies <==================
	-----------------------------------------------------------
	 SCS Same-Spin Scale       =       0.3333333333333333 [-]
	 SCS Opposite-Spin Scale   =       1.2000000000000000 [-]
	 SCS Same-Spin Energy      =      -0.1963307719621857 [Eh]
	 SCS Opposite-Spin Energy  =      -2.0992740562832140 [Eh]
	 SCS Correlation Energy    =      -2.2956048282453998 [Eh]
	 SCS Total Energy          =   -1234.0490409442941200 [Eh]
	-----------------------------------------------------------

  Dipole Moment: [D]
     X:    -3.1168      Y:     0.7601      Z:     4.1295     Total:     5.2293

*** Psi4 exiting successfully. Buy a developer a beer!
