                               Psi4 1.3.2 release

  ==> Input File <==

--------------------------------------------------------------------------
#psi4
#
memory 32 gb

molecule  {
0 1
  S        1.0053540    -0.0074810    -0.7736030
  S       -1.6960990    -1.1658100     0.0116150
  O        1.1339470    -1.3419000    -1.3567350
  O        1.3858060     1.2139170    -1.4782970
  N        1.7737381    -0.0214800     0.4818738
  C       -0.6861290     0.1873580    -0.3161810
  C        1.8702590     1.2384050     1.3961810
  C        1.6932100    -1.2084810     1.4940670
  C       -1.3340060     1.3908220    -0.1017950
  C       -2.6674560     1.1993540     0.3271550
  C       -2.9984720    -0.1352680     0.4414500
  H        2.0840190     2.0584320     0.7119160
  H        2.6656140     1.1849010     2.1428720
  H        0.9115380     1.4151000     1.9054530
  H        1.7293810    -2.1000160     0.8695980
  H        0.7471110    -1.1811200     2.0534300
  H        2.5234680    -1.2398400     2.2034110
  H       -0.8634200     2.3493520    -0.2940320
  H       -3.3646430     2.0039100     0.5365790
  H       -3.9505650    -0.5636820     0.7303990
units angstrom
no_reorient  #important for SAPT in psi4, default
symmetry c1  #important for SAPT in psi4, default
}

set PROPERTIES_ORIGIN ["COM"]
properties('MP2/aug-cc-pvtz', properties = ['dipole'])
--------------------------------------------------------------------------

    Molecular point group: c1
  Charge       = 0
  Multiplicity = 1
  Basis Set: AUG-CC-PVTZ
    Blend: AUG-CC-PVTZ
  Basis Set: (AUG-CC-PVTZ AUX)
    Blend: AUG-CC-PVTZ-JKFIT

    Orbital Energies [Eh]
    ---------------------

    Doubly Occupied:

       1A    -92.192751     2A    -92.009565     3A    -20.535016
       4A    -20.534383     5A    -15.605801     6A    -11.292859
       7A    -11.291898     8A    -11.289071     9A    -11.287908
      10A    -11.268152    11A    -11.258741    12A     -9.159811
      13A     -9.009164    14A     -6.846046    15A     -6.844359
      16A     -6.844137    17A     -6.690025    18A     -6.689486
      19A     -6.688741    20A     -1.464637    21A     -1.329900
      22A     -1.262064    23A     -1.194281    24A     -1.025297
      25A     -1.010667    26A     -0.983472    27A     -0.975348
      28A     -0.853242    29A     -0.779934    30A     -0.747548
      31A     -0.724742    32A     -0.695594    33A     -0.671641
      34A     -0.659573    35A     -0.622032    36A     -0.606404
      37A     -0.598044    38A     -0.584444    39A     -0.580086
      40A     -0.558719    41A     -0.546595    42A     -0.521088
      43A     -0.507357    44A     -0.498739    45A     -0.484049
      46A     -0.465448    47A     -0.460889    48A     -0.443258
      49A     -0.367099    50A     -0.345882

  @DF-RHF Final Energy: -1231.75318049638713

   => Energetics <=

    Nuclear Repulsion Energy =            898.1555398672593356
    One-Electron Energy =               -3480.0054683263615516
    Two-Electron Energy =                1350.0967479627149714
    Total Energy =                      -1231.7531804963871309
  Basis Set: (AUG-CC-PVTZ AUX)
    Blend: AUG-CC-PVTZ-RI
    Molecular point group: c1

    Geometry (in Angstrom), charge = 0, multiplicity = 1:

       Center              X                  Y                   Z               Mass
    ------------   -----------------  -----------------  -----------------  -----------------
         S            1.025838683888     0.012603870706    -0.704885332112    31.972071174400
         S           -1.675614316112    -1.145725129294     0.080332667888    31.972071174400
         O            1.154431683888    -1.321815129294    -1.288017332112    15.994914619570
         O            1.406290683888     1.234001870706    -1.409579332112    15.994914619570
         N            1.794222783888    -0.001395129294     0.550591467888    14.003074004430
         C           -0.665644316112     0.207442870706    -0.247463332112    12.000000000000
         C            1.890743683888     1.258489870706     1.464898667888    12.000000000000
         C            1.713694683888    -1.188396129294     1.562784667888    12.000000000000
         C           -1.313521316112     1.410906870706    -0.033077332112    12.000000000000
         C           -2.646971316112     1.219438870706     0.395872667888    12.000000000000
         C           -2.977987316112    -0.115183129294     0.510167667888    12.000000000000
         H            2.104503683888     2.078516870706     0.780633667888     1.007825032230
         H            2.686098683888     1.204985870706     2.211589667888     1.007825032230
         H            0.932022683888     1.435184870706     1.974170667888     1.007825032230
         H            1.749865683888    -2.079931129294     0.938315667888     1.007825032230
         H            0.767595683888    -1.161035129294     2.122147667888     1.007825032230
         H            2.543952683888    -1.219755129294     2.272128667888     1.007825032230
         H           -0.842935316112     2.369436870706    -0.225314332112     1.007825032230
         H           -3.344158316112     2.023994870706     0.605296667888     1.007825032230
         H           -3.930080316112    -0.543597129294     0.799116667888     1.007825032230

  Basis Set: AUG-CC-PVTZ
    Blend: AUG-CC-PVTZ
  Basis Set: (AUG-CC-PVTZ AUX)
    Blend: AUG-CC-PVTZ-JKFIT
	 Reference Energy          =   -1231.7531804963871309 [Eh]
	 Singles Energy            =      -0.0000000000000000 [Eh]
	 Same-Spin Energy          =      -0.5853932195573084 [Eh]
	 Opposite-Spin Energy      =      -1.7426941200355466 [Eh]
	 Correlation Energy        =      -2.3280873395928552 [Eh]
	 Total Energy              =   -1234.0812678359800429 [Eh]

	 ================> DF-SCS-MP2 Energies <==================
	-----------------------------------------------------------
	 SCS Same-Spin Scale       =       0.3333333333333333 [-]
	 SCS Opposite-Spin Scale   =       1.2000000000000000 [-]
	 SCS Same-Spin Energy      =      -0.1951310731857694 [Eh]
	 SCS Opposite-Spin Energy  =      -2.0912329440426558 [Eh]
	 SCS Correlation Energy    =      -2.2863640172284252 [Eh]
	 SCS Total Energy          =   -1234.0395445136155104 [Eh]
	-----------------------------------------------------------

  Dipole Moment: [D]
     X:    -1.7450      Y:     0.7365      Z:     5.7865     Total:     6.0885

*** Psi4 exiting successfully. Buy a developer a beer!
