                               Psi4 1.3.2 release

  ==> Input File <==

--------------------------------------------------------------------------
#psi4
#
memory 32 gb

molecule  {
0 1
  S        1.0053540    -0.0074810    -0.7736030
  S       -1.6960990    -1.1658100     0.0116150
  O        1.1339470    -1.3419000    -1.3567350
  O        1.3858060     1.2139170    -1.4782970
  N        1.9303364    -0.0243330     0.7377426
  C       -0.6861290     0.1873580    -0.3161810
  C        1.8702590     1.2384050     1.3961810
  C        1.6932100    -1.2084810     1.4940670
  C       -1.3340060     1.3908220    -0.1017950
  C       -2.6674560     1.1993540     0.3271550
  C       -2.9984720    -0.1352680     0.4414500
  H        2.0840190     2.0584320     0.7119160
  H        2.6656140     1.1849010     2.1428720
  H        0.9115380     1.4151000     1.9054530
  H        1.7293810    -2.1000160     0.8695980
  H        0.7471110    -1.1811200     2.0534300
  H        2.5234680    -1.2398400     2.2034110
  H       -0.8634200     2.3493520    -0.2940320
  H       -3.3646430     2.0039100     0.5365790
  H       -3.9505650    -0.5636820     0.7303990
units angstrom
no_reorient  #important for SAPT in psi4, default
symmetry c1  #important for SAPT in psi4, default
}

set PROPERTIES_ORIGIN ["COM"]
properties('MP2/aug-cc-pvtz', properties = ['dipole'])
--------------------------------------------------------------------------

    Molecular point group: c1
  Charge       = 0
  Multiplicity = 1
  Basis Set: AUG-CC-PVTZ
    Blend: AUG-CC-PVTZ
  Basis Set: (AUG-CC-PVTZ AUX)
    Blend: AUG-CC-PVTZ-JKFIT

    Orbital Energies [Eh]
    ---------------------

    Doubly Occupied:

       1A    -92.208259     2A    -92.018025     3A    -20.553753
       4A    -20.553367     5A    -15.606524     6A    -11.301460
       7A    -11.298000     8A    -11.279830     9A    -11.266256
      10A    -11.265944    11A    -11.264717    12A     -9.172697
      13A     -9.017511    14A     -6.857527    15A     -6.857363
      16A     -6.857011    17A     -6.698341    18A     -6.697815
      19A     -6.697051    20A     -1.453554    21A     -1.342201
      22A     -1.256129    23A     -1.203476    24A     -1.033283
      25A     -1.019204    26A     -0.989179    27A     -0.929508
      28A     -0.849067    29A     -0.788566    30A     -0.756103
      31A     -0.728650    32A     -0.706538    33A     -0.660283
      34A     -0.659252    35A     -0.630769    36A     -0.622474
      37A     -0.590202    38A     -0.576751    39A     -0.571353
      40A     -0.565935    41A     -0.552369    42A     -0.549670
      43A     -0.510146    44A     -0.500147    45A     -0.497452
      46A     -0.475628    47A     -0.460917    48A     -0.405920
      49A     -0.373932    50A     -0.356487

  @DF-RHF Final Energy: -1231.77786071619130

   => Energetics <=

    Nuclear Repulsion Energy =            890.0118651239979499
    One-Electron Energy =               -3463.4062551646102293
    Two-Electron Energy =                1341.6165293244207533
    Total Energy =                      -1231.7778607161912987
  Basis Set: (AUG-CC-PVTZ AUX)
    Blend: AUG-CC-PVTZ-RI
    Molecular point group: c1

    Geometry (in Angstrom), charge = 0, multiplicity = 1:

       Center              X                  Y                   Z               Mass
    ------------   -----------------  -----------------  -----------------  -----------------
         S            1.014358203183     0.012813028861    -0.723643497567    31.972071174400
         S           -1.687094796817    -1.145515971139     0.061574502433    31.972071174400
         O            1.142951203183    -1.321605971139    -1.306775497567    15.994914619570
         O            1.394810203183     1.234211028861    -1.428337497567    15.994914619570
         N            1.939340603183    -0.004038971139     0.787702102433    14.003074004430
         C           -0.677124796817     0.207652028861    -0.266221497567    12.000000000000
         C            1.879263203183     1.258699028861     1.446140502433    12.000000000000
         C            1.702214203183    -1.188186971139     1.544026502433    12.000000000000
         C           -1.325001796817     1.411116028861    -0.051835497567    12.000000000000
         C           -2.658451796817     1.219648028861     0.377114502433    12.000000000000
         C           -2.989467796817    -0.114973971139     0.491409502433    12.000000000000
         H            2.093023203183     2.078726028861     0.761875502433     1.007825032230
         H            2.674618203183     1.205195028861     2.192831502433     1.007825032230
         H            0.920542203183     1.435394028861     1.955412502433     1.007825032230
         H            1.738385203183    -2.079721971139     0.919557502433     1.007825032230
         H            0.756115203183    -1.160825971139     2.103389502433     1.007825032230
         H            2.532472203183    -1.219545971139     2.253370502433     1.007825032230
         H           -0.854415796817     2.369646028861    -0.244072497567     1.007825032230
         H           -3.355638796817     2.024204028861     0.586538502433     1.007825032230
         H           -3.941560796817    -0.543387971139     0.780358502433     1.007825032230

  Basis Set: AUG-CC-PVTZ
    Blend: AUG-CC-PVTZ
  Basis Set: (AUG-CC-PVTZ AUX)
    Blend: AUG-CC-PVTZ-JKFIT
	 Reference Energy          =   -1231.7778607161912987 [Eh]
	 Singles Energy            =      -0.0000000000000000 [Eh]
	 Same-Spin Energy          =      -0.5873465818964763 [Eh]
	 Opposite-Spin Energy      =      -1.7463023402834104 [Eh]
	 Correlation Energy        =      -2.3336489221798864 [Eh]
	 Total Energy              =   -1234.1115096383712171 [Eh]

	 ================> DF-SCS-MP2 Energies <==================
	-----------------------------------------------------------
	 SCS Same-Spin Scale       =       0.3333333333333333 [-]
	 SCS Opposite-Spin Scale   =       1.2000000000000000 [-]
	 SCS Same-Spin Energy      =      -0.1957821939654921 [Eh]
	 SCS Opposite-Spin Energy  =      -2.0955628083400923 [Eh]
	 SCS Correlation Energy    =      -2.2913450023055844 [Eh]
	 SCS Total Energy          =   -1234.0692057184969599 [Eh]
	-----------------------------------------------------------

  Dipole Moment: [D]
     X:    -2.8811      Y:     0.7551      Z:     4.3954     Total:     5.3095

*** Psi4 exiting successfully. Buy a developer a beer!
