                               Psi4 1.3.2 release

  ==> Input File <==

--------------------------------------------------------------------------
#psi4
#
memory 32 gb

molecule  {
0 1
  S        1.0021058    -0.0380122    -0.7715748
  S       -1.6960990    -1.1658100     0.0116150
  O        1.1339470    -1.3419000    -1.3567350
  O        1.3858060     1.2139170    -1.4782970
  N        1.8781370    -0.0233820     0.6524530
  C       -0.6861290     0.1873580    -0.3161810
  C        1.8702590     1.2384050     1.3961810
  C        1.6932100    -1.2084810     1.4940670
  C       -1.3340060     1.3908220    -0.1017950
  C       -2.6674560     1.1993540     0.3271550
  C       -2.9984720    -0.1352680     0.4414500
  H        2.0840190     2.0584320     0.7119160
  H        2.6656140     1.1849010     2.1428720
  H        0.9115380     1.4151000     1.9054530
  H        1.7293810    -2.1000160     0.8695980
  H        0.7471110    -1.1811200     2.0534300
  H        2.5234680    -1.2398400     2.2034110
  H       -0.8634200     2.3493520    -0.2940320
  H       -3.3646430     2.0039100     0.5365790
  H       -3.9505650    -0.5636820     0.7303990
units angstrom
no_reorient  #important for SAPT in psi4, default
symmetry c1  #important for SAPT in psi4, default
}

set PROPERTIES_ORIGIN ["COM"]
properties('MP2/aug-cc-pvtz', properties = ['dipole'])
--------------------------------------------------------------------------

    Molecular point group: c1
  Charge       = 0
  Multiplicity = 1
  Basis Set: AUG-CC-PVTZ
    Blend: AUG-CC-PVTZ
  Basis Set: (AUG-CC-PVTZ AUX)
    Blend: AUG-CC-PVTZ-JKFIT

    Orbital Energies [Eh]
    ---------------------

    Doubly Occupied:

       1A    -92.208051     2A    -92.015879     3A    -20.556333
       4A    -20.542697     5A    -15.606644     6A    -11.298777
       7A    -11.295658     8A    -11.277170     9A    -11.271813
      10A    -11.271100    11A    -11.264409    12A     -9.172383
      13A     -9.015500    14A     -6.857484    15A     -6.857268
      16A     -6.856809    17A     -6.696351    18A     -6.695810
      19A     -6.695059    20A     -1.459468    21A     -1.336939
      22A     -1.252506    23A     -1.201338    24A     -1.031452
      25A     -1.017216    26A     -0.981837    27A     -0.946216
      28A     -0.853557    29A     -0.786690    30A     -0.753684
      31A     -0.727686    32A     -0.704523    33A     -0.662383
      34A     -0.658834    35A     -0.628258    36A     -0.616375
      37A     -0.588646    38A     -0.579765    39A     -0.571979
      40A     -0.563289    41A     -0.549772    42A     -0.542245
      43A     -0.510763    44A     -0.501678    45A     -0.498857
      46A     -0.471322    47A     -0.464984    48A     -0.417488
      49A     -0.372474    50A     -0.353985

  @DF-RHF Final Energy: -1231.78747579942501

   => Energetics <=

    Nuclear Repulsion Energy =            892.5953204141798096
    One-Electron Energy =               -3468.6427786202852985
    Two-Electron Energy =                1344.2599824066805922
    Total Energy =                      -1231.7874757994250103
  Basis Set: (AUG-CC-PVTZ AUX)
    Blend: AUG-CC-PVTZ-RI
    Molecular point group: c1

    Geometry (in Angstrom), charge = 0, multiplicity = 1:

       Center              X                  Y                   Z               Mass
    ------------   -----------------  -----------------  -----------------  -----------------
         S            1.015480532456    -0.012677379951    -0.715702069039    31.972071174400
         S           -1.682724267544    -1.140475179951     0.067487730961    31.972071174400
         O            1.147321732456    -1.316565179951    -1.300862269039    15.994914619570
         O            1.399180732456     1.239251820049    -1.422424269039    15.994914619570
         N            1.891511732456     0.001952820049     0.708325730961    14.003074004430
         C           -0.672754267544     0.212692820049    -0.260308269039    12.000000000000
         C            1.883633732456     1.263739820049     1.452053730961    12.000000000000
         C            1.706584732456    -1.183146179951     1.549939730961    12.000000000000
         C           -1.320631267544     1.416156820049    -0.045922269039    12.000000000000
         C           -2.654081267544     1.224688820049     0.383027730961    12.000000000000
         C           -2.985097267544    -0.109933179951     0.497322730961    12.000000000000
         H            2.097393732456     2.083766820049     0.767788730961     1.007825032230
         H            2.678988732456     1.210235820049     2.198744730961     1.007825032230
         H            0.924912732456     1.440434820049     1.961325730961     1.007825032230
         H            1.742755732456    -2.074681179951     0.925470730961     1.007825032230
         H            0.760485732456    -1.155785179951     2.109302730961     1.007825032230
         H            2.536842732456    -1.214505179951     2.259283730961     1.007825032230
         H           -0.850045267544     2.374686820049    -0.238159269039     1.007825032230
         H           -3.351268267544     2.029244820049     0.592451730961     1.007825032230
         H           -3.937190267544    -0.538347179951     0.786271730961     1.007825032230

  Basis Set: AUG-CC-PVTZ
    Blend: AUG-CC-PVTZ
  Basis Set: (AUG-CC-PVTZ AUX)
    Blend: AUG-CC-PVTZ-JKFIT
	 Reference Energy          =   -1231.7874757994250103 [Eh]
	 Singles Energy            =      -0.0000000000000000 [Eh]
	 Same-Spin Energy          =      -0.5861856333188948 [Eh]
	 Opposite-Spin Energy      =      -1.7440854247350845 [Eh]
	 Correlation Energy        =      -2.3302710580539792 [Eh]
	 Total Energy              =   -1234.1177468574790055 [Eh]

	 ================> DF-SCS-MP2 Energies <==================
	-----------------------------------------------------------
	 SCS Same-Spin Scale       =       0.3333333333333333 [-]
	 SCS Opposite-Spin Scale   =       1.2000000000000000 [-]
	 SCS Same-Spin Energy      =      -0.1953952111062983 [Eh]
	 SCS Opposite-Spin Energy  =      -2.0929025096821015 [Eh]
	 SCS Correlation Energy    =      -2.2882977207883997 [Eh]
	 SCS Total Energy          =   -1234.0757735202134882 [Eh]
	-----------------------------------------------------------

  Dipole Moment: [D]
     X:    -2.5947      Y:     0.5154      Z:     4.7896     Total:     5.4716

*** Psi4 exiting successfully. Buy a developer a beer!
