                               Psi4 1.3.2 release

  ==> Input File <==

--------------------------------------------------------------------------
#psi4
#
memory 32 gb

molecule  {
0 1
  S        1.0365177    -0.1188696    -0.7891426
  S       -1.6960990    -1.1658100     0.0116150
  O        1.1339470    -1.3419000    -1.3567350
  O        1.3858060     1.2139170    -1.4782970
  N        1.8781370    -0.0233820     0.6524530
  C       -0.6861290     0.1873580    -0.3161810
  C        1.8702590     1.2384050     1.3961810
  C        1.6932100    -1.2084810     1.4940670
  C       -1.3340060     1.3908220    -0.1017950
  C       -2.6674560     1.1993540     0.3271550
  C       -2.9984720    -0.1352680     0.4414500
  H        2.0840190     2.0584320     0.7119160
  H        2.6656140     1.1849010     2.1428720
  H        0.9115380     1.4151000     1.9054530
  H        1.7293810    -2.1000160     0.8695980
  H        0.7471110    -1.1811200     2.0534300
  H        2.5234680    -1.2398400     2.2034110
  H       -0.8634200     2.3493520    -0.2940320
  H       -3.3646430     2.0039100     0.5365790
  H       -3.9505650    -0.5636820     0.7303990
units angstrom
no_reorient  #important for SAPT in psi4, default
symmetry c1  #important for SAPT in psi4, default
}

set PROPERTIES_ORIGIN ["COM"]
properties('MP2/aug-cc-pvtz', properties = ['dipole'])
--------------------------------------------------------------------------

    Molecular point group: c1
  Charge       = 0
  Multiplicity = 1
  Basis Set: AUG-CC-PVTZ
    Blend: AUG-CC-PVTZ
  Basis Set: (AUG-CC-PVTZ AUX)
    Blend: AUG-CC-PVTZ-JKFIT

    Orbital Energies [Eh]
    ---------------------

    Doubly Occupied:

       1A    -92.207158     2A    -92.010408     3A    -20.578085
       4A    -20.532286     5A    -15.607252     6A    -11.296300
       7A    -11.289859     8A    -11.272975     9A    -11.272010
      10A    -11.270425    11A    -11.260628    12A     -9.173340
      13A     -9.010371    14A     -6.858904    15A     -6.857968
      16A     -6.857341    17A     -6.691277    18A     -6.690710
      19A     -6.689987    20A     -1.508396    21A     -1.326468
      22A     -1.249960    23A     -1.195426    24A     -1.020810
      25A     -1.011565    26A     -0.982838    27A     -0.946208
      28A     -0.845866    29A     -0.781683    30A     -0.755679
      31A     -0.726552    32A     -0.717649    33A     -0.671152
      34A     -0.659342    35A     -0.635486    36A     -0.621754
      37A     -0.588053    38A     -0.584651    39A     -0.571854
      40A     -0.558716    41A     -0.546433    42A     -0.545129
      43A     -0.520902    44A     -0.511648    45A     -0.497042
      46A     -0.465181    47A     -0.450760    48A     -0.413744
      49A     -0.368550    50A     -0.348177

  @DF-RHF Final Energy: -1231.76542425191201

   => Energetics <=

    Nuclear Repulsion Energy =            892.0767106980337076
    One-Electron Energy =               -3467.5743594061550539
    Two-Electron Energy =                1343.7322244562092237
    Total Energy =                      -1231.7654242519120089
  Basis Set: (AUG-CC-PVTZ AUX)
    Blend: AUG-CC-PVTZ-RI
    Molecular point group: c1

    Geometry (in Angstrom), charge = 0, multiplicity = 1:

       Center              X                  Y                   Z               Mass
    ------------   -----------------  -----------------  -----------------  -----------------
         S            1.044132345110    -0.080000343126    -0.730329256562    31.972071174400
         S           -1.688484354890    -1.126940743126     0.070428343438    31.972071174400
         O            1.141561645110    -1.303030743126    -1.297921656562    15.994914619570
         O            1.393420645110     1.252786256874    -1.419483656562    15.994914619570
         N            1.885751645110     0.015487256874     0.711266343438    14.003074004430
         C           -0.678514354890     0.226227256874    -0.257367656562    12.000000000000
         C            1.877873645110     1.277274256874     1.454994343438    12.000000000000
         C            1.700824645110    -1.169611743126     1.552880343438    12.000000000000
         C           -1.326391354890     1.429691256874    -0.042981656562    12.000000000000
         C           -2.659841354890     1.238223256874     0.385968343438    12.000000000000
         C           -2.990857354890    -0.096398743126     0.500263343438    12.000000000000
         H            2.091633645110     2.097301256874     0.770729343438     1.007825032230
         H            2.673228645110     1.223770256874     2.201685343438     1.007825032230
         H            0.919152645110     1.453969256874     1.964266343438     1.007825032230
         H            1.736995645110    -2.061146743126     0.928411343438     1.007825032230
         H            0.754725645110    -1.142250743126     2.112243343438     1.007825032230
         H            2.531082645110    -1.200970743126     2.262224343438     1.007825032230
         H           -0.855805354890     2.388221256874    -0.235218656562     1.007825032230
         H           -3.357028354890     2.042779256874     0.595392343438     1.007825032230
         H           -3.942950354890    -0.524812743126     0.789212343438     1.007825032230

  Basis Set: AUG-CC-PVTZ
    Blend: AUG-CC-PVTZ
  Basis Set: (AUG-CC-PVTZ AUX)
    Blend: AUG-CC-PVTZ-JKFIT
	 Reference Energy          =   -1231.7654242519120089 [Eh]
	 Singles Energy            =      -0.0000000000000000 [Eh]
	 Same-Spin Energy          =      -0.5853101059653669 [Eh]
	 Opposite-Spin Energy      =      -1.7430307672748535 [Eh]
	 Correlation Energy        =      -2.3283408732402204 [Eh]
	 Total Energy              =   -1234.0937651251522311 [Eh]

	 ================> DF-SCS-MP2 Energies <==================
	-----------------------------------------------------------
	 SCS Same-Spin Scale       =       0.3333333333333333 [-]
	 SCS Opposite-Spin Scale   =       1.2000000000000000 [-]
	 SCS Same-Spin Energy      =      -0.1951033686551223 [Eh]
	 SCS Opposite-Spin Energy  =      -2.0916369207298242 [Eh]
	 SCS Correlation Energy    =      -2.2867402893849467 [Eh]
	 SCS Total Energy          =   -1234.0521645412968610 [Eh]
	-----------------------------------------------------------

  Dipole Moment: [D]
     X:    -2.1452      Y:    -0.1012      Z:     4.6277     Total:     5.1017

*** Psi4 exiting successfully. Buy a developer a beer!
