                               Psi4 1.3.2 release

  ==> Input File <==

--------------------------------------------------------------------------
#psi4
#
memory 32 gb

molecule  {
0 1
  S        1.0053540    -0.0074810    -0.7736030
  S       -1.6960990    -1.1658100     0.0116150
  O        1.2331217    -1.3223466    -1.3706821
  O        1.3858060     1.2139170    -1.4782970
  N        1.8781370    -0.0233820     0.6524530
  C       -0.6861290     0.1873580    -0.3161810
  C        1.8702590     1.2384050     1.3961810
  C        1.6932100    -1.2084810     1.4940670
  C       -1.3340060     1.3908220    -0.1017950
  C       -2.6674560     1.1993540     0.3271550
  C       -2.9984720    -0.1352680     0.4414500
  H        2.0840190     2.0584320     0.7119160
  H        2.6656140     1.1849010     2.1428720
  H        0.9115380     1.4151000     1.9054530
  H        1.7293810    -2.1000160     0.8695980
  H        0.7471110    -1.1811200     2.0534300
  H        2.5234680    -1.2398400     2.2034110
  H       -0.8634200     2.3493520    -0.2940320
  H       -3.3646430     2.0039100     0.5365790
  H       -3.9505650    -0.5636820     0.7303990
units angstrom
no_reorient  #important for SAPT in psi4, default
symmetry c1  #important for SAPT in psi4, default
}

set PROPERTIES_ORIGIN ["COM"]
properties('MP2/aug-cc-pvtz', properties = ['dipole'])
--------------------------------------------------------------------------

    Molecular point group: c1
  Charge       = 0
  Multiplicity = 1
  Basis Set: AUG-CC-PVTZ
    Blend: AUG-CC-PVTZ
  Basis Set: (AUG-CC-PVTZ AUX)
    Blend: AUG-CC-PVTZ-JKFIT

    Orbital Energies [Eh]
    ---------------------

    Doubly Occupied:

       1A    -92.206871     2A    -92.018866     3A    -20.547984
       4A    -20.545631     5A    -15.603955     6A    -11.302861
       7A    -11.298416     8A    -11.280432     9A    -11.270489
      10A    -11.269786    11A    -11.266774    12A     -9.171194
      13A     -9.018402    14A     -6.856331    15A     -6.855987
      16A     -6.855671    17A     -6.699248    18A     -6.698715
      19A     -6.697954    20A     -1.454302    21A     -1.335816
      22A     -1.250867    23A     -1.204224    24A     -1.034760
      25A     -1.019975    26A     -0.980484    27A     -0.945356
      28A     -0.854964    29A     -0.789212    30A     -0.753724
      31A     -0.728157    32A     -0.702267    33A     -0.660132
      34A     -0.658664    35A     -0.628900    36A     -0.614274
      37A     -0.590663    38A     -0.578388    39A     -0.571441
      40A     -0.565441    41A     -0.551971    42A     -0.540578
      43A     -0.510896    44A     -0.500650    45A     -0.494576
      46A     -0.469899    47A     -0.467390    48A     -0.416818
      49A     -0.374934    50A     -0.356500

  @DF-RHF Final Energy: -1231.78862800126399

   => Energetics <=

    Nuclear Repulsion Energy =            891.6360765454842294
    One-Electron Energy =               -3466.7058258597126041
    Two-Electron Energy =                1343.2811213129643875
    Total Energy =                      -1231.7886280012639872
  Basis Set: (AUG-CC-PVTZ AUX)
    Blend: AUG-CC-PVTZ-RI
    Molecular point group: c1

    Geometry (in Angstrom), charge = 0, multiplicity = 1:

       Center              X                  Y                   Z               Mass
    ------------   -----------------  -----------------  -----------------  -----------------
         S            1.009880164739     0.011105912980    -0.716222849318    31.972071174400
         S           -1.691572835261    -1.147223087020     0.068995150682    31.972071174400
         O            1.237647864739    -1.303759687020    -1.313301949318    15.994914619570
         O            1.390332164739     1.232503912980    -1.420916849318    15.994914619570
         N            1.882663164739    -0.004795087020     0.709833150682    14.003074004430
         C           -0.681602835261     0.205944912980    -0.258800849318    12.000000000000
         C            1.874785164739     1.256991912980     1.453561150682    12.000000000000
         C            1.697736164739    -1.189894087020     1.551447150682    12.000000000000
         C           -1.329479835261     1.409408912980    -0.044414849318    12.000000000000
         C           -2.662929835261     1.217940912980     0.384535150682    12.000000000000
         C           -2.993945835261    -0.116681087020     0.498830150682    12.000000000000
         H            2.088545164739     2.077018912980     0.769296150682     1.007825032230
         H            2.670140164739     1.203487912980     2.200252150682     1.007825032230
         H            0.916064164739     1.433686912980     1.962833150682     1.007825032230
         H            1.733907164739    -2.081429087020     0.926978150682     1.007825032230
         H            0.751637164739    -1.162533087020     2.110810150682     1.007825032230
         H            2.527994164739    -1.221253087020     2.260791150682     1.007825032230
         H           -0.858893835261     2.367938912980    -0.236651849318     1.007825032230
         H           -3.360116835261     2.022496912980     0.593959150682     1.007825032230
         H           -3.946038835261    -0.545095087020     0.787779150682     1.007825032230

  Basis Set: AUG-CC-PVTZ
    Blend: AUG-CC-PVTZ
  Basis Set: (AUG-CC-PVTZ AUX)
    Blend: AUG-CC-PVTZ-JKFIT
	 Reference Energy          =   -1231.7886280012639872 [Eh]
	 Singles Energy            =      -0.0000000000000000 [Eh]
	 Same-Spin Energy          =      -0.5860680240917147 [Eh]
	 Opposite-Spin Energy      =      -1.7438641413996190 [Eh]
	 Correlation Energy        =      -2.3299321654913339 [Eh]
	 Total Energy              =   -1234.1185601667552874 [Eh]

	 ================> DF-SCS-MP2 Energies <==================
	-----------------------------------------------------------
	 SCS Same-Spin Scale       =       0.3333333333333333 [-]
	 SCS Opposite-Spin Scale   =       1.2000000000000000 [-]
	 SCS Same-Spin Energy      =      -0.1953560080305715 [Eh]
	 SCS Opposite-Spin Energy  =      -2.0926369696795426 [Eh]
	 SCS Correlation Energy    =      -2.2879929777101142 [Eh]
	 SCS Total Energy          =   -1234.0766209789740060 [Eh]
	-----------------------------------------------------------

  Dipole Moment: [D]
     X:    -2.8917      Y:     0.7236      Z:     4.8133     Total:     5.6616

*** Psi4 exiting successfully. Buy a developer a beer!
