                               Psi4 1.3.2 release

  ==> Input File <==

--------------------------------------------------------------------------
#psi4
#
memory 32 gb

molecule  {
0 1
  S        1.0127519    -0.0353421    -0.7781428
  S       -1.6960990    -1.1658100     0.0116150
  O        1.1339470    -1.3419000    -1.3567350
  O        1.3858060     1.2139170    -1.4782970
  N        1.8781370    -0.0233820     0.6524530
  C       -0.6861290     0.1873580    -0.3161810
  C        1.8702590     1.2384050     1.3961810
  C        1.6932100    -1.2084810     1.4940670
  C       -1.3340060     1.3908220    -0.1017950
  C       -2.6674560     1.1993540     0.3271550
  C       -2.9984720    -0.1352680     0.4414500
  H        2.0840190     2.0584320     0.7119160
  H        2.6656140     1.1849010     2.1428720
  H        0.9115380     1.4151000     1.9054530
  H        1.7293810    -2.1000160     0.8695980
  H        0.7471110    -1.1811200     2.0534300
  H        2.5234680    -1.2398400     2.2034110
  H       -0.8634200     2.3493520    -0.2940320
  H       -3.3646430     2.0039100     0.5365790
  H       -3.9505650    -0.5636820     0.7303990
units angstrom
no_reorient  #important for SAPT in psi4, default
symmetry c1  #important for SAPT in psi4, default
}

set PROPERTIES_ORIGIN ["COM"]
properties('MP2/aug-cc-pvtz', properties = ['dipole'])
--------------------------------------------------------------------------

    Molecular point group: c1
  Charge       = 0
  Multiplicity = 1
  Basis Set: AUG-CC-PVTZ
    Blend: AUG-CC-PVTZ
  Basis Set: (AUG-CC-PVTZ AUX)
    Blend: AUG-CC-PVTZ-JKFIT

    Orbital Energies [Eh]
    ---------------------

    Doubly Occupied:

       1A    -92.208777     2A    -92.014696     3A    -20.557025
       4A    -20.545116     5A    -15.606637     6A    -11.298113
       7A    -11.294202     8A    -11.275474     9A    -11.271988
      10A    -11.271218    11A    -11.263383    12A     -9.172964
      13A     -9.014321    14A     -6.858077    15A     -6.857848
      16A     -6.857448    17A     -6.695175    18A     -6.694638
      19A     -6.693887    20A     -1.462054    21A     -1.341658
      22A     -1.252858    23A     -1.199863    24A     -1.028674
      25A     -1.015974    26A     -0.981885    27A     -0.946140
      28A     -0.851430    29A     -0.785366    30A     -0.753457
      31A     -0.727062    32A     -0.705715    33A     -0.663388
      34A     -0.658706    35A     -0.628348    36A     -0.617457
      37A     -0.587597    38A     -0.580206    39A     -0.572008
      40A     -0.562704    41A     -0.548771    42A     -0.542393
      43A     -0.510955    44A     -0.502868    45A     -0.499884
      46A     -0.474303    47A     -0.465730    48A     -0.416758
      49A     -0.371438    50A     -0.352670

  @DF-RHF Final Energy: -1231.78834692216537

   => Energetics <=

    Nuclear Repulsion Energy =            892.3289648441149211
    One-Electron Energy =               -3468.1160090795519864
    Two-Electron Energy =                1343.9986973132715775
    Total Energy =                      -1231.7883469221653741
  Basis Set: (AUG-CC-PVTZ AUX)
    Blend: AUG-CC-PVTZ-RI
    Molecular point group: c1

    Geometry (in Angstrom), charge = 0, multiplicity = 1:

       Center              X                  Y                   Z               Mass
    ------------   -----------------  -----------------  -----------------  -----------------
         S            1.024344619085    -0.010454218633    -0.721170674536    31.972071174400
         S           -1.684506280915    -1.140922118633     0.068587125464    31.972071174400
         O            1.145539719085    -1.317012118633    -1.299762874536    15.994914619570
         O            1.397398719085     1.238804881367    -1.421324874536    15.994914619570
         N            1.889729719085     0.001505881367     0.709425125464    14.003074004430
         C           -0.674536280915     0.212245881367    -0.259208874536    12.000000000000
         C            1.881851719085     1.263292881367     1.453153125464    12.000000000000
         C            1.704802719085    -1.183593118633     1.551039125464    12.000000000000
         C           -1.322413280915     1.415709881367    -0.044822874536    12.000000000000
         C           -2.655863280915     1.224241881367     0.384127125464    12.000000000000
         C           -2.986879280915    -0.110380118633     0.498422125464    12.000000000000
         H            2.095611719085     2.083319881367     0.768888125464     1.007825032230
         H            2.677206719085     1.209788881367     2.199844125464     1.007825032230
         H            0.923130719085     1.439987881367     1.962425125464     1.007825032230
         H            1.740973719085    -2.075128118633     0.926570125464     1.007825032230
         H            0.758703719085    -1.156232118633     2.110402125464     1.007825032230
         H            2.535060719085    -1.214952118633     2.260383125464     1.007825032230
         H           -0.851827280915     2.374239881367    -0.237059874536     1.007825032230
         H           -3.353050280915     2.028797881367     0.593551125464     1.007825032230
         H           -3.938972280915    -0.538794118633     0.787371125464     1.007825032230

  Basis Set: AUG-CC-PVTZ
    Blend: AUG-CC-PVTZ
  Basis Set: (AUG-CC-PVTZ AUX)
    Blend: AUG-CC-PVTZ-JKFIT
	 Reference Energy          =   -1231.7883469221653741 [Eh]
	 Singles Energy            =      -0.0000000000000000 [Eh]
	 Same-Spin Energy          =      -0.5859930109221285 [Eh]
	 Opposite-Spin Energy      =      -1.7438037913272164 [Eh]
	 Correlation Energy        =      -2.3297968022493452 [Eh]
	 Total Energy              =   -1234.1181437244147219 [Eh]

	 ================> DF-SCS-MP2 Energies <==================
	-----------------------------------------------------------
	 SCS Same-Spin Scale       =       0.3333333333333333 [-]
	 SCS Opposite-Spin Scale   =       1.2000000000000000 [-]
	 SCS Same-Spin Energy      =      -0.1953310036407095 [Eh]
	 SCS Opposite-Spin Energy  =      -2.0925645495926597 [Eh]
	 SCS Correlation Energy    =      -2.2878955532333691 [Eh]
	 SCS Total Energy          =   -1234.0762424753986579 [Eh]
	-----------------------------------------------------------

  Dipole Moment: [D]
     X:    -2.4671      Y:     0.5362      Z:     4.7239     Total:     5.3563

*** Psi4 exiting successfully. Buy a developer a beer!
