                               Psi4 1.3.2 release

  ==> Input File <==

--------------------------------------------------------------------------
#psi4
#
memory 32 gb

molecule  {
0 1
  S        1.0053540    -0.0074810    -0.7736030
  S       -1.6039705    -1.2365831    -0.0186716
  O        1.1339470    -1.3419000    -1.3567350
  O        1.3858060     1.2139170    -1.4782970
  N        1.8781370    -0.0233820     0.6524530
  C       -0.6861290     0.1873580    -0.3161810
  C        1.8702590     1.2384050     1.3961810
  C        1.6932100    -1.2084810     1.4940670
  C       -1.3340060     1.3908220    -0.1017950
  C       -2.6674560     1.1993540     0.3271550
  C       -2.9984720    -0.1352680     0.4414500
  H        2.0840190     2.0584320     0.7119160
  H        2.6656140     1.1849010     2.1428720
  H        0.9115380     1.4151000     1.9054530
  H        1.7293810    -2.1000160     0.8695980
  H        0.7471110    -1.1811200     2.0534300
  H        2.5234680    -1.2398400     2.2034110
  H       -0.8634200     2.3493520    -0.2940320
  H       -3.3646430     2.0039100     0.5365790
  H       -3.9505650    -0.5636820     0.7303990
units angstrom
no_reorient  #important for SAPT in psi4, default
symmetry c1  #important for SAPT in psi4, default
}

set PROPERTIES_ORIGIN ["COM"]
properties('MP2/aug-cc-pvtz', properties = ['dipole'])
--------------------------------------------------------------------------

    Molecular point group: c1
  Charge       = 0
  Multiplicity = 1
  Basis Set: AUG-CC-PVTZ
    Blend: AUG-CC-PVTZ
  Basis Set: (AUG-CC-PVTZ AUX)
    Blend: AUG-CC-PVTZ-JKFIT

    Orbital Energies [Eh]
    ---------------------

    Doubly Occupied:

       1A    -92.206668     2A    -92.017889     3A    -20.550426
       4A    -20.548016     5A    -15.606351     6A    -11.304317
       7A    -11.302000     8A    -11.278594     9A    -11.271956
      10A    -11.270314    11A    -11.269337    12A     -9.171163
      13A     -9.015334    14A     -6.856252    15A     -6.855968
      16A     -6.855622    17A     -6.696132    18A     -6.695332
      19A     -6.694729    20A     -1.455768    21A     -1.339890
      22A     -1.252646    23A     -1.188864    24A     -1.034046
      25A     -1.004734    26A     -0.981376    27A     -0.946124
      28A     -0.853294    29A     -0.788182    30A     -0.749991
      31A     -0.726782    32A     -0.703411    33A     -0.662057
      34A     -0.656978    35A     -0.624661    36A     -0.616081
      37A     -0.589148    38A     -0.578813    39A     -0.571707
      40A     -0.560122    41A     -0.541805    42A     -0.541384
      43A     -0.508478    44A     -0.501605    45A     -0.494837
      46A     -0.472072    47A     -0.466138    48A     -0.416088
      49A     -0.377562    50A     -0.348703

  @DF-RHF Final Energy: -1231.78005839268485

   => Energetics <=

    Nuclear Repulsion Energy =            891.5577062814878673
    One-Electron Energy =               -3466.6360404773522532
    Two-Electron Energy =                1343.2982758031796493
    Total Energy =                      -1231.7800583926848503
  Basis Set: (AUG-CC-PVTZ AUX)
    Blend: AUG-CC-PVTZ-RI
    Molecular point group: c1

    Geometry (in Angstrom), charge = 0, multiplicity = 1:

       Center              X                  Y                   Z               Mass
    ------------   -----------------  -----------------  -----------------  -----------------
         S            1.002763960886     0.024589770664    -0.712321207913    31.972071174400
         S           -1.606560539114    -1.204512329336     0.042610192087    31.972071174400
         O            1.131356960886    -1.309829229336    -1.295453207913    15.994914619570
         O            1.383215960886     1.245987770664    -1.417015207913    15.994914619570
         N            1.875546960886     0.008688770664     0.713734792087    14.003074004430
         C           -0.688719039114     0.219428770664    -0.254899207913    12.000000000000
         C            1.867668960886     1.270475770664     1.457462792087    12.000000000000
         C            1.690619960886    -1.176410229336     1.555348792087    12.000000000000
         C           -1.336596039114     1.422892770664    -0.040513207913    12.000000000000
         C           -2.670046039114     1.231424770664     0.388436792087    12.000000000000
         C           -3.001062039114    -0.103197229336     0.502731792087    12.000000000000
         H            2.081428960886     2.090502770664     0.773197792087     1.007825032230
         H            2.663023960886     1.216971770664     2.204153792087     1.007825032230
         H            0.908947960886     1.447170770664     1.966734792087     1.007825032230
         H            1.726790960886    -2.067945229336     0.930879792087     1.007825032230
         H            0.744520960886    -1.149049229336     2.114711792087     1.007825032230
         H            2.520877960886    -1.207769229336     2.264692792087     1.007825032230
         H           -0.866010039114     2.381422770664    -0.232750207913     1.007825032230
         H           -3.367233039114     2.035980770664     0.597860792087     1.007825032230
         H           -3.953155039114    -0.531611229336     0.791680792087     1.007825032230

  Basis Set: AUG-CC-PVTZ
    Blend: AUG-CC-PVTZ
  Basis Set: (AUG-CC-PVTZ AUX)
    Blend: AUG-CC-PVTZ-JKFIT
	 Reference Energy          =   -1231.7800583926848503 [Eh]
	 Singles Energy            =      -0.0000000000000000 [Eh]
	 Same-Spin Energy          =      -0.5857534025497753 [Eh]
	 Opposite-Spin Energy      =      -1.7461514317839981 [Eh]
	 Correlation Energy        =      -2.3319048343337734 [Eh]
	 Total Energy              =   -1234.1119632270185775 [Eh]

	 ================> DF-SCS-MP2 Energies <==================
	-----------------------------------------------------------
	 SCS Same-Spin Scale       =       0.3333333333333333 [-]
	 SCS Opposite-Spin Scale   =       1.2000000000000000 [-]
	 SCS Same-Spin Energy      =      -0.1952511341832584 [Eh]
	 SCS Opposite-Spin Energy  =      -2.0953817181407977 [Eh]
	 SCS Correlation Energy    =      -2.2906328523240562 [Eh]
	 SCS Total Energy          =   -1234.0706912450089021 [Eh]
	-----------------------------------------------------------

  Dipole Moment: [D]
     X:    -2.5672      Y:     0.8022      Z:     4.7568     Total:     5.4645

*** Psi4 exiting successfully. Buy a developer a beer!
