                               Psi4 1.3.2 release

  ==> Input File <==

--------------------------------------------------------------------------
#psi4
#
memory 32 gb

molecule  {
0 1
  S        0.9913580     0.0482182    -0.7632218
  S       -1.6960990    -1.1658100     0.0116150
  O        1.1339470    -1.3419000    -1.3567350
  O        1.3858060     1.2139170    -1.4782970
  N        1.8781370    -0.0233820     0.6524530
  C       -0.6861290     0.1873580    -0.3161810
  C        1.8702590     1.2384050     1.3961810
  C        1.6932100    -1.2084810     1.4940670
  C       -1.3340060     1.3908220    -0.1017950
  C       -2.6674560     1.1993540     0.3271550
  C       -2.9984720    -0.1352680     0.4414500
  H        2.0840190     2.0584320     0.7119160
  H        2.6656140     1.1849010     2.1428720
  H        0.9115380     1.4151000     1.9054530
  H        1.7293810    -2.1000160     0.8695980
  H        0.7471110    -1.1811200     2.0534300
  H        2.5234680    -1.2398400     2.2034110
  H       -0.8634200     2.3493520    -0.2940320
  H       -3.3646430     2.0039100     0.5365790
  H       -3.9505650    -0.5636820     0.7303990
units angstrom
no_reorient  #important for SAPT in psi4, default
symmetry c1  #important for SAPT in psi4, default
}

set PROPERTIES_ORIGIN ["COM"]
properties('MP2/aug-cc-pvtz', properties = ['dipole'])
--------------------------------------------------------------------------

    Molecular point group: c1
  Charge       = 0
  Multiplicity = 1
  Basis Set: AUG-CC-PVTZ
    Blend: AUG-CC-PVTZ
  Basis Set: (AUG-CC-PVTZ AUX)
    Blend: AUG-CC-PVTZ-JKFIT

    Orbital Energies [Eh]
    ---------------------

    Doubly Occupied:

       1A    -92.205934     2A    -92.018623     3A    -20.557600
       4A    -20.535294     5A    -15.606515     6A    -11.299593
       7A    -11.298081     8A    -11.279979     9A    -11.272415
      10A    -11.269882    11A    -11.265802    12A     -9.170843
      13A     -9.017908    14A     -6.855874    15A     -6.855768
      16A     -6.855113    17A     -6.698712    18A     -6.698200
      19A     -6.697422    20A     -1.459435    21A     -1.324651
      22A     -1.250928    23A     -1.203813    24A     -1.037037
      25A     -1.019285    26A     -0.981702    27A     -0.946229
      28A     -0.857298    29A     -0.788652    30A     -0.754454
      31A     -0.728895    32A     -0.703203    33A     -0.660697
      34A     -0.659344    35A     -0.629098    36A     -0.614860
      37A     -0.589699    38A     -0.579562    39A     -0.572409
      40A     -0.566257    41A     -0.551450    42A     -0.542115
      43A     -0.507649    44A     -0.501658    45A     -0.496406
      46A     -0.463554    47A     -0.461166    48A     -0.418645
      49A     -0.374068    50A     -0.356431

  @DF-RHF Final Energy: -1231.78261993562774

   => Energetics <=

    Nuclear Repulsion Energy =            892.7969085498388040
    One-Electron Energy =               -3469.0386389945028895
    Two-Electron Energy =                1344.4591105090362362
    Total Energy =                      -1231.7826199356277357
  Basis Set: (AUG-CC-PVTZ AUX)
    Blend: AUG-CC-PVTZ-RI
    Molecular point group: c1

    Geometry (in Angstrom), charge = 0, multiplicity = 1:

       Center              X                  Y                   Z               Mass
    ------------   -----------------  -----------------  -----------------  -----------------
         S            1.006531769033     0.059119215583    -0.708747248436    31.972071174400
         S           -1.680925230967    -1.154908984417     0.066089551564    31.972071174400
         O            1.149120769033    -1.330998984417    -1.302260448436    15.994914619570
         O            1.400979769033     1.224818015583    -1.423822448436    15.994914619570
         N            1.893310769033    -0.012480984417     0.706927551564    14.003074004430
         C           -0.670955230967     0.198259015583    -0.261706448436    12.000000000000
         C            1.885432769033     1.249306015583     1.450655551564    12.000000000000
         C            1.708383769033    -1.197579984417     1.548541551564    12.000000000000
         C           -1.318832230967     1.401723015583    -0.047320448436    12.000000000000
         C           -2.652282230967     1.210255015583     0.381629551564    12.000000000000
         C           -2.983298230967    -0.124366984417     0.495924551564    12.000000000000
         H            2.099192769033     2.069333015583     0.766390551564     1.007825032230
         H            2.680787769033     1.195802015583     2.197346551564     1.007825032230
         H            0.926711769033     1.426001015583     1.959927551564     1.007825032230
         H            1.744554769033    -2.089114984417     0.924072551564     1.007825032230
         H            0.762284769033    -1.170218984417     2.107904551564     1.007825032230
         H            2.538641769033    -1.228938984417     2.257885551564     1.007825032230
         H           -0.848246230967     2.360253015583    -0.239557448436     1.007825032230
         H           -3.349469230967     2.014811015583     0.591053551564     1.007825032230
         H           -3.935391230967    -0.552780984417     0.784873551564     1.007825032230

  Basis Set: AUG-CC-PVTZ
    Blend: AUG-CC-PVTZ
  Basis Set: (AUG-CC-PVTZ AUX)
    Blend: AUG-CC-PVTZ-JKFIT
	 Reference Energy          =   -1231.7826199356277357 [Eh]
	 Singles Energy            =      -0.0000000000000000 [Eh]
	 Same-Spin Energy          =      -0.5863426834483549 [Eh]
	 Opposite-Spin Energy      =      -1.7444664091675111 [Eh]
	 Correlation Energy        =      -2.3308090926158660 [Eh]
	 Total Energy              =   -1234.1134290282436723 [Eh]

	 ================> DF-SCS-MP2 Energies <==================
	-----------------------------------------------------------
	 SCS Same-Spin Scale       =       0.3333333333333333 [-]
	 SCS Opposite-Spin Scale   =       1.2000000000000000 [-]
	 SCS Same-Spin Energy      =      -0.1954475611494516 [Eh]
	 SCS Opposite-Spin Energy  =      -2.0933596910010133 [Eh]
	 SCS Correlation Energy    =      -2.2888072521504648 [Eh]
	 SCS Total Energy          =   -1234.0714271877782267 [Eh]
	-----------------------------------------------------------

  Dipole Moment: [D]
     X:    -2.7651      Y:     1.1786      Z:     4.8806     Total:     5.7319

*** Psi4 exiting successfully. Buy a developer a beer!
