                               Psi4 1.3.2 release

  ==> Input File <==

--------------------------------------------------------------------------
#psi4
#
memory 32 gb

molecule  {
0 1
  S        0.9972216    -0.0684799    -0.7735536
  S       -1.6960990    -1.1658100     0.0116150
  O        1.1339470    -1.3419000    -1.3567350
  O        1.3858060     1.2139170    -1.4782970
  N        1.8781370    -0.0233820     0.6524530
  C       -0.6861290     0.1873580    -0.3161810
  C        1.8702590     1.2384050     1.3961810
  C        1.6932100    -1.2084810     1.4940670
  C       -1.3340060     1.3908220    -0.1017950
  C       -2.6674560     1.1993540     0.3271550
  C       -2.9984720    -0.1352680     0.4414500
  H        2.0840190     2.0584320     0.7119160
  H        2.6656140     1.1849010     2.1428720
  H        0.9115380     1.4151000     1.9054530
  H        1.7293810    -2.1000160     0.8695980
  H        0.7471110    -1.1811200     2.0534300
  H        2.5234680    -1.2398400     2.2034110
  H       -0.8634200     2.3493520    -0.2940320
  H       -3.3646430     2.0039100     0.5365790
  H       -3.9505650    -0.5636820     0.7303990
units angstrom
no_reorient  #important for SAPT in psi4, default
symmetry c1  #important for SAPT in psi4, default
}

set PROPERTIES_ORIGIN ["COM"]
properties('MP2/aug-cc-pvtz', properties = ['dipole'])
--------------------------------------------------------------------------

    Molecular point group: c1
  Charge       = 0
  Multiplicity = 1
  Basis Set: AUG-CC-PVTZ
    Blend: AUG-CC-PVTZ
  Basis Set: (AUG-CC-PVTZ AUX)
    Blend: AUG-CC-PVTZ-JKFIT

    Orbital Energies [Eh]
    ---------------------

    Doubly Occupied:

       1A    -92.207216     2A    -92.015786     3A    -20.563232
       4A    -20.536539     5A    -15.605981     6A    -11.299063
       7A    -11.295831     8A    -11.277388     9A    -11.271011
      10A    -11.270940    11A    -11.264657    12A     -9.172081
      13A     -9.015519    14A     -6.857177    15A     -6.857001
      16A     -6.856384    17A     -6.696385    18A     -6.695831
      19A     -6.695088    20A     -1.470662    21A     -1.330522
      22A     -1.249987    23A     -1.201493    24A     -1.031606
      25A     -1.017260    26A     -0.981344    27A     -0.945137
      28A     -0.853647    29A     -0.786957    30A     -0.753996
      31A     -0.728064    32A     -0.706708    33A     -0.662969
      34A     -0.658510    35A     -0.629971    36A     -0.617109
      37A     -0.589004    38A     -0.581015    39A     -0.571403
      40A     -0.562770    41A     -0.550105    42A     -0.542431
      43A     -0.511922    44A     -0.506986    45A     -0.498350
      46A     -0.467326    47A     -0.459299    48A     -0.416414
      49A     -0.372679    50A     -0.353908

  @DF-RHF Final Energy: -1231.78220181533675

   => Energetics <=

    Nuclear Repulsion Energy =            892.7052696260485618
    One-Electron Energy =               -3468.8496172688082879
    Two-Electron Energy =                1344.3621458274230918
    Total Energy =                      -1231.7822018153367480
  Basis Set: (AUG-CC-PVTZ AUX)
    Blend: AUG-CC-PVTZ-RI
    Molecular point group: c1

    Geometry (in Angstrom), charge = 0, multiplicity = 1:

       Center              X                  Y                   Z               Mass
    ------------   -----------------  -----------------  -----------------  -----------------
         S            1.011413881577    -0.038045198421    -0.717349644642    31.972071174400
         S           -1.681906718423    -1.135375298421     0.067818955358    31.972071174400
         O            1.148139281577    -1.311465298421    -1.300531044642    15.994914619570
         O            1.399998281577     1.244351701579    -1.422093044642    15.994914619570
         N            1.892329281577     0.007052701579     0.708656955358    14.003074004430
         C           -0.671936718423     0.217792701579    -0.259977044642    12.000000000000
         C            1.884451281577     1.268839701579     1.452384955358    12.000000000000
         C            1.707402281577    -1.178046298421     1.550270955358    12.000000000000
         C           -1.319813718423     1.421256701579    -0.045591044642    12.000000000000
         C           -2.653263718423     1.229788701579     0.383358955358    12.000000000000
         C           -2.984279718423    -0.104833298421     0.497653955358    12.000000000000
         H            2.098211281577     2.088866701579     0.768119955358     1.007825032230
         H            2.679806281577     1.215335701579     2.199075955358     1.007825032230
         H            0.925730281577     1.445534701579     1.961656955358     1.007825032230
         H            1.743573281577    -2.069581298421     0.925801955358     1.007825032230
         H            0.761303281577    -1.150685298421     2.109633955358     1.007825032230
         H            2.537660281577    -1.209405298421     2.259614955358     1.007825032230
         H           -0.849227718423     2.379786701579    -0.237828044642     1.007825032230
         H           -3.350450718423     2.034344701579     0.592782955358     1.007825032230
         H           -3.936372718423    -0.533247298421     0.786602955358     1.007825032230

  Basis Set: AUG-CC-PVTZ
    Blend: AUG-CC-PVTZ
  Basis Set: (AUG-CC-PVTZ AUX)
    Blend: AUG-CC-PVTZ-JKFIT
	 Reference Energy          =   -1231.7822018153367480 [Eh]
	 Singles Energy            =      -0.0000000000000000 [Eh]
	 Same-Spin Energy          =      -0.5861267978888842 [Eh]
	 Opposite-Spin Energy      =      -1.7440571546930421 [Eh]
	 Correlation Energy        =      -2.3301839525819261 [Eh]
	 Total Energy              =   -1234.1123857679185676 [Eh]

	 ================> DF-SCS-MP2 Energies <==================
	-----------------------------------------------------------
	 SCS Same-Spin Scale       =       0.3333333333333333 [-]
	 SCS Opposite-Spin Scale   =       1.2000000000000000 [-]
	 SCS Same-Spin Energy      =      -0.1953755992962947 [Eh]
	 SCS Opposite-Spin Energy  =      -2.0928685856316505 [Eh]
	 SCS Correlation Energy    =      -2.2882441849279451 [Eh]
	 SCS Total Energy          =   -1234.0704460002646101 [Eh]
	-----------------------------------------------------------

  Dipole Moment: [D]
     X:    -2.6415      Y:     0.2823      Z:     4.7720     Total:     5.4616

*** Psi4 exiting successfully. Buy a developer a beer!
