                               Psi4 1.3.2 release

  ==> Input File <==

--------------------------------------------------------------------------
#psi4
#
memory 32 gb

molecule  {
0 1
  S        1.0053540    -0.0074810    -0.7736030
  S       -1.6960990    -1.1658100     0.0116150
  O        1.1047411    -1.3267019    -1.3957215
  O        1.3858060     1.2139170    -1.4782970
  N        1.8781370    -0.0233820     0.6524530
  C       -0.6861290     0.1873580    -0.3161810
  C        1.8702590     1.2384050     1.3961810
  C        1.6932100    -1.2084810     1.4940670
  C       -1.3340060     1.3908220    -0.1017950
  C       -2.6674560     1.1993540     0.3271550
  C       -2.9984720    -0.1352680     0.4414500
  H        2.0840190     2.0584320     0.7119160
  H        2.6656140     1.1849010     2.1428720
  H        0.9115380     1.4151000     1.9054530
  H        1.7293810    -2.1000160     0.8695980
  H        0.7471110    -1.1811200     2.0534300
  H        2.5234680    -1.2398400     2.2034110
  H       -0.8634200     2.3493520    -0.2940320
  H       -3.3646430     2.0039100     0.5365790
  H       -3.9505650    -0.5636820     0.7303990
units angstrom
no_reorient  #important for SAPT in psi4, default
symmetry c1  #important for SAPT in psi4, default
}

set PROPERTIES_ORIGIN ["COM"]
properties('MP2/aug-cc-pvtz', properties = ['dipole'])
--------------------------------------------------------------------------

    Molecular point group: c1
  Charge       = 0
  Multiplicity = 1
  Basis Set: AUG-CC-PVTZ
    Blend: AUG-CC-PVTZ
  Basis Set: (AUG-CC-PVTZ AUX)
    Blend: AUG-CC-PVTZ-JKFIT

    Orbital Energies [Eh]
    ---------------------

    Doubly Occupied:

       1A    -92.208250     2A    -92.015346     3A    -20.550199
       4A    -20.547656     5A    -15.608888     6A    -11.297600
       7A    -11.294794     8A    -11.276107     9A    -11.273534
      10A    -11.272535    11A    -11.263601    12A     -9.172434
      13A     -9.014871    14A     -6.857540    15A     -6.857256
      16A     -6.856930    17A     -6.695712    18A     -6.695183
      19A     -6.694423    20A     -1.455538    21A     -1.338574
      22A     -1.255139    23A     -1.200494    24A     -1.030760
      25A     -1.016492    26A     -0.983319    27A     -0.947378
      28A     -0.853110    29A     -0.785840    30A     -0.753873
      31A     -0.727369    32A     -0.703699    33A     -0.662476
      34A     -0.659561    35A     -0.627798    36A     -0.616236
      37A     -0.587640    38A     -0.580920    39A     -0.573277
      40A     -0.563482    41A     -0.549244    42A     -0.543330
      43A     -0.509389    44A     -0.500885    45A     -0.496726
      46A     -0.472167    47A     -0.468196    48A     -0.418699
      49A     -0.371740    50A     -0.353378

  @DF-RHF Final Energy: -1231.78924661711903

   => Energetics <=

    Nuclear Repulsion Energy =            892.3321389562021295
    One-Electron Energy =               -3468.1235923200474645
    Two-Electron Energy =                1344.0022067467264151
    Total Energy =                      -1231.7892466171190335
  Basis Set: (AUG-CC-PVTZ AUX)
    Blend: AUG-CC-PVTZ-RI
    Molecular point group: c1

    Geometry (in Angstrom), charge = 0, multiplicity = 1:

       Center              X                  Y                   Z               Mass
    ------------   -----------------  -----------------  -----------------  -----------------
         S            1.020630721910     0.011470624639    -0.714126056647    31.972071174400
         S           -1.680822278090    -1.146858375361     0.071091943353    31.972071174400
         O            1.120017821910    -1.307750275361    -1.336244556647    15.994914619570
         O            1.401082721910     1.232868624639    -1.418820056647    15.994914619570
         N            1.893413721910    -0.004430375361     0.711929943353    14.003074004430
         C           -0.670852278090     0.206309624639    -0.256704056647    12.000000000000
         C            1.885535721910     1.257356624639     1.455657943353    12.000000000000
         C            1.708486721910    -1.189529375361     1.553543943353    12.000000000000
         C           -1.318729278090     1.409773624639    -0.042318056647    12.000000000000
         C           -2.652179278090     1.218305624639     0.386631943353    12.000000000000
         C           -2.983195278090    -0.116316375361     0.500926943353    12.000000000000
         H            2.099295721910     2.077383624639     0.771392943353     1.007825032230
         H            2.680890721910     1.203852624639     2.202348943353     1.007825032230
         H            0.926814721910     1.434051624639     1.964929943353     1.007825032230
         H            1.744657721910    -2.081064375361     0.929074943353     1.007825032230
         H            0.762387721910    -1.162168375361     2.112906943353     1.007825032230
         H            2.538744721910    -1.220888375361     2.262887943353     1.007825032230
         H           -0.848143278090     2.368303624639    -0.234555056647     1.007825032230
         H           -3.349366278090     2.022861624639     0.596055943353     1.007825032230
         H           -3.935288278090    -0.544730375361     0.789875943353     1.007825032230

  Basis Set: AUG-CC-PVTZ
    Blend: AUG-CC-PVTZ
  Basis Set: (AUG-CC-PVTZ AUX)
    Blend: AUG-CC-PVTZ-JKFIT
	 Reference Energy          =   -1231.7892466171190335 [Eh]
	 Singles Energy            =      -0.0000000000000000 [Eh]
	 Same-Spin Energy          =      -0.5860329659216050 [Eh]
	 Opposite-Spin Energy      =      -1.7438925448745608 [Eh]
	 Correlation Energy        =      -2.3299255107961656 [Eh]
	 Total Energy              =   -1234.1191721279151352 [Eh]

	 ================> DF-SCS-MP2 Energies <==================
	-----------------------------------------------------------
	 SCS Same-Spin Scale       =       0.3333333333333333 [-]
	 SCS Opposite-Spin Scale   =       1.2000000000000000 [-]
	 SCS Same-Spin Energy      =      -0.1953443219738683 [Eh]
	 SCS Opposite-Spin Energy  =      -2.0926710538494731 [Eh]
	 SCS Correlation Energy    =      -2.2880153758233415 [Eh]
	 SCS Total Energy          =   -1234.0772619929423399 [Eh]
	-----------------------------------------------------------

  Dipole Moment: [D]
     X:    -2.4692      Y:     0.7136      Z:     4.8703     Total:     5.5069

*** Psi4 exiting successfully. Buy a developer a beer!
