                               Psi4 1.3.2 release

  ==> Input File <==

--------------------------------------------------------------------------
#psi4
#
memory 32 gb

molecule  {
0 1
  S        1.0053540    -0.0074810    -0.7736030
  S       -1.6960990    -1.1658100     0.0116150
  O        1.1339470    -1.3419000    -1.3567350
  O        1.3858060     1.2139170    -1.4782970
  N        1.8781370    -0.0233820     0.6524530
  C       -0.7315888     0.2235908    -0.3011768
  C        1.8702590     1.2384050     1.3961810
  C        1.6932100    -1.2084810     1.4940670
  C       -1.3340060     1.3908220    -0.1017950
  C       -2.6674560     1.1993540     0.3271550
  C       -2.9984720    -0.1352680     0.4414500
  H        2.0840190     2.0584320     0.7119160
  H        2.6656140     1.1849010     2.1428720
  H        0.9115380     1.4151000     1.9054530
  H        1.7293810    -2.1000160     0.8695980
  H        0.7471110    -1.1811200     2.0534300
  H        2.5234680    -1.2398400     2.2034110
  H       -0.8634200     2.3493520    -0.2940320
  H       -3.3646430     2.0039100     0.5365790
  H       -3.9505650    -0.5636820     0.7303990
units angstrom
no_reorient  #important for SAPT in psi4, default
symmetry c1  #important for SAPT in psi4, default
}

set PROPERTIES_ORIGIN ["COM"]
properties('MP2/aug-cc-pvtz', properties = ['dipole'])
--------------------------------------------------------------------------

    Molecular point group: c1
  Charge       = 0
  Multiplicity = 1
  Basis Set: AUG-CC-PVTZ
    Blend: AUG-CC-PVTZ
  Basis Set: (AUG-CC-PVTZ AUX)
    Blend: AUG-CC-PVTZ-JKFIT

    Orbital Energies [Eh]
    ---------------------

    Doubly Occupied:

       1A    -92.209089     2A    -92.012728     3A    -20.552660
       4A    -20.549604     5A    -15.607914     6A    -11.296739
       7A    -11.292121     8A    -11.272875     9A    -11.271354
      10A    -11.267635    11A    -11.262335    12A     -9.172959
      13A     -9.012647    14A     -6.858048    15A     -6.857691
      16A     -6.857402    17A     -6.693519    18A     -6.692916
      19A     -6.692121    20A     -1.455480    21A     -1.340783
      22A     -1.253646    23A     -1.207212    24A     -1.029260
      25A     -1.017910    26A     -0.982502    27A     -0.946565
      28A     -0.846192    29A     -0.789260    30A     -0.753074
      31A     -0.729500    32A     -0.703945    33A     -0.662547
      34A     -0.658450    35A     -0.625596    36A     -0.616413
      37A     -0.587140    38A     -0.579732    39A     -0.572629
      40A     -0.565089    41A     -0.553160    42A     -0.542725
      43A     -0.512262    44A     -0.501731    45A     -0.498813
      46A     -0.474291    47A     -0.463841    48A     -0.415872
      49A     -0.374720    50A     -0.355725

  @DF-RHF Final Energy: -1231.78732183789270

   => Energetics <=

    Nuclear Repulsion Energy =            892.0386956684859570
    One-Electron Energy =               -3467.5551940095647296
    Two-Electron Energy =                1343.7291765031859541
    Total Energy =                      -1231.7873218378927049
  Basis Set: (AUG-CC-PVTZ AUX)
    Blend: AUG-CC-PVTZ-RI
    Molecular point group: c1

    Geometry (in Angstrom), charge = 0, multiplicity = 1:

       Center              X                  Y                   Z               Mass
    ------------   -----------------  -----------------  -----------------  -----------------
         S            1.021041029019     0.010466992230    -0.718333411129    31.972071174400
         S           -1.680411970981    -1.147862007770     0.066884588871    31.972071174400
         O            1.149634029019    -1.323952007770    -1.301465411129    15.994914619570
         O            1.401493029019     1.231864992230    -1.423027411129    15.994914619570
         N            1.893824029019    -0.005434007770     0.707722588871    14.003074004430
         C           -0.715901770981     0.241538792230    -0.245907211129    12.000000000000
         C            1.885946029019     1.256352992230     1.451450588871    12.000000000000
         C            1.708897029019    -1.190533007770     1.549336588871    12.000000000000
         C           -1.318318970981     1.408769992230    -0.046525411129    12.000000000000
         C           -2.651768970981     1.217301992230     0.382424588871    12.000000000000
         C           -2.982784970981    -0.117320007770     0.496719588871    12.000000000000
         H            2.099706029019     2.076379992230     0.767185588871     1.007825032230
         H            2.681301029019     1.202848992230     2.198141588871     1.007825032230
         H            0.927225029019     1.433047992230     1.960722588871     1.007825032230
         H            1.745068029019    -2.082068007770     0.924867588871     1.007825032230
         H            0.762798029019    -1.163172007770     2.108699588871     1.007825032230
         H            2.539155029019    -1.221892007770     2.258680588871     1.007825032230
         H           -0.847732970981     2.367299992230    -0.238762411129     1.007825032230
         H           -3.348955970981     2.021857992230     0.591848588871     1.007825032230
         H           -3.934877970981    -0.545734007770     0.785668588871     1.007825032230

  Basis Set: AUG-CC-PVTZ
    Blend: AUG-CC-PVTZ
  Basis Set: (AUG-CC-PVTZ AUX)
    Blend: AUG-CC-PVTZ-JKFIT
	 Reference Energy          =   -1231.7873218378927049 [Eh]
	 Singles Energy            =      -0.0000000000000000 [Eh]
	 Same-Spin Energy          =      -0.5851870373368105 [Eh]
	 Opposite-Spin Energy      =      -1.7432058285988110 [Eh]
	 Correlation Energy        =      -2.3283928659356214 [Eh]
	 Total Energy              =   -1234.1157147038284165 [Eh]

	 ================> DF-SCS-MP2 Energies <==================
	-----------------------------------------------------------
	 SCS Same-Spin Scale       =       0.3333333333333333 [-]
	 SCS Opposite-Spin Scale   =       1.2000000000000000 [-]
	 SCS Same-Spin Energy      =      -0.1950623457789368 [Eh]
	 SCS Opposite-Spin Energy  =      -2.0918469943185731 [Eh]
	 SCS Correlation Energy    =      -2.2869093400975098 [Eh]
	 SCS Total Energy          =   -1234.0742311779902138 [Eh]
	-----------------------------------------------------------

  Dipole Moment: [D]
     X:    -2.4137      Y:     0.7402      Z:     4.7341     Total:     5.3653

*** Psi4 exiting successfully. Buy a developer a beer!
