                               Psi4 1.3.2 release

  ==> Input File <==

--------------------------------------------------------------------------
#psi4
#
memory 32 gb

molecule  {
0 1
  S        1.0053540    -0.0074810    -0.7736030
  S       -1.6960990    -1.1658100     0.0116150
  O        1.1339470    -1.3419000    -1.3567350
  O        1.3858060     1.2139170    -1.4782970
  N        1.8781370    -0.0233820     0.6524530
  C       -0.5573465     0.0689543    -0.3587268
  C        1.8702590     1.2384050     1.3961810
  C        1.6932100    -1.2084810     1.4940670
  C       -1.3340060     1.3908220    -0.1017950
  C       -2.6674560     1.1993540     0.3271550
  C       -2.9984720    -0.1352680     0.4414500
  H        2.0840190     2.0584320     0.7119160
  H        2.6656140     1.1849010     2.1428720
  H        0.9115380     1.4151000     1.9054530
  H        1.7293810    -2.1000160     0.8695980
  H        0.7471110    -1.1811200     2.0534300
  H        2.5234680    -1.2398400     2.2034110
  H       -0.8634200     2.3493520    -0.2940320
  H       -3.3646430     2.0039100     0.5365790
  H       -3.9505650    -0.5636820     0.7303990
units angstrom
no_reorient  #important for SAPT in psi4, default
symmetry c1  #important for SAPT in psi4, default
}

set PROPERTIES_ORIGIN ["COM"]
properties('MP2/aug-cc-pvtz', properties = ['dipole'])
--------------------------------------------------------------------------

    Molecular point group: c1
  Charge       = 0
  Multiplicity = 1
  Basis Set: AUG-CC-PVTZ
    Blend: AUG-CC-PVTZ
  Basis Set: (AUG-CC-PVTZ AUX)
    Blend: AUG-CC-PVTZ-JKFIT

    Orbital Energies [Eh]
    ---------------------

    Doubly Occupied:

       1A    -92.199456     2A    -92.028656     3A    -20.546510
       4A    -20.537570     5A    -15.599857     6A    -11.308642
       7A    -11.303347     8A    -11.300111     9A    -11.272401
      10A    -11.268735    11A    -11.267575    12A     -9.165639
      13A     -9.026702    14A     -6.851070    15A     -6.850522
      16A     -6.850029    17A     -6.707408    18A     -6.707123
      19A     -6.706455    20A     -1.455298    21A     -1.335026
      22A     -1.248381    23A     -1.191405    24A     -1.052643
      25A     -1.012561    26A     -0.978195    27A     -0.942793
      28A     -0.872713    29A     -0.782137    30A     -0.751022
      31A     -0.721469    32A     -0.702739    33A     -0.660444
      34A     -0.658925    35A     -0.634398    36A     -0.614418
      37A     -0.594433    38A     -0.577705    39A     -0.569761
      40A     -0.560875    41A     -0.543780    42A     -0.538165
      43A     -0.503974    44A     -0.500132    45A     -0.483969
      46A     -0.471526    47A     -0.464325    48A     -0.418914
      49A     -0.377885    50A     -0.341267

  @DF-RHF Final Energy: -1231.74799483628954

   => Energetics <=

    Nuclear Repulsion Energy =            894.1121970168147755
    One-Electron Energy =               -3471.6022064809480980
    Two-Electron Energy =                1345.7420146278439006
    Total Energy =                      -1231.7479948362895357
  Basis Set: (AUG-CC-PVTZ AUX)
    Blend: AUG-CC-PVTZ-RI
    Molecular point group: c1

    Geometry (in Angstrom), charge = 0, multiplicity = 1:

       Center              X                  Y                   Z               Mass
    ------------   -----------------  -----------------  -----------------  -----------------
         S            1.010094296986     0.020181994431    -0.714717845744    31.972071174400
         S           -1.691358703014    -1.138147005569     0.070500154256    31.972071174400
         O            1.138687296986    -1.314237005569    -1.297849845744    15.994914619570
         O            1.390546296986     1.241579994431    -1.419411845744    15.994914619570
         N            1.882877296986     0.004280994431     0.711338154256    14.003074004430
         C           -0.552606203014     0.096617294431    -0.299841645744    12.000000000000
         C            1.874999296986     1.266067994431     1.455066154256    12.000000000000
         C            1.697950296986    -1.180818005569     1.552952154256    12.000000000000
         C           -1.329265703014     1.418484994431    -0.042909845744    12.000000000000
         C           -2.662715703014     1.227016994431     0.386040154256    12.000000000000
         C           -2.993731703014    -0.107605005569     0.500335154256    12.000000000000
         H            2.088759296986     2.086094994431     0.770801154256     1.007825032230
         H            2.670354296986     1.212563994431     2.201757154256     1.007825032230
         H            0.916278296986     1.442762994431     1.964338154256     1.007825032230
         H            1.734121296986    -2.072353005569     0.928483154256     1.007825032230
         H            0.751851296986    -1.153457005569     2.112315154256     1.007825032230
         H            2.528208296986    -1.212177005569     2.262296154256     1.007825032230
         H           -0.858679703014     2.377014994431    -0.235146845744     1.007825032230
         H           -3.359902703014     2.031572994431     0.595464154256     1.007825032230
         H           -3.945824703014    -0.536019005569     0.789284154256     1.007825032230

  Basis Set: AUG-CC-PVTZ
    Blend: AUG-CC-PVTZ
  Basis Set: (AUG-CC-PVTZ AUX)
    Blend: AUG-CC-PVTZ-JKFIT
	 Reference Energy          =   -1231.7479948362895357 [Eh]
	 Singles Energy            =      -0.0000000000000000 [Eh]
	 Same-Spin Energy          =      -0.5903773562404191 [Eh]
	 Opposite-Spin Energy      =      -1.7495112838229474 [Eh]
	 Correlation Energy        =      -2.3398886400633665 [Eh]
	 Total Energy              =   -1234.0878834763529994 [Eh]

	 ================> DF-SCS-MP2 Energies <==================
	-----------------------------------------------------------
	 SCS Same-Spin Scale       =       0.3333333333333333 [-]
	 SCS Opposite-Spin Scale   =       1.2000000000000000 [-]
	 SCS Same-Spin Energy      =      -0.1967924520801397 [Eh]
	 SCS Opposite-Spin Energy  =      -2.0994135405875367 [Eh]
	 SCS Correlation Energy    =      -2.2962059926676766 [Eh]
	 SCS Total Energy          =   -1234.0442008289571731 [Eh]
	-----------------------------------------------------------

  Dipole Moment: [D]
     X:    -3.0355      Y:     0.8014      Z:     4.8773     Total:     5.8004

*** Psi4 exiting successfully. Buy a developer a beer!
