                               Psi4 1.3.2 release

  ==> Input File <==

--------------------------------------------------------------------------
#psi4
#
memory 32 gb

molecule  {
0 1
  S        1.0053540    -0.0074810    -0.7736030
  S       -1.6960990    -1.1658100     0.0116150
  O        1.1339470    -1.3419000    -1.3567350
  O        1.3858060     1.2139170    -1.4782970
  N        1.8781370    -0.0233820     0.6524530
  C       -0.5901878     0.1763067    -0.3421261
  C        1.8702590     1.2384050     1.3961810
  C        1.6932100    -1.2084810     1.4940670
  C       -1.3340060     1.3908220    -0.1017950
  C       -2.6674560     1.1993540     0.3271550
  C       -2.9984720    -0.1352680     0.4414500
  H        2.0840190     2.0584320     0.7119160
  H        2.6656140     1.1849010     2.1428720
  H        0.9115380     1.4151000     1.9054530
  H        1.7293810    -2.1000160     0.8695980
  H        0.7471110    -1.1811200     2.0534300
  H        2.5234680    -1.2398400     2.2034110
  H       -0.8634200     2.3493520    -0.2940320
  H       -3.3646430     2.0039100     0.5365790
  H       -3.9505650    -0.5636820     0.7303990
units angstrom
no_reorient  #important for SAPT in psi4, default
symmetry c1  #important for SAPT in psi4, default
}

set PROPERTIES_ORIGIN ["COM"]
properties('MP2/aug-cc-pvtz', properties = ['dipole'])
--------------------------------------------------------------------------

    Molecular point group: c1
  Charge       = 0
  Multiplicity = 1
  Basis Set: AUG-CC-PVTZ
    Blend: AUG-CC-PVTZ
  Basis Set: (AUG-CC-PVTZ AUX)
    Blend: AUG-CC-PVTZ-JKFIT

    Orbital Energies [Eh]
    ---------------------

    Doubly Occupied:

       1A    -92.203929     2A    -92.020220     3A    -20.545869
       4A    -20.545738     5A    -15.602747     6A    -11.305124
       7A    -11.299942     8A    -11.292483     9A    -11.270321
      10A    -11.268755    11A    -11.268534    12A     -9.169342
      13A     -9.018374    14A     -6.854610    15A     -6.854287
      16A     -6.853793    17A     -6.699112    18A     -6.698649
      19A     -6.697988    20A     -1.456384    21A     -1.337673
      22A     -1.250564    23A     -1.192255    24A     -1.045032
      25A     -1.012763    26A     -0.979726    27A     -0.945299
      28A     -0.867369    29A     -0.784873    30A     -0.752741
      31A     -0.725074    32A     -0.703349    33A     -0.660808
      34A     -0.659016    35A     -0.632988    36A     -0.615612
      37A     -0.593358    38A     -0.578475    39A     -0.570574
      40A     -0.559621    41A     -0.543754    42A     -0.539766
      43A     -0.508320    44A     -0.498799    45A     -0.488690
      46A     -0.471512    47A     -0.468968    48A     -0.419247
      49A     -0.372595    50A     -0.352043

  @DF-RHF Final Energy: -1231.77561047541531

   => Energetics <=

    Nuclear Repulsion Energy =            893.2056982515842947
    One-Electron Energy =               -3469.8484857590665342
    Two-Electron Energy =                1344.8671770320670475
    Total Energy =                      -1231.7756104754153057
  Basis Set: (AUG-CC-PVTZ AUX)
    Blend: AUG-CC-PVTZ-RI
    Molecular point group: c1

    Geometry (in Angstrom), charge = 0, multiplicity = 1:

       Center              X                  Y                   Z               Mass
    ------------   -----------------  -----------------  -----------------  -----------------
         S            1.012157544032     0.013437604832    -0.715760780866    31.972071174400
         S           -1.689295455968    -1.144891395168     0.069457219134    31.972071174400
         O            1.140750544032    -1.320981395168    -1.298892780866    15.994914619570
         O            1.392609544032     1.234835604832    -1.420454780866    15.994914619570
         N            1.884940544032    -0.002463395168     0.710295219134    14.003074004430
         C           -0.583384255968     0.197225304832    -0.284283880866    12.000000000000
         C            1.877062544032     1.259323604832     1.454023219134    12.000000000000
         C            1.700013544032    -1.187562395168     1.551909219134    12.000000000000
         C           -1.327202455968     1.411740604832    -0.043952780866    12.000000000000
         C           -2.660652455968     1.220272604832     0.384997219134    12.000000000000
         C           -2.991668455968    -0.114349395168     0.499292219134    12.000000000000
         H            2.090822544032     2.079350604832     0.769758219134     1.007825032230
         H            2.672417544032     1.205819604832     2.200714219134     1.007825032230
         H            0.918341544032     1.436018604832     1.963295219134     1.007825032230
         H            1.736184544032    -2.079097395168     0.927440219134     1.007825032230
         H            0.753914544032    -1.160201395168     2.111272219134     1.007825032230
         H            2.530271544032    -1.218921395168     2.261253219134     1.007825032230
         H           -0.856616455968     2.370270604832    -0.236189780866     1.007825032230
         H           -3.357839455968     2.024828604832     0.594421219134     1.007825032230
         H           -3.943761455968    -0.542763395168     0.788241219134     1.007825032230

  Basis Set: AUG-CC-PVTZ
    Blend: AUG-CC-PVTZ
  Basis Set: (AUG-CC-PVTZ AUX)
    Blend: AUG-CC-PVTZ-JKFIT
	 Reference Energy          =   -1231.7756104754153057 [Eh]
	 Singles Energy            =      -0.0000000000000000 [Eh]
	 Same-Spin Energy          =      -0.5875153807678291 [Eh]
	 Opposite-Spin Energy      =      -1.7460061231777964 [Eh]
	 Correlation Energy        =      -2.3335215039456254 [Eh]
	 Total Energy              =   -1234.1091319793608818 [Eh]

	 ================> DF-SCS-MP2 Energies <==================
	-----------------------------------------------------------
	 SCS Same-Spin Scale       =       0.3333333333333333 [-]
	 SCS Opposite-Spin Scale   =       1.2000000000000000 [-]
	 SCS Same-Spin Energy      =      -0.1958384602559430 [Eh]
	 SCS Opposite-Spin Energy  =      -2.0952073478133557 [Eh]
	 SCS Correlation Energy    =      -2.2910458080692986 [Eh]
	 SCS Total Energy          =   -1234.0666562834846900 [Eh]
	-----------------------------------------------------------

  Dipole Moment: [D]
     X:    -2.8632      Y:     0.8040      Z:     4.8300     Total:     5.6721

*** Psi4 exiting successfully. Buy a developer a beer!
