                               Psi4 1.4a3.dev225

  ==> Input File <==

--------------------------------------------------------------------------
#psi4
#
memory 32 gb

molecule  {
0 1
  S        1.0053540    -0.0074810    -0.7736030
  S       -1.6960990    -1.1658100     0.0116150
  O        1.1339470    -1.3419000    -1.3567350
  O        1.3858060     1.2139170    -1.4782970
  N        1.8781370    -0.0233820     0.6524530
  C       -0.6381584     0.1818323    -0.3291535
  C        1.8702590     1.2384050     1.3961810
  C        1.6932100    -1.2084810     1.4940670
  C       -1.3340060     1.3908220    -0.1017950
  C       -2.6674560     1.1993540     0.3271550
  C       -2.9984720    -0.1352680     0.4414500
  H        2.0840190     2.0584320     0.7119160
  H        2.6656140     1.1849010     2.1428720
  H        0.9115380     1.4151000     1.9054530
  H        1.7293810    -2.1000160     0.8695980
  H        0.7471110    -1.1811200     2.0534300
  H        2.5234680    -1.2398400     2.2034110
  H       -0.8634200     2.3493520    -0.2940320
  H       -3.3646430     2.0039100     0.5365790
  H       -3.9505650    -0.5636820     0.7303990
units angstrom
no_reorient  #important for SAPT in psi4, default
symmetry c1  #important for SAPT in psi4, default
}

set PROPERTIES_ORIGIN ["COM"]
properties('MP2/aug-cc-pvtz', properties = ['dipole'])
--------------------------------------------------------------------------

    Molecular point group: c1
  Charge       = 0
  Multiplicity = 1
  Basis Set: AUG-CC-PVTZ
    Blend: AUG-CC-PVTZ
  Basis Set: (AUG-CC-PVTZ AUX)
    Blend: AUG-CC-PVTZ-JKFIT

    Orbital Energies [Eh]
    ---------------------

    Doubly Occupied:

       1A    -92.206690     2A    -92.018007     3A    -20.548102
       4A    -20.547771     5A    -15.604892     6A    -11.300056
       7A    -11.299491     8A    -11.284496     9A    -11.271306
      10A    -11.269856    11A    -11.266183    12A     -9.171359
      13A     -9.016818    14A     -6.856519    15A     -6.856298
      16A     -6.855839    17A     -6.697601    18A     -6.697121
      19A     -6.696407    20A     -1.456201    21A     -1.339038
      22A     -1.251884    23A     -1.196277    24A     -1.037758
      25A     -1.014534    26A     -0.980856    27A     -0.945867
      28A     -0.860541    29A     -0.785532    30A     -0.753327
      31A     -0.726257    32A     -0.703707    33A     -0.661560
      34A     -0.658898    35A     -0.630568    36A     -0.616013
      37A     -0.590667    38A     -0.578982    39A     -0.571454
      40A     -0.561596    41A     -0.546431    42A     -0.540968
      43A     -0.508806    44A     -0.499605    45A     -0.493935
      46A     -0.471750    47A     -0.470000    48A     -0.418567
      49A     -0.372228    50A     -0.353110

  @DF-RHF Final Energy: -1231.78536481552692

   => Energetics <=

    Nuclear Repulsion Energy =            892.7989064126998073
    One-Electron Energy =               -3469.0450876786167100
    Two-Electron Energy =                1344.4608164503897569
    Total Energy =                      -1231.7853648155269184
  Basis Set: (AUG-CC-PVTZ AUX)
    Blend: AUG-CC-PVTZ-RI
    Molecular point group: c1

    Geometry (in Angstrom), charge = 0, multiplicity = 1:

       Center              X                  Y                   Z               Mass
    ------------   -----------------  -----------------  -----------------  -----------------
         S            1.015171285836     0.013090460295    -0.716575781449    31.972071174400
         S           -1.686281714164    -1.145238539705     0.068642218551    31.972071174400
         O            1.143764285836    -1.321328539705    -1.299707781449    15.994914619570
         O            1.395623285836     1.234488460295    -1.421269781449    15.994914619570
         N            1.887954285836    -0.002810539705     0.709480218551    14.003074004430
         C           -0.628341114164     0.202403760295    -0.272126281449    12.000000000000
         C            1.880076285836     1.258976460295     1.453208218551    12.000000000000
         C            1.703027285836    -1.187909539705     1.551094218551    12.000000000000
         C           -1.324188714164     1.411393460295    -0.044767781449    12.000000000000
         C           -2.657638714164     1.219925460295     0.384182218551    12.000000000000
         C           -2.988654714164    -0.114696539705     0.498477218551    12.000000000000
         H            2.093836285836     2.079003460295     0.768943218551     1.007825032230
         H            2.675431285836     1.205472460295     2.199899218551     1.007825032230
         H            0.921355285836     1.435671460295     1.962480218551     1.007825032230
         H            1.739198285836    -2.079444539705     0.926625218551     1.007825032230
         H            0.756928285836    -1.160548539705     2.110457218551     1.007825032230
         H            2.533285285836    -1.219268539705     2.260438218551     1.007825032230
         H           -0.853602714164     2.369923460295    -0.237004781449     1.007825032230
         H           -3.354825714164     2.024481460295     0.593606218551     1.007825032230
         H           -3.940747714164    -0.543110539705     0.787426218551     1.007825032230

  Basis Set: AUG-CC-PVTZ
    Blend: AUG-CC-PVTZ
  Basis Set: (AUG-CC-PVTZ AUX)
    Blend: AUG-CC-PVTZ-JKFIT
	 Reference Energy          =   -1231.7853648155269184 [Eh]
	 Singles Energy            =      -0.0000000000000000 [Eh]
	 Same-Spin Energy          =      -0.5867122026743197 [Eh]
	 Opposite-Spin Energy      =      -1.7448060880243155 [Eh]
	 Correlation Energy        =      -2.3315182906986349 [Eh]
	 Total Energy              =   -1234.1168831062254867 [Eh]

	 ================> DF-SCS-MP2 Energies <==================
	-----------------------------------------------------------
	 SCS Same-Spin Scale       =       0.3333333333333333 [-]
	 SCS Opposite-Spin Scale   =       1.2000000000000000 [-]
	 SCS Same-Spin Energy      =      -0.1955707342247732 [Eh]
	 SCS Opposite-Spin Energy  =      -2.0937673056291786 [Eh]
	 SCS Correlation Energy    =      -2.2893380398539516 [Eh]
	 SCS Total Energy          =   -1234.0747028553807922 [Eh]
	-----------------------------------------------------------

  Dipole Moment: [D]
     X:    -2.7135      Y:     0.7786      Z:     4.7991     Total:     5.5678

*** Psi4 exiting successfully. Buy a developer a beer!
