                               Psi4 1.4a3.dev225

  ==> Input File <==

--------------------------------------------------------------------------
#psi4
#
memory 32 gb

molecule  {
0 1
  S        1.0053540    -0.0074810    -0.7736030
  S       -1.6960990    -1.1658100     0.0116150
  O        1.1339470    -1.3419000    -1.3567350
  O        1.3858060     1.2139170    -1.4782970
  N        1.9042367    -0.0238575     0.6950978
  C       -0.6861290     0.1873580    -0.3161810
  C        1.8702590     1.2384050     1.3961810
  C        1.6932100    -1.2084810     1.4940670
  C       -1.3340060     1.3908220    -0.1017950
  C       -2.6674560     1.1993540     0.3271550
  C       -2.9984720    -0.1352680     0.4414500
  H        2.0840190     2.0584320     0.7119160
  H        2.6656140     1.1849010     2.1428720
  H        0.9115380     1.4151000     1.9054530
  H        1.7293810    -2.1000160     0.8695980
  H        0.7471110    -1.1811200     2.0534300
  H        2.5234680    -1.2398400     2.2034110
  H       -0.8634200     2.3493520    -0.2940320
  H       -3.3646430     2.0039100     0.5365790
  H       -3.9505650    -0.5636820     0.7303990
units angstrom
no_reorient  #important for SAPT in psi4, default
symmetry c1  #important for SAPT in psi4, default
}

set PROPERTIES_ORIGIN ["COM"]
properties('MP2/aug-cc-pvtz', properties = ['dipole'])
--------------------------------------------------------------------------

    Molecular point group: c1
  Charge       = 0
  Multiplicity = 1
  Basis Set: AUG-CC-PVTZ
    Blend: AUG-CC-PVTZ
  Basis Set: (AUG-CC-PVTZ AUX)
    Blend: AUG-CC-PVTZ-JKFIT

    Orbital Energies [Eh]
    ---------------------

    Doubly Occupied:

       1A    -92.208893     2A    -92.017152     3A    -20.552078
       4A    -20.551664     5A    -15.606354     6A    -11.300218
       7A    -11.296904     8A    -11.278591     9A    -11.268765
      10A    -11.267314    11A    -11.265182    12A     -9.173086
      13A     -9.016649    14A     -6.858045    15A     -6.857863
      16A     -6.857492    17A     -6.697482    18A     -6.696955
      19A     -6.696193    20A     -1.454676    21A     -1.341331
      22A     -1.253841    23A     -1.202480    24A     -1.032503
      25A     -1.018304    26A     -0.985108    27A     -0.937378
      28A     -0.851600    29A     -0.787650    30A     -0.754879
      31A     -0.728128    32A     -0.705350    33A     -0.660562
      34A     -0.659278    35A     -0.629387    36A     -0.619160
      37A     -0.589363    38A     -0.577516    39A     -0.571352
      40A     -0.564944    41A     -0.549701    42A     -0.547606
      43A     -0.509816    44A     -0.499962    45A     -0.498560
      46A     -0.474606    47A     -0.465394    48A     -0.411493
      49A     -0.373234    50A     -0.355409

  @DF-RHF Final Energy: -1231.78545725979734

   => Energetics <=

    Nuclear Repulsion Energy =            891.2129839713664978
    One-Electron Energy =               -3465.8419736006871972
    Two-Electron Energy =                1342.8435323695232455
    Total Energy =                      -1231.7854572597973402
  Basis Set: (AUG-CC-PVTZ AUX)
    Blend: AUG-CC-PVTZ-RI
    Molecular point group: c1

    Geometry (in Angstrom), charge = 0, multiplicity = 1:

       Center              X                  Y                   Z               Mass
    ------------   -----------------  -----------------  -----------------  -----------------
         S            1.016271615412     0.012778169168    -0.720517136658    31.972071174400
         S           -1.685181384588    -1.145550830832     0.064700863342    31.972071174400
         O            1.144864615412    -1.321640830832    -1.303649136658    15.994914619570
         O            1.396723615412     1.234176169168    -1.425211136658    15.994914619570
         N            1.915154315412    -0.003598330832     0.748183663342    14.003074004430
         C           -0.675211384588     0.207617169168    -0.263095136658    12.000000000000
         C            1.881176615412     1.258664169168     1.449266863342    12.000000000000
         C            1.704127615412    -1.188221830832     1.547152863342    12.000000000000
         C           -1.323088384588     1.411081169168    -0.048709136658    12.000000000000
         C           -2.656538384588     1.219613169168     0.380240863342    12.000000000000
         C           -2.987554384588    -0.115008830832     0.494535863342    12.000000000000
         H            2.094936615412     2.078691169168     0.765001863342     1.007825032230
         H            2.676531615412     1.205160169168     2.195957863342     1.007825032230
         H            0.922455615412     1.435359169168     1.958538863342     1.007825032230
         H            1.740298615412    -2.079756830832     0.922683863342     1.007825032230
         H            0.758028615412    -1.160860830832     2.106515863342     1.007825032230
         H            2.534385615412    -1.219580830832     2.256496863342     1.007825032230
         H           -0.852502384588     2.369611169168    -0.240946136658     1.007825032230
         H           -3.353725384588     2.024169169168     0.589664863342     1.007825032230
         H           -3.939647384588    -0.543422830832     0.783484863342     1.007825032230

  Basis Set: AUG-CC-PVTZ
    Blend: AUG-CC-PVTZ
  Basis Set: (AUG-CC-PVTZ AUX)
    Blend: AUG-CC-PVTZ-JKFIT
	 Reference Energy          =   -1231.7854572597973402 [Eh]
	 Singles Energy            =      -0.0000000000000000 [Eh]
	 Same-Spin Energy          =      -0.5866847848162657 [Eh]
	 Opposite-Spin Energy      =      -1.7450501780081504 [Eh]
	 Correlation Energy        =      -2.3317349628244162 [Eh]
	 Total Energy              =   -1234.1171922226217248 [Eh]

	 ================> DF-SCS-MP2 Energies <==================
	-----------------------------------------------------------
	 SCS Same-Spin Scale       =       0.3333333333333333 [-]
	 SCS Opposite-Spin Scale   =       1.2000000000000000 [-]
	 SCS Same-Spin Energy      =      -0.1955615949387552 [Eh]
	 SCS Opposite-Spin Energy  =      -2.0940602136097803 [Eh]
	 SCS Correlation Energy    =      -2.2896218085485356 [Eh]
	 SCS Total Energy          =   -1234.0750790683459854 [Eh]
	-----------------------------------------------------------

  Dipole Moment: [D]
     X:    -2.7346      Y:     0.7524      Z:     4.5696     Total:     5.3782

*** Psi4 exiting successfully. Buy a developer a beer!
