                               Psi4 1.3.2 release

  ==> Input File <==

--------------------------------------------------------------------------
#psi4
#
memory 32 gb

molecule  {
0 1
  S        1.0053540    -0.0074810    -0.7736030
  S       -1.6735110    -1.1841354     0.0041874
  O        1.1339470    -1.3419000    -1.3567350
  O        1.3858060     1.2139170    -1.4782970
  N        1.8781370    -0.0233820     0.6524530
  C       -0.6861290     0.1873580    -0.3161810
  C        1.8702590     1.2384050     1.3961810
  C        1.6932100    -1.2084810     1.4940670
  C       -1.3340060     1.3908220    -0.1017950
  C       -2.6674560     1.1993540     0.3271550
  C       -2.9984720    -0.1352680     0.4414500
  H        2.0840190     2.0584320     0.7119160
  H        2.6656140     1.1849010     2.1428720
  H        0.9115380     1.4151000     1.9054530
  H        1.7293810    -2.1000160     0.8695980
  H        0.7471110    -1.1811200     2.0534300
  H        2.5234680    -1.2398400     2.2034110
  H       -0.8634200     2.3493520    -0.2940320
  H       -3.3646430     2.0039100     0.5365790
  H       -3.9505650    -0.5636820     0.7303990
units angstrom
no_reorient  #important for SAPT in psi4, default
symmetry c1  #important for SAPT in psi4, default
}

set PROPERTIES_ORIGIN ["COM"]
properties('MP2/aug-cc-pvtz', properties = ['dipole'])
--------------------------------------------------------------------------

    Molecular point group: c1
  Charge       = 0
  Multiplicity = 1
  Basis Set: AUG-CC-PVTZ
    Blend: AUG-CC-PVTZ
  Basis Set: (AUG-CC-PVTZ AUX)
    Blend: AUG-CC-PVTZ-JKFIT

    Orbital Energies [Eh]
    ---------------------

    Doubly Occupied:

       1A    -92.207907     2A    -92.016623     3A    -20.549958
       4A    -20.549028     5A    -15.606505     6A    -11.299521
       7A    -11.297855     8A    -11.277462     9A    -11.272059
      10A    -11.270633    11A    -11.265538    12A     -9.172147
      13A     -9.015520    14A     -6.857258    15A     -6.856984
      16A     -6.856622    17A     -6.696345    18A     -6.695757
      19A     -6.695043    20A     -1.455802    21A     -1.339947
      22A     -1.252800    23A     -1.197659    24A     -1.031393
      25A     -1.014518    26A     -0.981669    27A     -0.946159
      28A     -0.853406    29A     -0.786709    30A     -0.752736
      31A     -0.727369    32A     -0.703756    33A     -0.662070
      34A     -0.658235    35A     -0.626820    36A     -0.616221
      37A     -0.588430    38A     -0.579188    39A     -0.572034
      40A     -0.563043    41A     -0.547323    42A     -0.541888
      43A     -0.509395    44A     -0.501117    45A     -0.497393
      46A     -0.472925    47A     -0.467593    48A     -0.417164
      49A     -0.373251    50A     -0.353027

  @DF-RHF Final Energy: -1231.78827863139463

   => Energetics <=

    Nuclear Repulsion Energy =            892.1771422679157695
    One-Electron Energy =               -3467.8312336824196791
    Two-Electron Energy =                1343.8658127831092770
    Total Energy =                      -1231.7882786313946326
  Basis Set: (AUG-CC-PVTZ AUX)
    Blend: AUG-CC-PVTZ-RI
    Molecular point group: c1

    Geometry (in Angstrom), charge = 0, multiplicity = 1:

       Center              X                  Y                   Z               Mass
    ------------   -----------------  -----------------  -----------------  -----------------
         S            1.014404101479     0.015810733961    -0.716147495814    31.972071174400
         S           -1.664460898521    -1.160843666039     0.061642904186    31.972071174400
         O            1.142997101479    -1.318608266039    -1.299279495814    15.994914619570
         O            1.394856101479     1.237208733961    -1.420841495814    15.994914619570
         N            1.887187101479    -0.000090266039     0.709908504186    14.003074004430
         C           -0.677078898521     0.210649733961    -0.258725495814    12.000000000000
         C            1.879309101479     1.261696733961     1.453636504186    12.000000000000
         C            1.702260101479    -1.185189266039     1.551522504186    12.000000000000
         C           -1.324955898521     1.414113733961    -0.044339495814    12.000000000000
         C           -2.658405898521     1.222645733961     0.384610504186    12.000000000000
         C           -2.989421898521    -0.111976266039     0.498905504186    12.000000000000
         H            2.093069101479     2.081723733961     0.769371504186     1.007825032230
         H            2.674664101479     1.208192733961     2.200327504186     1.007825032230
         H            0.920588101479     1.438391733961     1.962908504186     1.007825032230
         H            1.738431101479    -2.076724266039     0.927053504186     1.007825032230
         H            0.756161101479    -1.157828266039     2.110885504186     1.007825032230
         H            2.532518101479    -1.216548266039     2.260866504186     1.007825032230
         H           -0.854369898521     2.372643733961    -0.236576495814     1.007825032230
         H           -3.355592898521     2.027201733961     0.594034504186     1.007825032230
         H           -3.941514898521    -0.540390266039     0.787854504186     1.007825032230

  Basis Set: AUG-CC-PVTZ
    Blend: AUG-CC-PVTZ
  Basis Set: (AUG-CC-PVTZ AUX)
    Blend: AUG-CC-PVTZ-JKFIT
	 Reference Energy          =   -1231.7882786313946326 [Eh]
	 Singles Energy            =      -0.0000000000000000 [Eh]
	 Same-Spin Energy          =      -0.5859993995554623 [Eh]
	 Opposite-Spin Energy      =      -1.7444891189939611 [Eh]
	 Correlation Energy        =      -2.3304885185494233 [Eh]
	 Total Energy              =   -1234.1187671499440057 [Eh]

	 ================> DF-SCS-MP2 Energies <==================
	-----------------------------------------------------------
	 SCS Same-Spin Scale       =       0.3333333333333333 [-]
	 SCS Opposite-Spin Scale   =       1.2000000000000000 [-]
	 SCS Same-Spin Energy      =      -0.1953331331851541 [Eh]
	 SCS Opposite-Spin Energy  =      -2.0933869427927534 [Eh]
	 SCS Correlation Energy    =      -2.2887200759779076 [Eh]
	 SCS Total Energy          =   -1234.0769987073724678 [Eh]
	-----------------------------------------------------------

  Dipole Moment: [D]
     X:    -2.5660      Y:     0.7617      Z:     4.7657     Total:     5.4659

*** Psi4 exiting successfully. Buy a developer a beer!
