                               Psi4 1.4a3.dev225

  ==> Input File <==

--------------------------------------------------------------------------
#psi4
#
memory 32 gb

molecule  {
0 1
  S        1.0053540    -0.0074810    -0.7736030
  S       -1.6960990    -1.1658100     0.0116150
  O        1.1339470    -1.3419000    -1.3567350
  O        1.3858060     1.2139170    -1.4782970
  N        1.8781370    -0.0233820     0.6524530
  C       -0.6669408     0.1851477    -0.3213700
  C        1.8702590     1.2384050     1.3961810
  C        1.6932100    -1.2084810     1.4940670
  C       -1.3340060     1.3908220    -0.1017950
  C       -2.6674560     1.1993540     0.3271550
  C       -2.9984720    -0.1352680     0.4414500
  H        2.0840190     2.0584320     0.7119160
  H        2.6656140     1.1849010     2.1428720
  H        0.9115380     1.4151000     1.9054530
  H        1.7293810    -2.1000160     0.8695980
  H        0.7471110    -1.1811200     2.0534300
  H        2.5234680    -1.2398400     2.2034110
  H       -0.8634200     2.3493520    -0.2940320
  H       -3.3646430     2.0039100     0.5365790
  H       -3.9505650    -0.5636820     0.7303990
units angstrom
no_reorient  #important for SAPT in psi4, default
symmetry c1  #important for SAPT in psi4, default
}

set PROPERTIES_ORIGIN ["COM"]
properties('MP2/aug-cc-pvtz', properties = ['dipole'])
--------------------------------------------------------------------------

    Molecular point group: c1
  Charge       = 0
  Multiplicity = 1
  Basis Set: AUG-CC-PVTZ
    Blend: AUG-CC-PVTZ
  Basis Set: (AUG-CC-PVTZ AUX)
    Blend: AUG-CC-PVTZ-JKFIT

    Orbital Energies [Eh]
    ---------------------

    Doubly Occupied:

       1A    -92.207792     2A    -92.016797     3A    -20.549185
       4A    -20.548773     5A    -15.605941     6A    -11.299013
       7A    -11.297284     8A    -11.279954     9A    -11.271797
      10A    -11.270405    11A    -11.264961    12A     -9.172128
      13A     -9.016024    14A     -6.857259    15A     -6.857019
      16A     -6.856610    17A     -6.696838    18A     -6.696333
      19A     -6.695591    20A     -1.455994    21A     -1.339645
      22A     -1.252502    23A     -1.199145    24A     -1.033859
      25A     -1.016014    26A     -0.981415    27A     -0.946076
      28A     -0.856274    29A     -0.786083    30A     -0.753494
      31A     -0.727015    32A     -0.703830    33A     -0.661898
      34A     -0.658830    35A     -0.628951    36A     -0.616170
      37A     -0.589205    38A     -0.579219    39A     -0.571900
      40A     -0.563000    41A     -0.548283    42A     -0.541565
      43A     -0.509162    44A     -0.500312    45A     -0.496424
      46A     -0.472600    47A     -0.468967    48A     -0.417987
      49A     -0.372237    50A     -0.353671

  @DF-RHF Final Energy: -1231.78839778671136

   => Energetics <=

    Nuclear Repulsion Energy =            892.5898771409662231
    One-Electron Energy =               -3468.6336853346251701
    Two-Electron Energy =                1344.2554104069477034
    Total Energy =                      -1231.7883977867113572
  Basis Set: (AUG-CC-PVTZ AUX)
    Blend: AUG-CC-PVTZ-RI
    Molecular point group: c1

    Geometry (in Angstrom), charge = 0, multiplicity = 1:

       Center              X                  Y                   Z               Mass
    ------------   -----------------  -----------------  -----------------  -----------------
         S            1.016979533432     0.012882171060    -0.717064778029    31.972071174400
         S           -1.684473466568    -1.145446828940     0.068153221971    31.972071174400
         O            1.145572533432    -1.321536828940    -1.300196778029    15.994914619570
         O            1.397431533432     1.234280171060    -1.421758778029    15.994914619570
         N            1.889762533432    -0.003018828940     0.708991221971    14.003074004430
         C           -0.655315266568     0.205510871060    -0.264831778029    12.000000000000
         C            1.881884533432     1.258768171060     1.452719221971    12.000000000000
         C            1.704835533432    -1.188117828940     1.550605221971    12.000000000000
         C           -1.322380466568     1.411185171060    -0.045256778029    12.000000000000
         C           -2.655830466568     1.219717171060     0.383693221971    12.000000000000
         C           -2.986846466568    -0.114904828940     0.497988221971    12.000000000000
         H            2.095644533432     2.078795171060     0.768454221971     1.007825032230
         H            2.677239533432     1.205264171060     2.199410221971     1.007825032230
         H            0.923163533432     1.435463171060     1.961991221971     1.007825032230
         H            1.741006533432    -2.079652828940     0.926136221971     1.007825032230
         H            0.758736533432    -1.160756828940     2.109968221971     1.007825032230
         H            2.535093533432    -1.219476828940     2.259949221971     1.007825032230
         H           -0.851794466568     2.369715171060    -0.237493778029     1.007825032230
         H           -3.353017466568     2.024273171060     0.593117221971     1.007825032230
         H           -3.938939466568    -0.543318828940     0.786937221971     1.007825032230

  Basis Set: AUG-CC-PVTZ
    Blend: AUG-CC-PVTZ
  Basis Set: (AUG-CC-PVTZ AUX)
    Blend: AUG-CC-PVTZ-JKFIT
	 Reference Energy          =   -1231.7883977867113572 [Eh]
	 Singles Energy            =      -0.0000000000000000 [Eh]
	 Same-Spin Energy          =      -0.5863441506419760 [Eh]
	 Opposite-Spin Energy      =      -1.7442917796406650 [Eh]
	 Correlation Energy        =      -2.3306359302826412 [Eh]
	 Total Energy              =   -1234.1190337169939539 [Eh]

	 ================> DF-SCS-MP2 Energies <==================
	-----------------------------------------------------------
	 SCS Same-Spin Scale       =       0.3333333333333333 [-]
	 SCS Opposite-Spin Scale   =       1.2000000000000000 [-]
	 SCS Same-Spin Energy      =      -0.1954480502139920 [Eh]
	 SCS Opposite-Spin Energy  =      -2.0931501355687980 [Eh]
	 SCS Correlation Energy    =      -2.2885981857827900 [Eh]
	 SCS Total Energy          =   -1234.0769959724941600 [Eh]
	-----------------------------------------------------------

  Dipole Moment: [D]
     X:    -2.6258      Y:     0.7615      Z:     4.7811     Total:     5.5076

*** Psi4 exiting successfully. Buy a developer a beer!
