                               Psi4 1.4a3.dev225

  ==> Input File <==

--------------------------------------------------------------------------
#psi4
#
memory 32 gb

molecule  {
0 1
  S        1.0053540    -0.0074810    -0.7736030
  S       -1.6960990    -1.1658100     0.0116150
  O        1.1339470    -1.3419000    -1.3567350
  O        1.3858060     1.2139170    -1.4782970
  N        1.8781370    -0.0233820     0.6524530
  C       -0.6861290     0.1873580    -0.3161810
  C        1.8702590     1.2384050     1.3961810
  C        1.6932100    -1.2084810     1.4940670
  C       -1.3340060     1.3908220    -0.1017950
  C       -2.6674560     1.1993540     0.3271550
  C       -3.0364309    -0.1052319     0.4539780
  H        2.0840190     2.0584320     0.7119160
  H        2.6656140     1.1849010     2.1428720
  H        0.9115380     1.4151000     1.9054530
  H        1.7293810    -2.1000160     0.8695980
  H        0.7471110    -1.1811200     2.0534300
  H        2.5234680    -1.2398400     2.2034110
  H       -0.8634200     2.3493520    -0.2940320
  H       -3.3646430     2.0039100     0.5365790
  H       -3.9505650    -0.5636820     0.7303990
units angstrom
no_reorient  #important for SAPT in psi4, default
symmetry c1  #important for SAPT in psi4, default
}

set PROPERTIES_ORIGIN ["COM"]
properties('MP2/aug-cc-pvtz', properties = ['dipole'])
--------------------------------------------------------------------------

    Molecular point group: c1
  Charge       = 0
  Multiplicity = 1
  Basis Set: AUG-CC-PVTZ
    Blend: AUG-CC-PVTZ
  Basis Set: (AUG-CC-PVTZ AUX)
    Blend: AUG-CC-PVTZ-JKFIT

    Orbital Energies [Eh]
    ---------------------

    Doubly Occupied:

       1A    -92.209038     2A    -92.013129     3A    -20.550276
       4A    -20.550011     5A    -15.607277     6A    -11.301121
       7A    -11.295303     8A    -11.277507     9A    -11.272451
      10A    -11.270758    11A    -11.264492    12A     -9.173218
      13A     -9.011992    14A     -6.858339    15A     -6.858071
      16A     -6.857681    17A     -6.692823    18A     -6.692235
      19A     -6.691530    20A     -1.456402    21A     -1.340477
      22A     -1.253358    23A     -1.197663    24A     -1.035386
      25A     -1.010585    26A     -0.981952    27A     -0.947946
      28A     -0.855828    29A     -0.789951    30A     -0.753081
      31A     -0.727789    32A     -0.704196    33A     -0.662610
      34A     -0.659203    35A     -0.629105    36A     -0.616970
      37A     -0.598006    38A     -0.579499    39A     -0.572120
      40A     -0.559842    41A     -0.547108    42A     -0.542176
      43A     -0.507158    44A     -0.498032    45A     -0.495043
      46A     -0.473231    47A     -0.468468    48A     -0.417847
      49A     -0.372572    50A     -0.355316

  @DF-RHF Final Energy: -1231.78780068595120

   => Energetics <=

    Nuclear Repulsion Energy =            891.4452586513629058
    One-Electron Energy =               -3466.3537733830048637
    Two-Electron Energy =                1343.1207140456906473
    Total Energy =                      -1231.7878006859511970
  Basis Set: (AUG-CC-PVTZ AUX)
    Blend: AUG-CC-PVTZ-RI
    Molecular point group: c1

    Geometry (in Angstrom), charge = 0, multiplicity = 1:

       Center              X                  Y                   Z               Mass
    ------------   -----------------  -----------------  -----------------  -----------------
         S            1.020569786718     0.010856298469    -0.718177844439    31.972071174400
         S           -1.680883213282    -1.147472701531     0.067040155561    31.972071174400
         O            1.149162786718    -1.323562701531    -1.301309844439    15.994914619570
         O            1.401021786718     1.232254298469    -1.422871844439    15.994914619570
         N            1.893352786718    -0.005044701531     0.707878155561    14.003074004430
         C           -0.670913213282     0.205695298469    -0.260755844439    12.000000000000
         C            1.885474786718     1.256742298469     1.451606155561    12.000000000000
         C            1.708425786718    -1.190143701531     1.549492155561    12.000000000000
         C           -1.318790213282     1.409159298469    -0.046369844439    12.000000000000
         C           -2.652240213282     1.217691298469     0.382580155561    12.000000000000
         C           -3.021215113282    -0.086894601531     0.509403155561    12.000000000000
         H            2.099234786718     2.076769298469     0.767341155561     1.007825032230
         H            2.680829786718     1.203238298469     2.198297155561     1.007825032230
         H            0.926753786718     1.433437298469     1.960878155561     1.007825032230
         H            1.744596786718    -2.081678701531     0.925023155561     1.007825032230
         H            0.762326786718    -1.162782701531     2.108855155561     1.007825032230
         H            2.538683786718    -1.221502701531     2.258836155561     1.007825032230
         H           -0.848204213282     2.367689298469    -0.238606844439     1.007825032230
         H           -3.349427213282     2.022247298469     0.592004155561     1.007825032230
         H           -3.935349213282    -0.545344701531     0.785824155561     1.007825032230

  Basis Set: AUG-CC-PVTZ
    Blend: AUG-CC-PVTZ
  Basis Set: (AUG-CC-PVTZ AUX)
    Blend: AUG-CC-PVTZ-JKFIT
	 Reference Energy          =   -1231.7878006859511970 [Eh]
	 Singles Energy            =      -0.0000000000000000 [Eh]
	 Same-Spin Energy          =      -0.5856057537102928 [Eh]
	 Opposite-Spin Energy      =      -1.7440638662044523 [Eh]
	 Correlation Energy        =      -2.3296696199147453 [Eh]
	 Total Energy              =   -1234.1174703058659361 [Eh]

	 ================> DF-SCS-MP2 Energies <==================
	-----------------------------------------------------------
	 SCS Same-Spin Scale       =       0.3333333333333333 [-]
	 SCS Opposite-Spin Scale   =       1.2000000000000000 [-]
	 SCS Same-Spin Energy      =      -0.1952019179034309 [Eh]
	 SCS Opposite-Spin Energy  =      -2.0928766394453429 [Eh]
	 SCS Correlation Energy    =      -2.2880785573487739 [Eh]
	 SCS Total Energy          =   -1234.0758792433000508 [Eh]
	-----------------------------------------------------------

  Dipole Moment: [D]
     X:    -2.5667      Y:     0.8071      Z:     4.7786     Total:     5.4840

*** Psi4 exiting successfully. Buy a developer a beer!
