                               Psi4 1.3.2 release

  ==> Input File <==

--------------------------------------------------------------------------
#psi4
#
memory 32 gb

molecule  {
0 1
  S        1.0053540    -0.0074810    -0.7736030
  S       -1.6960990    -1.1658100     0.0116150
  O        1.1339470    -1.3419000    -1.3567350
  O        1.3858060     1.2139170    -1.4782970
  N        1.7253271    -0.0036577     0.7354572
  C       -0.6861290     0.1873580    -0.3161810
  C        1.8702590     1.2384050     1.3961810
  C        1.6932100    -1.2084810     1.4940670
  C       -1.3340060     1.3908220    -0.1017950
  C       -2.6674560     1.1993540     0.3271550
  C       -2.9984720    -0.1352680     0.4414500
  H        2.0840190     2.0584320     0.7119160
  H        2.6656140     1.1849010     2.1428720
  H        0.9115380     1.4151000     1.9054530
  H        1.7293810    -2.1000160     0.8695980
  H        0.7471110    -1.1811200     2.0534300
  H        2.5234680    -1.2398400     2.2034110
  H       -0.8634200     2.3493520    -0.2940320
  H       -3.3646430     2.0039100     0.5365790
  H       -3.9505650    -0.5636820     0.7303990
units angstrom
no_reorient  #important for SAPT in psi4, default
symmetry c1  #important for SAPT in psi4, default
}

set PROPERTIES_ORIGIN ["COM"]
properties('MP2/aug-cc-pvtz', properties = ['dipole'])
--------------------------------------------------------------------------

    Molecular point group: c1
  Charge       = 0
  Multiplicity = 1
  Basis Set: AUG-CC-PVTZ
    Blend: AUG-CC-PVTZ
  Basis Set: (AUG-CC-PVTZ AUX)
    Blend: AUG-CC-PVTZ-JKFIT

    Orbital Energies [Eh]
    ---------------------

    Doubly Occupied:

       1A    -92.213924     2A    -92.012899     3A    -20.556376
       4A    -20.555628     5A    -15.597586     6A    -11.295236
       7A    -11.290953     8A    -11.272089     9A    -11.269908
      10A    -11.269606    11A    -11.261307    12A     -9.177250
      13A     -9.012463    14A     -6.862469    15A     -6.862073
      16A     -6.861907    17A     -6.693322    18A     -6.692789
      19A     -6.692025    20A     -1.459875    21A     -1.344898
      22A     -1.269260    23A     -1.197884    24A     -1.031110
      25A     -1.013990    26A     -0.993440    27A     -0.948570
      28A     -0.845851    29A     -0.783341    30A     -0.755655
      31A     -0.727613    32A     -0.711094    33A     -0.669171
      34A     -0.666706    35A     -0.628323    36A     -0.621654
      37A     -0.585118    38A     -0.580760    39A     -0.573042
      40A     -0.562117    41A     -0.555546    42A     -0.545950
      43A     -0.514337    44A     -0.501534    45A     -0.500812
      46A     -0.478183    47A     -0.468624    48A     -0.400571
      49A     -0.369559    50A     -0.346665

  @DF-RHF Final Energy: -1231.77985366470716

   => Energetics <=

    Nuclear Repulsion Energy =            894.7416782536895425
    One-Electron Energy =               -3472.8409305990589928
    Two-Electron Energy =                1346.3193986806625162
    Total Energy =                      -1231.7798536647071614
  Basis Set: (AUG-CC-PVTZ AUX)
    Blend: AUG-CC-PVTZ-RI
    Molecular point group: c1

    Geometry (in Angstrom), charge = 0, multiplicity = 1:

       Center              X                  Y                   Z               Mass
    ------------   -----------------  -----------------  -----------------  -----------------
         S            1.029387774468     0.011297288379    -0.723475951108    31.972071174400
         S           -1.672065225532    -1.147031711621     0.061742048892    31.972071174400
         O            1.157980774468    -1.323121711621    -1.306607951108    15.994914619570
         O            1.409839774468     1.232695288379    -1.428169951108    15.994914619570
         N            1.749360874468     0.015120588379     0.785584248892    14.003074004430
         C           -0.662095225532     0.206136288379    -0.266053951108    12.000000000000
         C            1.894292774468     1.257183288379     1.446308048892    12.000000000000
         C            1.717243774468    -1.189702711621     1.544194048892    12.000000000000
         C           -1.309972225532     1.409600288379    -0.051667951108    12.000000000000
         C           -2.643422225532     1.218132288379     0.377282048892    12.000000000000
         C           -2.974438225532    -0.116489711621     0.491577048892    12.000000000000
         H            2.108052774468     2.077210288379     0.762043048892     1.007825032230
         H            2.689647774468     1.203679288379     2.192999048892     1.007825032230
         H            0.935571774468     1.433878288379     1.955580048892     1.007825032230
         H            1.753414774468    -2.081237711621     0.919725048892     1.007825032230
         H            0.771144774468    -1.162341711621     2.103557048892     1.007825032230
         H            2.547501774468    -1.221061711621     2.253538048892     1.007825032230
         H           -0.839386225532     2.368130288379    -0.243904951108     1.007825032230
         H           -3.340609225532     2.022688288379     0.586706048892     1.007825032230
         H           -3.926531225532    -0.544903711621     0.780526048892     1.007825032230

  Basis Set: AUG-CC-PVTZ
    Blend: AUG-CC-PVTZ
  Basis Set: (AUG-CC-PVTZ AUX)
    Blend: AUG-CC-PVTZ-JKFIT
	 Reference Energy          =   -1231.7798536647071614 [Eh]
	 Singles Energy            =      -0.0000000000000000 [Eh]
	 Same-Spin Energy          =      -0.5869354113360304 [Eh]
	 Opposite-Spin Energy      =      -1.7443086626528566 [Eh]
	 Correlation Energy        =      -2.3312440739888869 [Eh]
	 Total Energy              =   -1234.1110977386961167 [Eh]

	 ================> DF-SCS-MP2 Energies <==================
	-----------------------------------------------------------
	 SCS Same-Spin Scale       =       0.3333333333333333 [-]
	 SCS Opposite-Spin Scale   =       1.2000000000000000 [-]
	 SCS Same-Spin Energy      =      -0.1956451371120101 [Eh]
	 SCS Opposite-Spin Energy  =      -2.0931703951834280 [Eh]
	 SCS Correlation Energy    =      -2.2888155322954380 [Eh]
	 SCS Total Energy          =   -1234.0686691970026914 [Eh]
	-----------------------------------------------------------

  Dipole Moment: [D]
     X:    -2.0049      Y:     0.6785      Z:     4.4748     Total:     4.9502

*** Psi4 exiting successfully. Buy a developer a beer!
