                               Psi4 1.3.2 release

  ==> Input File <==

--------------------------------------------------------------------------
#psi4
#
memory 32 gb

molecule  {
0 1
  S        1.0053540    -0.0074810    -0.7736030
  S       -1.6960990    -1.1658100     0.0116150
  O        1.1339470    -1.3419000    -1.3567350
  O        1.3858060     1.2139170    -1.4782970
  N        1.8781370    -0.0233820     0.6524530
  C       -0.6418997     0.1494765    -0.3307859
  C        1.8702590     1.2384050     1.3961810
  C        1.6932100    -1.2084810     1.4940670
  C       -1.3340060     1.3908220    -0.1017950
  C       -2.6674560     1.1993540     0.3271550
  C       -2.9984720    -0.1352680     0.4414500
  H        2.0840190     2.0584320     0.7119160
  H        2.6656140     1.1849010     2.1428720
  H        0.9115380     1.4151000     1.9054530
  H        1.7293810    -2.1000160     0.8695980
  H        0.7471110    -1.1811200     2.0534300
  H        2.5234680    -1.2398400     2.2034110
  H       -0.8634200     2.3493520    -0.2940320
  H       -3.3646430     2.0039100     0.5365790
  H       -3.9505650    -0.5636820     0.7303990
units angstrom
no_reorient  #important for SAPT in psi4, default
symmetry c1  #important for SAPT in psi4, default
}

set PROPERTIES_ORIGIN ["COM"]
properties('MP2/aug-cc-pvtz', properties = ['dipole'])
--------------------------------------------------------------------------

    Molecular point group: c1
  Charge       = 0
  Multiplicity = 1
  Basis Set: AUG-CC-PVTZ
    Blend: AUG-CC-PVTZ
  Basis Set: (AUG-CC-PVTZ AUX)
    Blend: AUG-CC-PVTZ-JKFIT

    Orbital Energies [Eh]
    ---------------------

    Doubly Occupied:

       1A    -92.206332     2A    -92.019893     3A    -20.548711
       4A    -20.546230     5A    -15.604694     6A    -11.299893
       7A    -11.299503     8A    -11.286270     9A    -11.271104
      10A    -11.269860    11A    -11.266620    12A     -9.170975
      13A     -9.018949    14A     -6.856132    15A     -6.855919
      16A     -6.855456    17A     -6.699746    18A     -6.699297
      19A     -6.698570    20A     -1.455821    21A     -1.338656
      22A     -1.251656    23A     -1.196767    24A     -1.037711
      25A     -1.014538    26A     -0.980736    27A     -0.945310
      28A     -0.860369    29A     -0.784237    30A     -0.753433
      31A     -0.725444    32A     -0.703563    33A     -0.661296
      34A     -0.659140    35A     -0.630196    36A     -0.615797
      37A     -0.590017    38A     -0.578857    39A     -0.571544
      40A     -0.563096    41A     -0.546997    42A     -0.540849
      43A     -0.507382    44A     -0.500700    45A     -0.494001
      46A     -0.471392    47A     -0.470401    48A     -0.418387
      49A     -0.372924    50A     -0.350265

  @DF-RHF Final Energy: -1231.78280268572689

   => Energetics <=

    Nuclear Repulsion Energy =            892.9574023524900213
    One-Electron Energy =               -3469.3491374353720857
    Two-Electron Energy =                1344.6089323971550584
    Total Energy =                      -1231.7828026857268924
  Basis Set: (AUG-CC-PVTZ AUX)
    Blend: AUG-CC-PVTZ-RI
    Molecular point group: c1

    Geometry (in Angstrom), charge = 0, multiplicity = 1:

       Center              X                  Y                   Z               Mass
    ------------   -----------------  -----------------  -----------------  -----------------
         S            1.015406332140     0.015123205916    -0.716473226298    31.972071174400
         S           -1.686046667860    -1.143205794084     0.068744773702    31.972071174400
         O            1.143999332140    -1.319295794084    -1.299605226298    15.994914619570
         O            1.395858332140     1.236521205916    -1.421167226298    15.994914619570
         N            1.888189332140    -0.000777794084     0.709582773702    14.003074004430
         C           -0.631847367860     0.172080705916    -0.273656126298    12.000000000000
         C            1.880311332140     1.261009205916     1.453310773702    12.000000000000
         C            1.703262332140    -1.185876794084     1.551196773702    12.000000000000
         C           -1.323953667860     1.413426205916    -0.044665226298    12.000000000000
         C           -2.657403667860     1.221958205916     0.384284773702    12.000000000000
         C           -2.988419667860    -0.112663794084     0.498579773702    12.000000000000
         H            2.094071332140     2.081036205916     0.769045773702     1.007825032230
         H            2.675666332140     1.207505205916     2.200001773702     1.007825032230
         H            0.921590332140     1.437704205916     1.962582773702     1.007825032230
         H            1.739433332140    -2.077411794084     0.926727773702     1.007825032230
         H            0.757163332140    -1.158515794084     2.110559773702     1.007825032230
         H            2.533520332140    -1.217235794084     2.260540773702     1.007825032230
         H           -0.853367667860     2.371956205916    -0.236902226298     1.007825032230
         H           -3.354590667860     2.026514205916     0.593708773702     1.007825032230
         H           -3.940512667860    -0.541077794084     0.787528773702     1.007825032230

  Basis Set: AUG-CC-PVTZ
    Blend: AUG-CC-PVTZ
  Basis Set: (AUG-CC-PVTZ AUX)
    Blend: AUG-CC-PVTZ-JKFIT
	 Reference Energy          =   -1231.7828026857268924 [Eh]
	 Singles Energy            =      -0.0000000000000000 [Eh]
	 Same-Spin Energy          =      -0.5873626603699627 [Eh]
	 Opposite-Spin Energy      =      -1.7453711664690217 [Eh]
	 Correlation Energy        =      -2.3327338268389841 [Eh]
	 Total Energy              =   -1234.1155365125657681 [Eh]

	 ================> DF-SCS-MP2 Energies <==================
	-----------------------------------------------------------
	 SCS Same-Spin Scale       =       0.3333333333333333 [-]
	 SCS Opposite-Spin Scale   =       1.2000000000000000 [-]
	 SCS Same-Spin Energy      =      -0.1957875534566542 [Eh]
	 SCS Opposite-Spin Energy  =      -2.0944453997628258 [Eh]
	 SCS Correlation Energy    =      -2.2902329532194798 [Eh]
	 SCS Total Energy          =   -1234.0730356389462941 [Eh]
	-----------------------------------------------------------

  Dipole Moment: [D]
     X:    -2.7338      Y:     0.7650      Z:     4.8066     Total:     5.5824

*** Psi4 exiting successfully. Buy a developer a beer!
